 Entering Gaussian System
 *********************************************
 Gaussian 98:
 frequency output generated by the xtb code
 *********************************************
                         Standard orientation:
 --------------------------------------------------------------------
  Center     Atomic     Atomic              Coordinates (Angstroms)
  Number     Number      Type              X           Y           Z
 --------------------------------------------------------------------
    1          6             0       -3.549587   -1.785693   -0.707381
    2          7             0       -3.596418   -0.553294    0.040836
    3          6             0       -2.544019    0.244090    0.335192
    4          8             0       -2.629161    1.214791    1.043662
    5          8             0       -1.413621   -0.197920   -0.269315
    6          6             0       -0.239738    0.536617   -0.192552
    7          6             0       -0.208118    1.902161   -0.288719
    8          6             0        1.021228    2.576601   -0.251036
    9          6             0        2.194201    1.887943   -0.132283
   10          6             0        2.193040    0.480151   -0.042460
   11          6             0        0.957455   -0.216873   -0.069530
   12          6             0        0.958757   -1.623166    0.027578
   13          6             0        2.133671   -2.311907    0.145060
   14          6             0        3.357576   -1.626697    0.168451
   15          6             0        3.385731   -0.263301    0.077434
   16          1             0       -4.474812   -1.899767   -1.271053
   17          1             0       -3.426683   -2.650280   -0.047921
   18          1             0       -2.712174   -1.749329   -1.400153
   19          1             0       -4.442415   -0.340369    0.546074
   20          1             0       -1.124461    2.462264   -0.379463
   21          1             0        1.023440    3.653897   -0.321545
   22          1             0        3.139927    2.409386   -0.105248
   23          1             0        0.013091   -2.143448    0.009218
   24          1             0        2.127207   -3.389391    0.221547
   25          1             0        4.276864   -2.186509    0.260570
   26          1             0        4.325815    0.269362    0.096252
 --------------------------------------------------------------------
     1 basis functions        1 primitive gaussians
     1 alpha electrons        1 beta electrons
 
 Harmonic frequencies (cm**-1), IR intensities (km*mol⁻¹),
 Raman scattering activities (A**4/amu), Raman depolarization ratios,
 reduced masses (AMU), force constants (mDyne/A) and normal coordinates:
                      1                      2                      3
                        a                      a                      a 
 Frequencies --    25.3871                48.8851                75.4427
 Red. masses --    12.2713                11.0631                 5.1225
 Frc consts  --     0.0000                 0.0000                 0.0000
 IR Inten    --     3.4611                 1.7181                 0.4690
 Raman Activ --     0.0000                 0.0000                 0.0000
 Depolar     --     0.0000                 0.0000                 0.0000
 Atom AN      X      Y      Z        X      Y      Z        X      Y      Z
   1   6     0.24  -0.27   0.30     0.05  -0.15   0.29     0.34   0.02  -0.15
   2   7     0.01  -0.06  -0.07     0.08  -0.11   0.23     0.02  -0.01  -0.13
   3   6    -0.09   0.11  -0.12     0.08  -0.01  -0.04    -0.02  -0.00   0.06
   4   8    -0.32   0.32  -0.44     0.21  -0.04   0.00    -0.06  -0.11   0.20
   5   8     0.02   0.04   0.16    -0.04   0.13  -0.40    -0.02   0.09   0.03
   6   6     0.01   0.04   0.12    -0.01   0.07  -0.25    -0.02   0.06   0.04
   7   6     0.04   0.05   0.19     0.03   0.07  -0.17     0.01   0.06   0.04
   8   6     0.06   0.01   0.17     0.04   0.05   0.05     0.04   0.02  -0.05
   9   6     0.05  -0.02   0.09     0.00   0.02   0.20     0.03  -0.02  -0.13
  10   6     0.02  -0.03   0.01    -0.03   0.01   0.11    -0.01  -0.02  -0.07
  11   6     0.00   0.01   0.03    -0.04   0.04  -0.15    -0.04   0.03   0.02
  12   6    -0.03   0.00  -0.05    -0.09   0.03  -0.27    -0.10   0.04   0.12
  13   6    -0.04  -0.03  -0.15    -0.12  -0.01  -0.13    -0.12  -0.01   0.12
  14   6    -0.02  -0.07  -0.17    -0.11  -0.03   0.15    -0.09  -0.05   0.01
  15   6     0.01  -0.06  -0.09    -0.07  -0.02   0.26    -0.04  -0.06  -0.09
  16   1     0.08  -0.17   0.10    -0.04  -0.11   0.19    -0.06  -0.24   0.27
  17   1     0.12  -0.02   0.16     0.14  -0.02   0.09     0.55   0.03  -0.09
  18   1     0.07  -0.09   0.08    -0.07  -0.01  -0.01    -0.14   0.23  -0.32
  19   1    -0.02  -0.00  -0.07     0.06  -0.05   0.13     0.01  -0.09   0.01
  20   1     0.02   0.02   0.07     0.01   0.03  -0.07     0.01   0.02   0.02
  21   1     0.02   0.00   0.07     0.02   0.01   0.03     0.02   0.00  -0.02
  22   1     0.02  -0.01   0.02     0.00  -0.00   0.12     0.01  -0.01  -0.06
  23   1    -0.01   0.01  -0.01    -0.03   0.01  -0.14    -0.04   0.02   0.05
  24   1    -0.02  -0.01  -0.06    -0.04  -0.00  -0.07    -0.05   0.00   0.06
  25   1    -0.01  -0.03  -0.07    -0.04  -0.02   0.08    -0.03  -0.03   0.00
  26   1     0.01  -0.02  -0.03    -0.02  -0.01   0.14    -0.00  -0.03  -0.05
                      4                      5                      6
                        a                      a                      a 
 Frequencies --    91.8413               134.9207               144.5559
 Red. masses --     9.0871                11.4855                10.7272
 Frc consts  --     0.0000                 0.0000                 0.0000
 IR Inten    --     1.4796                 2.3186                 1.8817
 Raman Activ --     0.0000                 0.0000                 0.0000
 Depolar     --     0.0000                 0.0000                 0.0000
 Atom AN      X      Y      Z        X      Y      Z        X      Y      Z
   1   6    -0.16   0.13   0.12    -0.11  -0.15   0.27     0.22  -0.10   0.14
   2   7    -0.17   0.32  -0.16    -0.11   0.26  -0.40    -0.08   0.21  -0.39
   3   6    -0.01   0.07  -0.02     0.05  -0.03  -0.14    -0.04   0.01   0.09
   4   8     0.10   0.13  -0.08     0.22  -0.23   0.12    -0.08  -0.17   0.35
   5   8    -0.03  -0.21   0.15    -0.01   0.03  -0.32     0.02   0.03   0.21
   6   6    -0.01  -0.18   0.01     0.00   0.01  -0.06     0.00   0.04   0.06
   7   6    -0.08  -0.18  -0.07    -0.00   0.02   0.09     0.01   0.04  -0.01
   8   6    -0.14  -0.09  -0.03    -0.02   0.03   0.23     0.04   0.00  -0.22
   9   6    -0.10  -0.00   0.11    -0.01   0.02   0.07     0.03  -0.01  -0.16
  10   6    -0.02  -0.00   0.10    -0.00   0.01  -0.07     0.01   0.00  -0.00
  11   6     0.04  -0.10   0.00    -0.01   0.01   0.02     0.00   0.02  -0.07
  12   6     0.17  -0.11  -0.13    -0.01   0.03   0.23    -0.03   0.01  -0.26
  13   6     0.23  -0.02  -0.16    -0.01   0.03   0.21    -0.05  -0.02  -0.18
  14   6     0.17   0.09   0.01     0.01   0.01  -0.12    -0.06  -0.02   0.18
  15   6     0.04   0.10   0.13     0.01   0.00  -0.24    -0.03  -0.01   0.22
  16   1    -0.16  -0.12   0.26    -0.02  -0.11   0.08     0.15  -0.06  -0.10
  17   1     0.23   0.09   0.06    -0.05   0.05   0.21    -0.07   0.04   0.16
  18   1    -0.21   0.10  -0.16    -0.02  -0.15   0.09     0.17  -0.13   0.17
  19   1    -0.03   0.10  -0.03     0.00   0.07  -0.05    -0.03   0.03  -0.11
  20   1    -0.03  -0.07  -0.04    -0.00   0.00   0.02     0.00   0.01   0.03
  21   1    -0.06  -0.03  -0.02    -0.01   0.01   0.12     0.02  -0.00  -0.11
  22   1    -0.04   0.02   0.06    -0.00   0.00   0.02     0.01  -0.01  -0.07
  23   1     0.06  -0.06  -0.07    -0.01   0.01   0.12    -0.01   0.01  -0.13
  24   1     0.09  -0.01  -0.08    -0.01   0.01   0.12    -0.02  -0.01  -0.10
  25   1     0.06   0.05   0.00     0.00   0.00  -0.07    -0.02  -0.01   0.10
  26   1    -0.00   0.06   0.07     0.01  -0.00  -0.12    -0.01  -0.01   0.12
                      7                      8                      9
                        a                      a                      a 
 Frequencies --   163.0366               213.5294               248.5834
 Red. masses --     9.9993                10.1195                13.0596
 Frc consts  --     0.0000                 0.0000                 0.0000
 IR Inten    --     1.1256                 0.6609                 7.5551
 Raman Activ --     0.0000                 0.0000                 0.0000
 Depolar     --     0.0000                 0.0000                 0.0000
 Atom AN      X      Y      Z        X      Y      Z        X      Y      Z
   1   6    -0.13   0.01   0.01    -0.49  -0.16   0.02     0.08   0.02   0.02
   2   7    -0.03  -0.01   0.05    -0.11  -0.12  -0.04    -0.14  -0.01   0.05
   3   6    -0.02   0.00  -0.02    -0.07  -0.11  -0.07    -0.23   0.14   0.05
   4   8    -0.06   0.04  -0.07    -0.24  -0.19  -0.01    -0.41   0.02   0.24
   5   8    -0.02  -0.01  -0.00     0.02   0.11  -0.06    -0.28   0.34  -0.19
   6   6     0.01  -0.02  -0.05     0.05   0.11   0.14    -0.03  -0.03  -0.13
   7   6    -0.00   0.01   0.38     0.16   0.11   0.11     0.12  -0.03  -0.18
   8   6     0.01   0.00   0.23     0.22   0.04  -0.15     0.12  -0.05   0.01
   9   6     0.04  -0.02  -0.24     0.21   0.02  -0.16     0.06  -0.11   0.14
  10   6     0.03  -0.03  -0.34     0.11   0.03   0.11    -0.02  -0.11  -0.01
  11   6     0.04  -0.04  -0.34     0.06   0.10   0.16    -0.04  -0.13  -0.07
  12   6     0.07  -0.03  -0.28     0.04   0.10   0.04     0.18  -0.13   0.01
  13   6     0.05   0.02   0.20     0.02   0.04  -0.14     0.27  -0.01   0.09
  14   6     0.04   0.04   0.38     0.05  -0.02  -0.03     0.24   0.04  -0.01
  15   6     0.03   0.01  -0.06     0.09  -0.01   0.14     0.07   0.03  -0.07
  16   1    -0.06   0.00   0.04    -0.23  -0.05   0.15     0.05  -0.01  -0.04
  17   1    -0.00  -0.00  -0.01    -0.05  -0.04   0.00     0.01   0.00   0.01
  18   1    -0.07   0.01  -0.04    -0.24  -0.06  -0.12     0.06   0.03   0.05
  19   1    -0.00   0.01   0.01     0.00   0.00   0.03    -0.04  -0.06   0.05
  20   1    -0.00   0.02   0.23     0.05   0.05   0.04     0.04  -0.00  -0.08
  21   1    -0.01   0.01   0.15     0.08   0.01  -0.11     0.05  -0.01   0.02
  22   1     0.01  -0.01  -0.10     0.07  -0.01  -0.11     0.03  -0.05   0.09
  23   1     0.03  -0.02  -0.12     0.01   0.04   0.01     0.07  -0.08   0.01
  24   1     0.02   0.01   0.13    -0.00   0.01  -0.10     0.10  -0.00   0.05
  25   1     0.01   0.03   0.24     0.01  -0.02  -0.03     0.08   0.03  -0.01
  26   1     0.00   0.01  -0.00     0.03  -0.01   0.06    -0.00   0.05  -0.04
                     10                     11                     12
                        a                      a                      a 
 Frequencies --   266.0261               387.4464               423.5408
 Red. masses --    11.3342                 9.5358                11.2832
 Frc consts  --     0.0000                 0.0000                 0.0000
 IR Inten    --     0.4805                 0.8791                 3.1359
 Raman Activ --     0.0000                 0.0000                 0.0000
 Depolar     --     0.0000                 0.0000                 0.0000
 Atom AN      X      Y      Z        X      Y      Z        X      Y      Z
   1   6     0.17   0.07   0.02     0.01   0.02   0.01    -0.13  -0.12  -0.04
   2   7     0.01   0.03   0.08    -0.02   0.02   0.00     0.39  -0.04  -0.11
   3   6     0.00   0.08  -0.10    -0.02   0.00   0.05     0.22   0.09   0.02
   4   8     0.19   0.06  -0.05    -0.10   0.01   0.03    -0.09   0.05   0.09
   5   8    -0.13   0.15  -0.40    -0.01  -0.08   0.09     0.23   0.21   0.12
   6   6    -0.05  -0.05   0.15     0.01  -0.04  -0.32     0.14   0.10   0.01
   7   6    -0.07  -0.03   0.36    -0.01  -0.02  -0.05     0.06   0.12  -0.04
   8   6    -0.08  -0.03  -0.05    -0.01  -0.02   0.19    -0.01   0.19  -0.01
   9   6    -0.08  -0.09  -0.35     0.04   0.01  -0.14    -0.18  -0.07   0.01
  10   6    -0.12  -0.05   0.10     0.08   0.00  -0.24    -0.27  -0.08  -0.08
  11   6    -0.09  -0.10   0.23     0.06   0.03  -0.30    -0.12  -0.25  -0.06
  12   6     0.03  -0.12   0.13    -0.01   0.09   0.40    -0.05  -0.29   0.07
  13   6     0.12  -0.04  -0.17    -0.01   0.00  -0.17     0.08  -0.12  -0.01
  14   6     0.07   0.05  -0.03     0.01  -0.04  -0.19    -0.04   0.10  -0.03
  15   6    -0.06   0.06   0.19     0.02   0.00   0.42    -0.22   0.10   0.03
  16   1     0.08   0.01  -0.04     0.01   0.00  -0.00    -0.11   0.04   0.09
  17   1     0.03   0.01   0.00     0.01   0.01   0.00    -0.06  -0.02   0.01
  18   1     0.08   0.04   0.05     0.01   0.01   0.01    -0.10  -0.14  -0.09
  19   1     0.01  -0.03   0.05    -0.01   0.00  -0.00     0.07   0.08  -0.12
  20   1    -0.03  -0.01   0.14    -0.00   0.00   0.06    -0.01  -0.01  -0.00
  21   1    -0.02  -0.01  -0.07    -0.02   0.00   0.18     0.03   0.05   0.02
  22   1    -0.01  -0.04  -0.25     0.00   0.02  -0.00    -0.02  -0.08   0.03
  23   1     0.02  -0.06   0.05    -0.02   0.05   0.30     0.00  -0.11   0.06
  24   1     0.06  -0.02  -0.13    -0.02   0.00  -0.05     0.08  -0.03   0.01
  25   1     0.03   0.03  -0.03    -0.00  -0.02  -0.06     0.02   0.08  -0.00
  26   1    -0.03   0.05   0.09     0.00   0.00   0.31    -0.08   0.06   0.04
                     13                     14                     15
                        a                      a                      a 
 Frequencies --   432.2489               435.7538               493.2746
 Red. masses --    10.1682                10.8108                11.2492
 Frc consts  --     0.0000                 0.0000                 0.0000
 IR Inten    --     1.2879                 1.1559                 5.7338
 Raman Activ --     0.0000                 0.0000                 0.0000
 Depolar     --     0.0000                 0.0000                 0.0000
 Atom AN      X      Y      Z        X      Y      Z        X      Y      Z
   1   6    -0.02   0.00   0.01     0.02  -0.02  -0.03     0.03   0.07   0.04
   2   7     0.11   0.01  -0.00    -0.18  -0.03  -0.00    -0.10   0.05   0.03
   3   6     0.04   0.08  -0.01    -0.08  -0.12   0.02    -0.03  -0.01  -0.03
   4   8    -0.17   0.02   0.08     0.25  -0.03  -0.10    -0.12  -0.04  -0.00
   5   8     0.04   0.14  -0.10    -0.06  -0.15   0.14    -0.01  -0.06  -0.07
   6   6     0.09  -0.04   0.11    -0.13   0.07   0.08     0.17  -0.27   0.01
   7   6    -0.11  -0.08  -0.27     0.21   0.07  -0.20     0.33  -0.28   0.04
   8   6    -0.22   0.03   0.27     0.27   0.01   0.21     0.10   0.16   0.01
   9   6    -0.11   0.09  -0.15     0.17  -0.14  -0.05     0.18   0.33  -0.03
  10   6     0.16   0.05  -0.21    -0.19  -0.10  -0.22    -0.04   0.29  -0.01
  11   6     0.14   0.05   0.34    -0.22  -0.03   0.18     0.16  -0.15   0.02
  12   6     0.06   0.03   0.07    -0.10  -0.03   0.09    -0.04  -0.18   0.00
  13   6    -0.01  -0.13  -0.25     0.04   0.15  -0.21    -0.10  -0.21   0.02
  14   6    -0.03  -0.12   0.29    -0.00   0.21   0.18    -0.30   0.15  -0.04
  15   6     0.10  -0.12  -0.13    -0.11   0.15  -0.09    -0.20   0.16  -0.02
  16   1    -0.02   0.02   0.03     0.03  -0.03  -0.04     0.03   0.00  -0.02
  17   1    -0.02   0.00   0.01     0.02  -0.01  -0.01     0.01   0.02   0.00
  18   1    -0.02  -0.03  -0.02     0.03   0.03   0.02     0.03   0.05   0.04
  19   1     0.03   0.02  -0.01    -0.04  -0.04   0.02     0.02  -0.06   0.12
  20   1    -0.05  -0.08  -0.20     0.10   0.07  -0.13     0.07  -0.12   0.01
  21   1    -0.09   0.01   0.18     0.10   0.01   0.15    -0.08   0.05  -0.01
  22   1    -0.06   0.08  -0.06     0.09  -0.11   0.02     0.07   0.07  -0.01
  23   1     0.00   0.04  -0.03    -0.00  -0.05   0.02    -0.04   0.01  -0.01
  24   1    -0.02  -0.05  -0.19     0.05   0.04  -0.14     0.03  -0.06   0.01
  25   1    -0.02  -0.04   0.19     0.00   0.08   0.14    -0.06   0.08  -0.02
  26   1     0.05  -0.07  -0.04    -0.06   0.10  -0.01    -0.02  -0.01  -0.00
                     16                     17                     18
                        a                      a                      a 
 Frequencies --   503.0727               524.3626               536.6562
 Red. masses --     4.5609                 9.9668                10.1890
 Frc consts  --     0.0000                 0.0000                 0.0000
 IR Inten    --    96.2363                21.9461                 9.7142
 Raman Activ --     0.0000                 0.0000                 0.0000
 Depolar     --     0.0000                 0.0000                 0.0000
 Atom AN      X      Y      Z        X      Y      Z        X      Y      Z
   1   6    -0.02   0.03   0.00    -0.01   0.04   0.02    -0.02  -0.04  -0.02
   2   7    -0.17   0.11  -0.15     0.18   0.10  -0.10     0.08  -0.00  -0.04
   3   6     0.02  -0.07  -0.04     0.15   0.06   0.03     0.02   0.09  -0.06
   4   8     0.02  -0.02  -0.12    -0.24   0.03   0.05     0.01   0.04   0.03
   5   8     0.11   0.03   0.12     0.09  -0.07   0.02    -0.02   0.12  -0.10
   6   6     0.04   0.14   0.05     0.04  -0.10  -0.24     0.03  -0.10   0.34
   7   6    -0.06   0.17  -0.01    -0.01  -0.13  -0.04    -0.01  -0.16   0.13
   8   6    -0.05   0.15  -0.04     0.01  -0.23   0.18    -0.02  -0.22  -0.26
   9   6    -0.12   0.02   0.03     0.04  -0.21  -0.19    -0.01  -0.08   0.33
  10   6    -0.03  -0.02  -0.05     0.03  -0.11   0.24     0.11  -0.07  -0.31
  11   6    -0.01  -0.02  -0.04    -0.02  -0.02   0.14     0.06  -0.04  -0.17
  12   6     0.11  -0.05   0.03    -0.24   0.02  -0.11    -0.19   0.03   0.14
  13   6     0.08  -0.14  -0.00    -0.13   0.29   0.07    -0.11   0.18  -0.19
  14   6     0.07  -0.12   0.01    -0.06   0.21  -0.06    -0.08   0.16   0.09
  15   6    -0.06  -0.10   0.01     0.17   0.17   0.02     0.18   0.12  -0.07
  16   1     0.02   0.01  -0.04    -0.02   0.06   0.02    -0.02   0.01   0.01
  17   1    -0.03   0.00  -0.00    -0.04   0.01   0.02    -0.02  -0.01   0.00
  18   1     0.02   0.03   0.04    -0.02  -0.04  -0.01    -0.02  -0.04  -0.02
  19   1     0.24  -0.46   0.65     0.17  -0.17   0.27     0.07  -0.10   0.12
  20   1    -0.03   0.03   0.00     0.00  -0.03  -0.01    -0.01  -0.06   0.03
  21   1     0.01   0.04  -0.01     0.01  -0.06   0.08    -0.01  -0.07  -0.14
  22   1    -0.03   0.00   0.03     0.01  -0.06  -0.13    -0.02   0.01   0.19
  23   1     0.03  -0.02   0.03    -0.05  -0.01  -0.12    -0.07   0.03   0.17
  24   1     0.01  -0.04   0.01     0.01   0.08  -0.01     0.00   0.05  -0.01
  25   1     0.03  -0.01   0.02    -0.05  -0.00  -0.10    -0.06   0.00   0.15
  26   1    -0.02  -0.03   0.02     0.04   0.06  -0.08     0.04   0.04   0.10
                     19                     20                     21
                        a                      a                      a 
 Frequencies --   565.5135               593.8079               635.2097
 Red. masses --    12.1128                10.6767                11.4252
 Frc consts  --     0.0000                 0.0000                 0.0000
 IR Inten    --    16.5323                 0.0523                 2.4051
 Raman Activ --     0.0000                 0.0000                 0.0000
 Depolar     --     0.0000                 0.0000                 0.0000
 Atom AN      X      Y      Z        X      Y      Z        X      Y      Z
   1   6     0.09   0.36   0.20     0.01   0.04   0.03    -0.03  -0.10  -0.05
   2   7    -0.07   0.16   0.20    -0.13  -0.02   0.07    -0.29  -0.09   0.04
   3   6     0.15  -0.22  -0.15    -0.05  -0.05  -0.11    -0.18  -0.03   0.03
   4   8    -0.37  -0.35  -0.13     0.05  -0.10  -0.06     0.20   0.03  -0.02
   5   8     0.26  -0.17  -0.13     0.07   0.13  -0.02     0.02   0.17   0.13
   6   6     0.08   0.11  -0.03     0.09   0.06   0.50     0.24   0.05  -0.26
   7   6    -0.04   0.14   0.05     0.01   0.01  -0.25     0.01   0.12   0.04
   8   6     0.01   0.06  -0.10    -0.06   0.05   0.20    -0.07   0.22  -0.05
   9   6    -0.09  -0.09   0.09    -0.08  -0.07  -0.16    -0.20  -0.04  -0.02
  10   6    -0.03  -0.09  -0.03     0.07  -0.06  -0.13     0.18  -0.07   0.15
  11   6    -0.02  -0.04   0.01     0.06  -0.08  -0.06     0.14  -0.19   0.01
  12   6    -0.06  -0.05   0.07    -0.09  -0.09  -0.25    -0.22  -0.24   0.10
  13   6     0.00   0.03  -0.09    -0.06   0.06   0.26    -0.08  -0.01  -0.08
  14   6     0.01   0.03   0.08    -0.01   0.03  -0.30    -0.08   0.10   0.09
  15   6     0.03   0.01  -0.07     0.13   0.07   0.26     0.37   0.09  -0.06
  16   1     0.07   0.04   0.00     0.02  -0.02  -0.02     0.02  -0.08  -0.05
  17   1     0.07   0.09   0.03     0.03   0.01  -0.00     0.03  -0.03  -0.03
  18   1     0.06   0.19   0.10     0.02   0.07   0.03     0.02   0.05   0.02
  19   1    -0.02   0.23  -0.03    -0.04   0.05  -0.02    -0.12   0.00  -0.07
  20   1    -0.02   0.03   0.04    -0.01  -0.04  -0.19    -0.04  -0.02   0.10
  21   1     0.05   0.02  -0.04     0.00   0.01   0.07     0.02   0.06   0.02
  22   1    -0.02  -0.04   0.05    -0.03  -0.01  -0.05    -0.06  -0.00  -0.00
  23   1    -0.01  -0.03   0.03    -0.03  -0.02  -0.02    -0.07  -0.06  -0.02
  24   1     0.02   0.01  -0.04     0.01   0.03   0.19     0.07  -0.01  -0.08
  25   1    -0.00   0.00   0.05    -0.02  -0.02  -0.10    -0.06  -0.04  -0.01
  26   1    -0.00   0.02  -0.02     0.03   0.02   0.16     0.13  -0.02  -0.08
                     22                     23                     24
                        a                      a                      a 
 Frequencies --   670.2464               717.6270               756.7089
 Red. masses --    12.6697                10.5875                 5.7800
 Frc consts  --     0.0000                 0.0000                 0.0000
 IR Inten    --    71.8016                 0.4688                 1.8766
 Raman Activ --     0.0000                 0.0000                 0.0000
 Depolar     --     0.0000                 0.0000                 0.0000
 Atom AN      X      Y      Z        X      Y      Z        X      Y      Z
   1   6     0.00   0.01  -0.02    -0.00   0.01   0.01     0.01  -0.01  -0.01
   2   7    -0.03   0.11  -0.16    -0.00   0.01  -0.00     0.06   0.00  -0.01
   3   6     0.19  -0.47   0.72     0.01  -0.03   0.02    -0.01   0.08  -0.00
   4   8    -0.08   0.20  -0.22     0.00  -0.01  -0.02    -0.04   0.05   0.07
   5   8    -0.09   0.09  -0.23     0.02   0.05  -0.01    -0.09  -0.24  -0.02
   6   6     0.01   0.00   0.05    -0.01   0.01   0.24    -0.05  -0.04  -0.16
   7   6     0.01   0.01   0.01     0.01  -0.03  -0.14     0.08   0.04   0.12
   8   6    -0.00   0.04  -0.01    -0.02  -0.02   0.22     0.02   0.26   0.06
   9   6    -0.01   0.01   0.02     0.02  -0.02  -0.12    -0.07   0.07   0.13
  10   6     0.03  -0.01  -0.05    -0.05   0.04   0.53     0.02  -0.03  -0.01
  11   6     0.01  -0.02   0.02     0.03  -0.02  -0.54    -0.06  -0.03   0.20
  12   6    -0.02  -0.02  -0.02     0.01   0.04   0.14    -0.08  -0.07  -0.18
  13   6    -0.01  -0.00   0.01     0.02  -0.01  -0.22    -0.01   0.07  -0.08
  14   6    -0.00   0.00  -0.03    -0.01   0.01   0.17     0.10  -0.08  -0.13
  15   6     0.05   0.01   0.02    -0.03  -0.02  -0.22     0.13  -0.06  -0.12
  16   1    -0.00   0.02   0.00     0.00   0.00   0.00    -0.01   0.01   0.01
  17   1    -0.01   0.00   0.00     0.00   0.00   0.00    -0.01   0.00   0.00
  18   1    -0.01  -0.01  -0.02     0.00   0.01   0.00    -0.01  -0.04  -0.02
  19   1    -0.02   0.00  -0.05     0.00   0.01   0.00     0.01  -0.03  -0.00
  20   1    -0.00  -0.01  -0.03     0.00  -0.02  -0.11     0.03  -0.01  -0.23
  21   1     0.00   0.01  -0.02     0.00  -0.02  -0.12     0.02   0.06  -0.23
  22   1    -0.00   0.00  -0.00     0.01  -0.02  -0.21     0.02  -0.03  -0.28
  23   1    -0.01  -0.01   0.00    -0.01   0.02   0.20    -0.03  -0.02   0.26
  24   1     0.00   0.00   0.02    -0.01   0.01   0.09    -0.02   0.04   0.33
  25   1    -0.01  -0.01   0.01    -0.00   0.01   0.09    -0.02  -0.04   0.35
  26   1     0.02  -0.00   0.03    -0.01   0.00  -0.03     0.02   0.01   0.32
                     25                     26                     27
                        a                      a                      a 
 Frequencies --   770.0363               793.1458               813.1209
 Red. masses --    10.2432                11.3658                 3.9003
 Frc consts  --     0.0000                 0.0000                 0.0000
 IR Inten    --     3.8036                 5.0563                44.6169
 Raman Activ --     0.0000                 0.0000                 0.0000
 Depolar     --     0.0000                 0.0000                 0.0000
 Atom AN      X      Y      Z        X      Y      Z        X      Y      Z
   1   6     0.02   0.01   0.00    -0.04  -0.03  -0.00    -0.01  -0.02  -0.01
   2   7     0.10   0.02  -0.01    -0.18  -0.03   0.02    -0.05  -0.01   0.01
   3   6     0.02   0.05  -0.01    -0.02  -0.08   0.01    -0.02   0.01   0.01
   4   8    -0.04   0.03   0.04     0.07  -0.04  -0.07    -0.00   0.01   0.02
   5   8    -0.13  -0.20  -0.07     0.22   0.36   0.12     0.06   0.01   0.02
   6   6    -0.05  -0.15   0.16     0.28  -0.13  -0.15     0.05  -0.00  -0.07
   7   6     0.28  -0.13  -0.02     0.19  -0.27   0.06    -0.00   0.01   0.18
   8   6     0.00   0.45  -0.05    -0.07  -0.04  -0.01    -0.01  -0.00   0.18
   9   6    -0.16   0.09  -0.07    -0.18  -0.14   0.02    -0.04  -0.03   0.22
  10   6    -0.05  -0.06   0.00    -0.16  -0.05   0.00    -0.00  -0.03  -0.23
  11   6    -0.09  -0.05  -0.13     0.07   0.05   0.11     0.03   0.00  -0.14
  12   6    -0.18   0.05   0.08     0.07   0.28  -0.07     0.03   0.05   0.12
  13   6    -0.03   0.33   0.01    -0.01   0.26  -0.04    -0.01   0.00   0.11
  14   6     0.28  -0.20   0.11     0.12  -0.09  -0.03    -0.03   0.02   0.08
  15   6     0.07  -0.17   0.08    -0.30  -0.11  -0.05    -0.04   0.01   0.12
  16   1    -0.01   0.03   0.02     0.02  -0.06  -0.05     0.01  -0.02  -0.01
  17   1    -0.02   0.01   0.01     0.03  -0.02  -0.02     0.01  -0.01  -0.01
  18   1    -0.01  -0.04  -0.02     0.02   0.08   0.04     0.00   0.01   0.01
  19   1     0.03  -0.02   0.01    -0.04   0.04  -0.01    -0.02   0.00  -0.01
  20   1     0.04  -0.09   0.06    -0.01  -0.18   0.03     0.02  -0.04  -0.44
  21   1    -0.06   0.13   0.06    -0.05  -0.02   0.00     0.04  -0.03  -0.43
  22   1    -0.02  -0.02   0.12    -0.03  -0.07  -0.03     0.02  -0.04  -0.39
  23   1    -0.01  -0.05  -0.11     0.01   0.10   0.05     0.01   0.01  -0.19
  24   1    -0.06   0.08  -0.17    -0.12   0.08   0.08     0.01  -0.02  -0.29
  25   1     0.04  -0.15  -0.16     0.03   0.01   0.11     0.01  -0.00  -0.25
  26   1     0.01  -0.02  -0.15    -0.13   0.04   0.08    -0.00  -0.00  -0.15
                     28                     29                     30
                        a                      a                      a 
 Frequencies --   856.1966               875.1657               886.2607
 Red. masses --    11.0843                 3.7116                 4.1725
 Frc consts  --     0.0000                 0.0000                 0.0000
 IR Inten    --     2.4729                 0.1113                 0.0615
 Raman Activ --     0.0000                 0.0000                 0.0000
 Depolar     --     0.0000                 0.0000                 0.0000
 Atom AN      X      Y      Z        X      Y      Z        X      Y      Z
   1   6    -0.00   0.05   0.04    -0.01  -0.01  -0.00    -0.01  -0.02  -0.01
   2   7     0.02  -0.01  -0.01    -0.02  -0.00   0.00    -0.03  -0.00   0.01
   3   6     0.05  -0.09  -0.04    -0.00   0.00   0.01    -0.00   0.02   0.01
   4   8     0.05  -0.12  -0.10    -0.00   0.01   0.00    -0.01   0.01   0.02
   5   8     0.03   0.28   0.15     0.04   0.01   0.00     0.05  -0.01  -0.00
   6   6    -0.06   0.04  -0.07     0.01   0.01  -0.05     0.02   0.01  -0.05
   7   6    -0.15  -0.03  -0.02    -0.03   0.02   0.17    -0.05   0.03   0.33
   8   6    -0.07  -0.20   0.04    -0.00  -0.03  -0.04     0.00  -0.03  -0.04
   9   6     0.33   0.37   0.05     0.04   0.02  -0.10     0.06   0.01  -0.29
  10   6    -0.00   0.14  -0.03    -0.00   0.01  -0.04    -0.01   0.02   0.12
  11   6    -0.15  -0.12   0.01    -0.01  -0.01   0.06     0.00  -0.02  -0.07
  12   6    -0.32  -0.27   0.01    -0.01  -0.04  -0.23    -0.04  -0.02   0.14
  13   6     0.04   0.21   0.00     0.02   0.01  -0.20     0.00   0.02   0.04
  14   6     0.27  -0.15   0.02     0.01   0.00   0.17     0.03  -0.02  -0.09
  15   6    -0.04  -0.12  -0.00    -0.03   0.01   0.25    -0.01  -0.02  -0.12
  16   1     0.00   0.01   0.00     0.00  -0.01  -0.00     0.01  -0.01  -0.01
  17   1     0.01   0.01  -0.00     0.01  -0.00  -0.00     0.01  -0.01  -0.01
  18   1     0.00   0.03   0.01     0.00   0.01   0.00     0.00   0.01   0.01
  19   1     0.02   0.05   0.01    -0.01   0.00  -0.00    -0.01   0.00  -0.00
  20   1    -0.03   0.02   0.02     0.01  -0.02  -0.30     0.02  -0.04  -0.57
  21   1    -0.15  -0.06  -0.06    -0.01  -0.00   0.05    -0.01  -0.00   0.05
  22   1     0.05   0.19  -0.10    -0.01   0.03   0.20    -0.03   0.05   0.49
  23   1    -0.03  -0.18  -0.01    -0.03   0.02   0.48     0.01  -0.03  -0.26
  24   1     0.05   0.05  -0.02    -0.01   0.03   0.28     0.01   0.00  -0.03
  25   1     0.05  -0.08   0.02     0.02  -0.02  -0.22    -0.00   0.01   0.14
  26   1    -0.02  -0.01   0.02     0.02  -0.03  -0.51    -0.02   0.02   0.22
                     31                     32                     33
                        a                      a                      a 
 Frequencies --   915.2764               919.7625               921.4663
 Red. masses --     4.1128                12.8078                 3.6182
 Frc consts  --     0.0000                 0.0000                 0.0000
 IR Inten    --     0.8004                18.0348                 0.1392
 Raman Activ --     0.0000                 0.0000                 0.0000
 Depolar     --     0.0000                 0.0000                 0.0000
 Atom AN      X      Y      Z        X      Y      Z        X      Y      Z
   1   6    -0.01  -0.04  -0.02     0.07   0.21   0.12     0.01   0.02   0.01
   2   7    -0.05   0.01   0.01     0.24  -0.03  -0.07     0.03  -0.00  -0.01
   3   6    -0.00   0.03   0.02     0.02  -0.18  -0.11     0.00  -0.02  -0.01
   4   8    -0.02   0.05   0.04     0.09  -0.29  -0.23     0.01  -0.03  -0.03
   5   8     0.07  -0.06  -0.05    -0.36   0.33   0.30    -0.04   0.04   0.03
   6   6     0.04   0.02   0.02    -0.21  -0.07  -0.09    -0.02  -0.01  -0.06
   7   6    -0.04   0.03   0.07     0.14  -0.11   0.10     0.03  -0.02  -0.08
   8   6     0.01  -0.03  -0.18     0.00   0.09  -0.06    -0.02   0.03   0.31
   9   6     0.02   0.02   0.06    -0.11  -0.05   0.01    -0.00  -0.02  -0.21
  10   6    -0.01   0.01   0.06     0.03  -0.04   0.02     0.00  -0.00  -0.01
  11   6     0.02  -0.01  -0.01    -0.09   0.05  -0.01    -0.01   0.01   0.07
  12   6    -0.01  -0.03  -0.22     0.13   0.08  -0.02     0.03   0.00  -0.18
  13   6    -0.01   0.04   0.19    -0.02  -0.14   0.02    -0.01  -0.00   0.16
  14   6     0.01   0.01   0.22    -0.11   0.04   0.03    -0.02   0.01   0.04
  15   6    -0.02  -0.03  -0.25     0.20   0.06  -0.03     0.03   0.00  -0.09
  16   1     0.00  -0.03  -0.02    -0.03   0.14   0.09    -0.00   0.01   0.01
  17   1     0.01  -0.01  -0.01    -0.04   0.05   0.03    -0.00   0.01   0.00
  18   1     0.01   0.01   0.01    -0.02  -0.03  -0.02    -0.00  -0.00  -0.00
  19   1    -0.02  -0.01  -0.00     0.09   0.03   0.00     0.01   0.00   0.00
  20   1    -0.00  -0.00  -0.14     0.05  -0.04  -0.15    -0.00   0.01   0.20
  21   1    -0.02   0.02   0.35    -0.04   0.03   0.11     0.03  -0.04  -0.59
  22   1     0.01  -0.00  -0.14    -0.02  -0.03  -0.05    -0.03   0.02   0.41
  23   1    -0.02   0.01   0.37     0.02   0.05   0.04    -0.01   0.03   0.31
  24   1     0.02  -0.02  -0.34    -0.02  -0.04  -0.01     0.01  -0.02  -0.30
  25   1     0.03  -0.02  -0.38    -0.04  -0.02  -0.07    -0.00  -0.01  -0.06
  26   1    -0.04   0.03   0.40     0.07  -0.01   0.07     0.00   0.01   0.12
                     34                     35                     36
                        a                      a                      a 
 Frequencies --   928.8525              1025.3722              1066.4766
 Red. masses --     3.2368                 7.6249                10.1162
 Frc consts  --     0.0000                 0.0000                 0.0000
 IR Inten    --     0.0232                45.6487               382.7073
 Raman Activ --     0.0000                 0.0000                 0.0000
 Depolar     --     0.0000                 0.0000                 0.0000
 Atom AN      X      Y      Z        X      Y      Z        X      Y      Z
   1   6    -0.00  -0.00  -0.00     0.19   0.30   0.11    -0.09  -0.16  -0.02
   2   7    -0.00  -0.00   0.00     0.08  -0.12  -0.07     0.08   0.08  -0.00
   3   6    -0.00   0.00  -0.00    -0.32  -0.06   0.02     0.26   0.00  -0.07
   4   8     0.00   0.00   0.00     0.05  -0.06  -0.05    -0.01  -0.05  -0.04
   5   8     0.00  -0.00  -0.00    -0.12  -0.08  -0.02    -0.52  -0.03   0.11
   6   6     0.00  -0.00  -0.01     0.26   0.02   0.01     0.19  -0.04   0.02
   7   6     0.00  -0.00  -0.04    -0.14   0.12  -0.01    -0.22   0.11  -0.02
   8   6    -0.01   0.00   0.09     0.03  -0.02   0.00     0.07   0.08   0.00
   9   6     0.00  -0.00  -0.03     0.02  -0.05   0.00     0.04  -0.06   0.01
  10   6     0.00  -0.01  -0.09     0.06   0.03   0.00     0.11   0.02   0.00
  11   6    -0.00   0.01   0.10     0.27  -0.08   0.02     0.27  -0.10   0.02
  12   6    -0.01   0.01   0.09    -0.08  -0.04  -0.00    -0.03  -0.02  -0.00
  13   6     0.01  -0.02  -0.25     0.02   0.14  -0.01     0.05   0.18  -0.01
  14   6    -0.01   0.02   0.29     0.04   0.00   0.00    -0.05   0.02  -0.00
  15   6     0.01  -0.01  -0.14    -0.24  -0.06  -0.01    -0.23  -0.09  -0.01
  16   1     0.00  -0.00  -0.00    -0.10   0.27   0.23     0.06  -0.10  -0.13
  17   1    -0.00  -0.00  -0.00    -0.14   0.10   0.10     0.08  -0.10  -0.10
  18   1     0.00   0.00   0.00    -0.08  -0.25  -0.13     0.04   0.18   0.08
  19   1    -0.00  -0.00  -0.00    -0.10  -0.27  -0.13     0.14   0.23   0.11
  20   1    -0.00   0.01   0.08    -0.08  -0.03  -0.01    -0.12  -0.07  -0.01
  21   1     0.01  -0.01  -0.17     0.14  -0.00   0.01     0.22   0.03   0.01
  22   1    -0.01   0.01   0.08     0.01  -0.02   0.00     0.05  -0.07   0.01
  23   1     0.01  -0.02  -0.26    -0.05   0.06  -0.01    -0.03   0.04  -0.00
  24   1    -0.03   0.04   0.50     0.04   0.04  -0.00     0.08   0.05   0.00
  25   1     0.03  -0.04  -0.57     0.04   0.06  -0.00     0.01   0.06  -0.00
  26   1    -0.02   0.02   0.33    -0.08   0.00  -0.01    -0.04  -0.07   0.00
                     37                     38                     39
                        a                      a                      a 
 Frequencies --  1080.4522              1106.0185              1116.8761
 Red. masses --     6.6909                 3.8995                 6.1500
 Frc consts  --     0.0000                 0.0000                 0.0000
 IR Inten    --    12.0063                 8.2551                 8.5383
 Raman Activ --     0.0000                 0.0000                 0.0000
 Depolar     --     0.0000                 0.0000                 0.0000
 Atom AN      X      Y      Z        X      Y      Z        X      Y      Z
   1   6    -0.01  -0.03   0.01     0.08  -0.13   0.39     0.02   0.00   0.03
   2   7     0.02   0.02  -0.01    -0.03  -0.01  -0.23    -0.02  -0.01  -0.01
   3   6     0.04   0.00  -0.01    -0.08   0.03  -0.00    -0.03   0.00  -0.00
   4   8    -0.00  -0.01  -0.01     0.01   0.03   0.04     0.01   0.01   0.01
   5   8    -0.11  -0.02   0.02     0.07  -0.03  -0.03     0.09   0.05  -0.01
   6   6     0.05   0.00   0.01    -0.01   0.01   0.00     0.01  -0.05  -0.00
   7   6     0.03   0.02   0.00     0.04  -0.00   0.00    -0.37  -0.07  -0.02
   8   6     0.01  -0.05   0.00    -0.01  -0.02  -0.00     0.07   0.24  -0.01
   9   6    -0.03  -0.03  -0.00    -0.02   0.00  -0.00     0.34   0.07   0.02
  10   6    -0.06   0.04  -0.01    -0.00   0.00  -0.00    -0.15  -0.13  -0.00
  11   6     0.10   0.08   0.00    -0.02   0.01  -0.00    -0.09  -0.07   0.00
  12   6    -0.25  -0.02  -0.01     0.01  -0.00   0.00     0.10   0.10  -0.00
  13   6    -0.18  -0.37   0.02     0.01   0.01   0.00    -0.05  -0.07   0.00
  14   6     0.45  -0.04   0.03    -0.01  -0.00  -0.00    -0.00  -0.01   0.00
  15   6     0.06   0.17  -0.01     0.00  -0.01   0.00     0.16   0.10   0.00
  16   1     0.01  -0.00  -0.02    -0.01   0.46   0.03    -0.01   0.04   0.02
  17   1     0.01  -0.03  -0.03    -0.03  -0.45  -0.45    -0.01  -0.02  -0.02
  18   1     0.00   0.03   0.01    -0.09   0.34  -0.02    -0.01   0.00  -0.01
  19   1     0.02   0.04   0.02     0.00   0.02  -0.05    -0.02  -0.03  -0.02
  20   1     0.02   0.03  -0.00     0.03   0.04   0.00    -0.33  -0.38   0.02
  21   1     0.03  -0.01   0.00    -0.02  -0.01  -0.00    -0.06   0.08  -0.01
  22   1    -0.02   0.01  -0.00    -0.02   0.02  -0.00     0.30  -0.35   0.04
  23   1    -0.27   0.35  -0.04     0.01  -0.02   0.00     0.02   0.05  -0.00
  24   1    -0.19  -0.11  -0.00     0.01   0.00  -0.00    -0.16  -0.02  -0.01
  25   1     0.23   0.15   0.00    -0.01  -0.01   0.00    -0.06  -0.11   0.00
  26   1    -0.16   0.37  -0.03     0.01  -0.01   0.00    -0.00   0.11  -0.01
                     40                     41                     42
                        a                      a                      a 
 Frequencies --  1157.0242              1166.0733              1178.4978
 Red. masses --     8.6166                 3.6203                 1.7475
 Frc consts  --     0.0000                 0.0000                 0.0000
 IR Inten    --    49.4266                32.4138                 0.6674
 Raman Activ --     0.0000                 0.0000                 0.0000
 Depolar     --     0.0000                 0.0000                 0.0000
 Atom AN      X      Y      Z        X      Y      Z        X      Y      Z
   1   6    -0.33   0.31   0.20    -0.03   0.03   0.02    -0.00   0.01   0.01
   2   7     0.28  -0.38  -0.29     0.04  -0.04  -0.03    -0.01  -0.01  -0.01
   3   6    -0.20   0.01   0.08     0.01   0.00  -0.00     0.01   0.00  -0.00
   4   8     0.05   0.10   0.05     0.00   0.01   0.00     0.00   0.01   0.00
   5   8     0.07  -0.03  -0.05    -0.13  -0.06   0.00     0.00  -0.00   0.00
   6   6    -0.04  -0.03   0.00     0.19   0.02   0.01     0.04  -0.04   0.00
   7   6    -0.03  -0.01  -0.00     0.02   0.09  -0.00     0.02   0.01   0.00
   8   6     0.01   0.03  -0.00     0.03  -0.11   0.01    -0.00  -0.00   0.00
   9   6    -0.00  -0.01   0.00    -0.01   0.08  -0.01     0.00  -0.06   0.00
  10   6     0.01   0.00   0.00    -0.08  -0.01  -0.00     0.09   0.11  -0.00
  11   6     0.03   0.01   0.00    -0.01  -0.18   0.01    -0.14   0.02  -0.01
  12   6    -0.03  -0.01  -0.00     0.22   0.02   0.01    -0.04  -0.01  -0.00
  13   6     0.00  -0.00   0.00    -0.07   0.04  -0.01    -0.09  -0.03  -0.00
  14   6     0.01   0.00   0.00    -0.05  -0.09   0.00     0.06   0.07  -0.00
  15   6    -0.01  -0.01   0.00     0.06   0.17  -0.01     0.02   0.02   0.00
  16   1     0.09  -0.24  -0.17     0.01  -0.02  -0.01    -0.00   0.00   0.00
  17   1     0.17   0.12   0.07     0.02   0.01   0.01    -0.00  -0.00  -0.00
  18   1     0.09   0.35   0.26     0.01   0.03   0.03     0.00   0.00   0.00
  19   1     0.07  -0.11  -0.07     0.01  -0.02  -0.01    -0.01  -0.02  -0.01
  20   1     0.01   0.02   0.01     0.01   0.02  -0.01    -0.10  -0.16   0.01
  21   1     0.01   0.01   0.00     0.19  -0.03   0.01     0.21  -0.00   0.01
  22   1     0.02  -0.04   0.01    -0.16   0.31  -0.03    -0.03   0.05  -0.01
  23   1    -0.02   0.02  -0.00     0.18  -0.21   0.03     0.17  -0.33   0.03
  24   1     0.04  -0.00   0.00    -0.43   0.02  -0.03    -0.53  -0.01  -0.03
  25   1     0.02   0.03  -0.00    -0.22  -0.37   0.01     0.30   0.48  -0.02
  26   1     0.01  -0.02   0.00    -0.16   0.36  -0.03     0.17  -0.29   0.03
                     43                     44                     45
                        a                      a                      a 
 Frequencies --  1190.2432              1219.9642              1231.8817
 Red. masses --     3.0727                 5.7060                 9.1254
 Frc consts  --     0.0000                 0.0000                 0.0000
 IR Inten    --    45.1007                89.9699               130.5568
 Raman Activ --     0.0000                 0.0000                 0.0000
 Depolar     --     0.0000                 0.0000                 0.0000
 Atom AN      X      Y      Z        X      Y      Z        X      Y      Z
   1   6     0.01  -0.01  -0.00     0.02  -0.03  -0.02     0.02  -0.04  -0.03
   2   7    -0.01   0.01   0.01    -0.01   0.03   0.02     0.02   0.04   0.02
   3   6    -0.04  -0.00   0.01    -0.07  -0.01   0.02    -0.11  -0.02   0.03
   4   8     0.00   0.01   0.00     0.00  -0.02  -0.02     0.01  -0.01  -0.01
   5   8     0.16   0.05  -0.01     0.17   0.12   0.00     0.18   0.09  -0.01
   6   6    -0.21  -0.08  -0.01    -0.20  -0.28  -0.00    -0.33  -0.09  -0.02
   7   6    -0.02  -0.12   0.01    -0.14  -0.06  -0.01    -0.21  -0.12  -0.01
   8   6     0.13   0.08   0.00    -0.01  -0.00  -0.00     0.14   0.20  -0.00
   9   6    -0.02   0.00  -0.00    -0.13   0.02  -0.01     0.02   0.14  -0.01
  10   6     0.08  -0.01   0.01    -0.12   0.36  -0.03     0.23  -0.38   0.04
  11   6    -0.15   0.12  -0.02     0.14  -0.03   0.01     0.20  -0.32   0.03
  12   6    -0.09   0.02  -0.01     0.01  -0.10   0.01    -0.00   0.11  -0.01
  13   6     0.05  -0.07   0.01    -0.02   0.04  -0.00     0.09   0.09  -0.00
  14   6    -0.02  -0.03   0.00     0.13  -0.04   0.01    -0.15  -0.04  -0.01
  15   6    -0.01  -0.03   0.00     0.02   0.08  -0.00    -0.10   0.03  -0.01
  16   1    -0.00   0.01   0.00    -0.01   0.01   0.01    -0.01   0.01   0.01
  17   1    -0.00  -0.00  -0.00    -0.01  -0.00   0.00    -0.01   0.00   0.01
  18   1    -0.00  -0.00  -0.01    -0.00  -0.02  -0.01     0.00  -0.01  -0.01
  19   1    -0.00   0.01   0.01     0.03   0.06   0.04     0.05   0.09   0.05
  20   1    -0.22  -0.38   0.02     0.15   0.30  -0.01     0.12   0.27  -0.01
  21   1     0.58   0.02   0.04     0.48  -0.00   0.03    -0.03   0.06  -0.01
  22   1    -0.20   0.36  -0.04     0.14  -0.32   0.03    -0.05   0.15  -0.01
  23   1    -0.06   0.06  -0.01    -0.02   0.02  -0.00    -0.03   0.08  -0.01
  24   1     0.32  -0.02   0.02    -0.13   0.01  -0.01    -0.20   0.03  -0.01
  25   1    -0.02  -0.03   0.00    -0.10  -0.23   0.01     0.11   0.24  -0.01
  26   1    -0.06   0.08  -0.01     0.10  -0.14   0.02    -0.11   0.14  -0.02
                     46                     47                     48
                        a                      a                      a 
 Frequencies --  1246.7271              1260.7465              1342.4954
 Red. masses --     4.6243                 6.4134                 8.7439
 Frc consts  --     0.0000                 0.0000                 0.0000
 IR Inten    --    23.3763               295.3431                 4.5436
 Raman Activ --     0.0000                 0.0000                 0.0000
 Depolar     --     0.0000                 0.0000                 0.0000
 Atom AN      X      Y      Z        X      Y      Z        X      Y      Z
   1   6    -0.01   0.02   0.02    -0.07   0.13   0.12    -0.02  -0.01   0.00
   2   7    -0.02  -0.02  -0.00    -0.20  -0.06   0.02     0.02   0.03   0.01
   3   6     0.07   0.01  -0.01     0.57   0.10  -0.10     0.02   0.00  -0.01
   4   8    -0.01   0.01   0.01    -0.06  -0.01   0.02    -0.00   0.00   0.00
   5   8    -0.03  -0.04   0.00    -0.05   0.08   0.05     0.02  -0.03  -0.01
   6   6     0.10   0.06   0.01    -0.10  -0.07   0.00    -0.30   0.34  -0.03
   7   6     0.00   0.05  -0.00    -0.07  -0.08  -0.00     0.12  -0.06   0.01
   8   6     0.04  -0.08   0.01     0.03   0.06  -0.00     0.20  -0.12   0.02
   9   6     0.03   0.11  -0.01    -0.02   0.03  -0.00    -0.22  -0.05  -0.01
  10   6    -0.26  -0.07  -0.01     0.07  -0.03   0.01     0.25   0.11   0.01
  11   6    -0.17  -0.36   0.02     0.04  -0.00   0.00     0.20  -0.04   0.01
  12   6     0.11   0.07   0.00    -0.03   0.02  -0.00    -0.17  -0.08  -0.00
  13   6     0.12   0.06   0.00     0.01  -0.00   0.00     0.28  -0.03   0.02
  14   6     0.04   0.04  -0.00    -0.03  -0.03   0.00     0.04  -0.09   0.01
  15   6     0.07   0.07  -0.00    -0.01   0.00  -0.00    -0.23   0.27  -0.03
  16   1     0.01  -0.01  -0.02     0.04  -0.08  -0.06     0.01  -0.01  -0.01
  17   1     0.00  -0.00  -0.01     0.01  -0.06  -0.07     0.01  -0.01  -0.01
  18   1    -0.01   0.00   0.00    -0.04  -0.02  -0.01    -0.00   0.01   0.00
  19   1    -0.04  -0.07  -0.04    -0.34  -0.52  -0.29    -0.02  -0.04  -0.02
  20   1    -0.01  -0.01  -0.00     0.06   0.11  -0.01    -0.14  -0.30   0.01
  21   1     0.06  -0.02   0.01     0.08   0.02   0.00    -0.16  -0.04  -0.01
  22   1    -0.10   0.22  -0.02     0.02  -0.04   0.00    -0.00  -0.13   0.01
  23   1    -0.24   0.52  -0.05     0.02  -0.04   0.00    -0.06   0.00  -0.00
  24   1    -0.13   0.02  -0.01     0.02  -0.00   0.00    -0.24  -0.01  -0.01
  25   1    -0.02  -0.04   0.00     0.02   0.03  -0.00    -0.11  -0.23   0.01
  26   1     0.26  -0.42   0.04    -0.04   0.06  -0.01     0.05  -0.11   0.01
                     49                     50                     51
                        a                      a                      a 
 Frequencies --  1365.2797              1388.8724              1397.5000
 Red. masses --     9.4127                 9.0057                 9.5712
 Frc consts  --     0.0000                 0.0000                 0.0000
 IR Inten    --    55.1250               138.9756                 6.9009
 Raman Activ --     0.0000                 0.0000                 0.0000
 Depolar     --     0.0000                 0.0000                 0.0000
 Atom AN      X      Y      Z        X      Y      Z        X      Y      Z
   1   6    -0.02  -0.02   0.01     0.15   0.32   0.11    -0.00   0.01   0.01
   2   7     0.02   0.06   0.03    -0.32  -0.47  -0.20    -0.00   0.00   0.00
   3   6     0.00   0.01   0.01     0.23  -0.01  -0.06    -0.01  -0.00   0.00
   4   8    -0.00  -0.03  -0.03    -0.00   0.20   0.14    -0.00   0.00   0.00
   5   8     0.08   0.07   0.01    -0.00   0.00  -0.00     0.04  -0.01  -0.00
   6   6    -0.22  -0.25   0.00    -0.03  -0.02   0.00     0.01  -0.11   0.01
   7   6     0.01   0.20  -0.01    -0.02  -0.01  -0.00     0.19   0.21  -0.00
   8   6    -0.03   0.16  -0.01     0.02   0.03  -0.00    -0.33  -0.05  -0.02
   9   6     0.18  -0.32   0.03     0.01  -0.04   0.00     0.06  -0.07   0.01
  10   6     0.04   0.05  -0.00     0.03  -0.00   0.00     0.43   0.25   0.01
  11   6     0.12   0.19  -0.01    -0.00   0.04  -0.00    -0.39  -0.24  -0.01
  12   6     0.17  -0.38   0.04    -0.01  -0.03   0.00     0.06  -0.01   0.00
  13   6    -0.09   0.10  -0.01     0.03  -0.01   0.00     0.20   0.11   0.00
  14   6     0.09   0.33  -0.02     0.02   0.03  -0.00    -0.19  -0.12  -0.00
  15   6    -0.10  -0.22   0.01    -0.04   0.01  -0.00    -0.01  -0.06   0.00
  16   1     0.02  -0.02  -0.03     0.04  -0.13   0.03     0.01  -0.02  -0.02
  17   1     0.02  -0.02  -0.02    -0.14  -0.06  -0.09     0.00  -0.01  -0.01
  18   1    -0.01  -0.00  -0.01    -0.09  -0.26  -0.15    -0.01  -0.02  -0.01
  19   1    -0.04  -0.06  -0.03     0.18   0.37   0.19     0.00   0.00   0.00
  20   1    -0.08  -0.06   0.00     0.00   0.01   0.00    -0.02  -0.05   0.00
  21   1    -0.20   0.05  -0.01    -0.03   0.01  -0.00     0.08  -0.01   0.01
  22   1    -0.11   0.21  -0.02    -0.02   0.02  -0.00     0.12  -0.19   0.02
  23   1    -0.09   0.15  -0.02    -0.01   0.01  -0.00    -0.11   0.23  -0.02
  24   1    -0.24   0.03  -0.02    -0.04  -0.00  -0.00    -0.08   0.03  -0.01
  25   1    -0.11  -0.12   0.00    -0.03  -0.04   0.00     0.02   0.09  -0.01
  26   1    -0.05  -0.02  -0.00     0.00  -0.02   0.00    -0.14   0.24  -0.02
                     52                     53                     54
                        a                      a                      a 
 Frequencies --  1412.6980              1422.4682              1451.2114
 Red. masses --     4.0484                 9.7183                 9.8687
 Frc consts  --     0.0000                 0.0000                 0.0000
 IR Inten    --    71.3423                 3.9673                17.5896
 Raman Activ --     0.0000                 0.0000                 0.0000
 Depolar     --     0.0000                 0.0000                 0.0000
 Atom AN      X      Y      Z        X      Y      Z        X      Y      Z
   1   6     0.08  -0.17  -0.19     0.02  -0.01  -0.03    -0.01  -0.00   0.01
   2   7    -0.17  -0.23  -0.09    -0.05  -0.07  -0.03     0.03   0.03   0.01
   3   6     0.21   0.01  -0.05     0.08  -0.00  -0.02    -0.05  -0.00   0.01
   4   8    -0.01   0.08   0.06    -0.01   0.04   0.03     0.00  -0.01  -0.01
   5   8    -0.02   0.02   0.01    -0.01  -0.03  -0.00    -0.05  -0.03  -0.00
   6   6     0.01  -0.06   0.01    -0.21   0.28  -0.02     0.23   0.15   0.00
   7   6    -0.04  -0.01  -0.00     0.17  -0.04   0.01    -0.01  -0.28   0.02
   8   6    -0.00   0.06  -0.00    -0.04  -0.19   0.01    -0.21   0.05  -0.02
   9   6     0.03  -0.07   0.01    -0.14   0.30  -0.03     0.05   0.22  -0.01
  10   6     0.08   0.01   0.00    -0.22  -0.04  -0.01     0.15  -0.37   0.03
  11   6    -0.07   0.02  -0.01     0.24   0.01   0.01    -0.17   0.37  -0.04
  12   6    -0.03   0.01  -0.00     0.21  -0.27   0.03    -0.10  -0.18   0.01
  13   6     0.05  -0.03   0.00    -0.10   0.20  -0.02     0.27  -0.08   0.02
  14   6     0.02   0.02  -0.00    -0.15   0.06  -0.01    -0.01   0.26  -0.02
  15   6    -0.06   0.04  -0.01     0.22  -0.33   0.04    -0.12  -0.07  -0.00
  16   1    -0.25   0.33   0.34    -0.04   0.05   0.06     0.01  -0.00  -0.02
  17   1    -0.13   0.25   0.34    -0.03   0.04   0.06     0.02  -0.01  -0.01
  18   1     0.18   0.43   0.20     0.02   0.07   0.03    -0.01  -0.02  -0.01
  19   1    -0.00   0.03   0.00     0.01   0.02   0.01     0.00  -0.01  -0.00
  20   1     0.02   0.04  -0.00    -0.05  -0.17   0.01     0.13   0.12  -0.00
  21   1    -0.02   0.02  -0.00     0.15  -0.06   0.01     0.22   0.02   0.01
  22   1    -0.01   0.03  -0.00     0.08  -0.15   0.01     0.09  -0.08   0.01
  23   1    -0.02   0.02  -0.00    -0.04   0.12  -0.01    -0.09   0.06  -0.01
  24   1    -0.02  -0.01  -0.00    -0.08   0.06  -0.01    -0.23  -0.02  -0.01
  25   1    -0.03  -0.05   0.00     0.07   0.20  -0.01    -0.13  -0.12   0.00
  26   1     0.01  -0.03   0.00    -0.09   0.17  -0.02    -0.02  -0.06   0.00
                     55                     56                     57
                        a                      a                      a 
 Frequencies --  1468.7038              1482.4032              1506.9411
 Red. masses --     1.5733                 1.7842                10.7831
 Frc consts  --     0.0000                 0.0000                 0.0000
 IR Inten    --     9.3932                27.9487                 7.5427
 Raman Activ --     0.0000                 0.0000                 0.0000
 Depolar     --     0.0000                 0.0000                 0.0000
 Atom AN      X      Y      Z        X      Y      Z        X      Y      Z
   1   6     0.06  -0.15   0.14     0.18   0.04  -0.02    -0.00  -0.00  -0.00
   2   7    -0.01  -0.05   0.01     0.10   0.10   0.03     0.01   0.01   0.00
   3   6     0.01  -0.00  -0.00    -0.07   0.01   0.03    -0.03  -0.00   0.01
   4   8    -0.00   0.01   0.01     0.00  -0.05  -0.03     0.00  -0.01  -0.01
   5   8     0.00   0.00   0.00    -0.00  -0.01  -0.00    -0.02   0.01  -0.00
   6   6     0.00  -0.00  -0.00     0.01   0.00  -0.00     0.20  -0.01   0.01
   7   6    -0.00  -0.00  -0.00     0.00   0.00   0.00    -0.25  -0.21  -0.00
   8   6     0.01  -0.00   0.00    -0.01  -0.00  -0.00     0.38   0.07   0.02
   9   6    -0.00  -0.00  -0.00     0.00   0.01  -0.00    -0.11  -0.16   0.00
  10   6    -0.01   0.00  -0.00    -0.00  -0.01   0.00    -0.15   0.27  -0.03
  11   6     0.00   0.01  -0.00    -0.00   0.01  -0.00    -0.14   0.25  -0.03
  12   6    -0.00   0.00  -0.00    -0.00   0.00  -0.00    -0.05  -0.22   0.01
  13   6     0.00  -0.00   0.00     0.01  -0.00   0.00     0.33   0.13   0.01
  14   6    -0.00  -0.01   0.00    -0.00   0.00  -0.00    -0.28  -0.26   0.00
  15   6     0.00   0.00  -0.00    -0.00   0.00  -0.00     0.21  -0.04   0.02
  16   1     0.26   0.16  -0.45    -0.05  -0.52   0.19     0.00  -0.01  -0.00
  17   1    -0.11   0.25   0.36    -0.67  -0.14  -0.06     0.00  -0.01  -0.01
  18   1    -0.40   0.25  -0.47    -0.08   0.35  -0.10     0.00  -0.01   0.00
  19   1     0.01   0.01   0.01    -0.02  -0.06  -0.03     0.00  -0.00  -0.00
  20   1    -0.00   0.00  -0.00    -0.00  -0.00   0.00     0.03   0.09  -0.00
  21   1    -0.00  -0.00  -0.00     0.00  -0.00   0.00    -0.13   0.02  -0.01
  22   1    -0.00   0.00  -0.00     0.00  -0.00   0.00    -0.09   0.06  -0.01
  23   1     0.00  -0.01   0.00     0.00  -0.00   0.00    -0.09   0.09  -0.01
  24   1     0.00  -0.00  -0.00    -0.00  -0.00  -0.00    -0.12   0.03  -0.01
  25   1     0.00   0.00  -0.00    -0.00  -0.00   0.00     0.05   0.14  -0.01
  26   1     0.00   0.00  -0.00     0.00  -0.00   0.00    -0.02   0.13  -0.01
                     58                     59                     60
                        a                      a                      a 
 Frequencies --  1566.2732              1605.7917              1610.2779
 Red. masses --    11.7192                11.4656                11.4430
 Frc consts  --     0.0000                 0.0000                 0.0000
 IR Inten    --    13.9057                10.9363                 0.2663
 Raman Activ --     0.0000                 0.0000                 0.0000
 Depolar     --     0.0000                 0.0000                 0.0000
 Atom AN      X      Y      Z        X      Y      Z        X      Y      Z
   1   6    -0.00   0.00  -0.00     0.00   0.00  -0.00     0.00   0.00  -0.00
   2   7    -0.01  -0.01  -0.00    -0.01  -0.01  -0.00    -0.00  -0.00  -0.00
   3   6     0.02   0.01   0.00     0.00   0.02   0.01     0.00   0.01   0.00
   4   8    -0.00  -0.01  -0.01     0.00  -0.02  -0.01     0.00  -0.01  -0.00
   5   8     0.00   0.02   0.00     0.02   0.04   0.01     0.00   0.01   0.00
   6   6    -0.09  -0.24   0.01     0.08  -0.46   0.03     0.04  -0.09   0.01
   7   6     0.19   0.30  -0.01    -0.01   0.39  -0.03     0.01   0.06  -0.00
   8   6    -0.32  -0.03  -0.02     0.37  -0.22   0.04     0.02  -0.03   0.00
   9   6     0.19  -0.02   0.01    -0.35   0.38  -0.05    -0.04   0.10  -0.01
  10   6    -0.32  -0.19  -0.01     0.07  -0.16   0.01     0.15  -0.24   0.02
  11   6     0.30   0.20   0.01    -0.12   0.10  -0.01    -0.09   0.24  -0.02
  12   6    -0.24   0.05  -0.02    -0.08   0.06  -0.01     0.31  -0.36   0.04
  13   6     0.38   0.01   0.02     0.09  -0.07   0.01    -0.32   0.20  -0.03
  14   6    -0.20  -0.27   0.01     0.02   0.16  -0.01     0.01  -0.39   0.03
  15   6     0.09   0.18  -0.01     0.00  -0.13   0.01    -0.16   0.47  -0.04
  16   1    -0.00   0.01   0.00    -0.00   0.00   0.00    -0.00   0.00   0.00
  17   1     0.01   0.00   0.00     0.00   0.00   0.00    -0.00   0.00   0.00
  18   1     0.01  -0.00   0.01     0.00  -0.00   0.00     0.00   0.00   0.00
  19   1    -0.00   0.00   0.00    -0.00   0.00   0.00    -0.00  -0.00   0.00
  20   1    -0.04  -0.06   0.00    -0.11  -0.06  -0.00    -0.01  -0.01  -0.00
  21   1     0.05  -0.00   0.00    -0.11  -0.06  -0.00    -0.00  -0.01   0.00
  22   1     0.02   0.05  -0.00     0.02  -0.12   0.01     0.02  -0.03   0.00
  23   1    -0.02  -0.06   0.00    -0.01  -0.01   0.00    -0.02   0.11  -0.01
  24   1    -0.07  -0.00  -0.00    -0.04  -0.02  -0.00     0.10   0.05   0.00
  25   1     0.03   0.05  -0.00    -0.04  -0.03  -0.00     0.10   0.05   0.00
  26   1     0.05  -0.01   0.00    -0.03   0.00  -0.00     0.08  -0.08   0.01
                     61                     62                     63
                        a                      a                      a 
 Frequencies --  1785.8312              2944.1368              3009.9812
 Red. masses --    13.1948                 1.7696                 1.6322
 Frc consts  --     0.0000                 0.0000                 0.0000
 IR Inten    --   589.7163                34.7584                29.3572
 Raman Activ --     0.0000                 0.0000                 0.0000
 Depolar     --     0.0000                 0.0000                 0.0000
 Atom AN      X      Y      Z        X      Y      Z        X      Y      Z
   1   6    -0.01  -0.02   0.00     0.04  -0.18   0.18    -0.20  -0.04  -0.12
   2   7     0.11   0.14   0.06    -0.00  -0.01  -0.01    -0.01  -0.01  -0.01
   3   6    -0.05  -0.66  -0.45     0.01   0.00   0.00     0.00   0.00  -0.00
   4   8    -0.03   0.45   0.32    -0.00  -0.00  -0.00     0.00  -0.00  -0.00
   5   8    -0.02   0.05   0.03    -0.00   0.00   0.00    -0.00  -0.00   0.00
   6   6    -0.00  -0.04  -0.01     0.00  -0.00   0.00     0.00   0.00  -0.00
   7   6    -0.00   0.01   0.00    -0.00   0.00  -0.00    -0.00  -0.00   0.00
   8   6     0.00  -0.00   0.00     0.00  -0.00  -0.00     0.00  -0.00   0.00
   9   6    -0.00   0.01  -0.00    -0.00  -0.00  -0.00    -0.00  -0.00  -0.00
  10   6    -0.00  -0.01   0.00    -0.00  -0.00  -0.00    -0.00   0.00   0.00
  11   6     0.01   0.01  -0.00     0.00  -0.00  -0.00    -0.00   0.00  -0.00
  12   6    -0.00  -0.00  -0.00    -0.00  -0.00  -0.00    -0.00  -0.00   0.00
  13   6     0.00   0.00   0.00     0.00   0.00  -0.00    -0.00   0.00  -0.00
  14   6    -0.00  -0.00   0.00     0.00   0.00  -0.00    -0.00   0.00  -0.00
  15   6     0.00   0.00  -0.00     0.00  -0.00   0.00    -0.00  -0.00  -0.00
  16   1     0.01  -0.02  -0.01    -0.09  -0.04  -0.02     0.82   0.09   0.49
  17   1    -0.00  -0.01  -0.02    -0.11   0.75  -0.59    -0.05   0.08  -0.08
  18   1     0.00   0.01   0.00     0.04  -0.02   0.00    -0.06  -0.00   0.01
  19   1    -0.03  -0.08  -0.04     0.01  -0.00  -0.00     0.00  -0.00   0.00
  20   1     0.01   0.01  -0.01     0.00  -0.00   0.00     0.00   0.00  -0.00
  21   1    -0.00  -0.00  -0.00     0.00   0.00   0.00    -0.00   0.00  -0.00
  22   1    -0.00   0.00  -0.00     0.00   0.00   0.00     0.00   0.00   0.00
  23   1    -0.00   0.00  -0.00     0.00   0.00  -0.00     0.00   0.00   0.00
  24   1    -0.00  -0.00  -0.00    -0.00  -0.00   0.00    -0.00  -0.00   0.00
  25   1     0.00   0.00  -0.00     0.00   0.00   0.00     0.00  -0.00   0.00
  26   1     0.00  -0.00  -0.00     0.00   0.00   0.00     0.00   0.00   0.00
                     64                     65                     66
                        a                      a                      a 
 Frequencies --  3045.9430              3071.3915              3076.9453
 Red. masses --     1.7220                 1.7624                 1.7934
 Frc consts  --     0.0000                 0.0000                 0.0000
 IR Inten    --     6.7156                 1.3563                 7.5782
 Raman Activ --     0.0000                 0.0000                 0.0000
 Depolar     --     0.0000                 0.0000                 0.0000
 Atom AN      X      Y      Z        X      Y      Z        X      Y      Z
   1   6    -0.21  -0.01   0.15     0.00  -0.00  -0.00     0.00  -0.00  -0.00
   2   7    -0.00   0.00   0.00     0.00  -0.00  -0.00     0.00   0.00  -0.00
   3   6    -0.00   0.00   0.00    -0.00   0.00   0.00    -0.00  -0.00  -0.00
   4   8     0.00  -0.00  -0.00     0.00  -0.00  -0.00     0.00   0.00   0.00
   5   8     0.00  -0.00  -0.00     0.00  -0.00  -0.00    -0.00  -0.00   0.00
   6   6     0.00  -0.00   0.00     0.00   0.00   0.00    -0.00   0.00  -0.00
   7   6    -0.00   0.00  -0.00     0.00   0.00   0.00    -0.00   0.00  -0.00
   8   6     0.00  -0.00   0.00     0.00   0.02  -0.00     0.00  -0.07   0.00
   9   6    -0.00  -0.00  -0.00    -0.05  -0.02  -0.00     0.14   0.07   0.00
  10   6    -0.00  -0.00  -0.00     0.00   0.01  -0.00     0.00  -0.00   0.00
  11   6    -0.00  -0.00   0.00     0.00  -0.00   0.00     0.00   0.00  -0.00
  12   6     0.00   0.00   0.00     0.01   0.00   0.00     0.05   0.02   0.00
  13   6    -0.00  -0.00   0.00    -0.00  -0.07   0.01     0.00  -0.16   0.01
  14   6    -0.00   0.00  -0.00    -0.13   0.08  -0.01    -0.06   0.04  -0.01
  15   6    -0.00  -0.00  -0.00     0.16   0.10   0.00    -0.08  -0.04  -0.00
  16   1     0.02  -0.00   0.04     0.00   0.00   0.00     0.00   0.00   0.00
  17   1    -0.03  -0.03   0.04     0.00   0.00  -0.00     0.00   0.00  -0.00
  18   1     0.74   0.04  -0.61    -0.00  -0.00   0.00    -0.00  -0.00   0.00
  19   1    -0.01   0.00   0.01     0.00   0.00   0.00     0.00   0.00  -0.00
  20   1     0.00  -0.00   0.00    -0.00   0.00  -0.00     0.02  -0.01   0.00
  21   1    -0.00   0.00  -0.00    -0.00  -0.06   0.00    -0.00   0.27  -0.02
  22   1     0.00   0.00   0.00     0.17   0.09   0.00    -0.49  -0.27  -0.01
  23   1    -0.01  -0.01  -0.00    -0.05  -0.03  -0.00    -0.18  -0.10  -0.00
  24   1     0.00   0.00  -0.00     0.00   0.28  -0.02     0.00   0.59  -0.04
  25   1     0.00  -0.00   0.00     0.49  -0.30   0.05     0.23  -0.14   0.02
  26   1     0.00   0.00   0.00    -0.60  -0.34  -0.01     0.26   0.15   0.01
                     67                     68                     69
                        a                      a                      a 
 Frequencies --  3079.0423              3087.5911              3092.6275
 Red. masses --     1.7869                 1.8723                 1.8682
 Frc consts  --     0.0000                 0.0000                 0.0000
 IR Inten    --    23.7739                68.2172                57.8178
 Raman Activ --     0.0000                 0.0000                 0.0000
 Depolar     --     0.0000                 0.0000                 0.0000
 Atom AN      X      Y      Z        X      Y      Z        X      Y      Z
   1   6    -0.00   0.00   0.00     0.00  -0.00  -0.00     0.00   0.00   0.00
   2   7    -0.00   0.00   0.00     0.00   0.00  -0.00    -0.00  -0.00  -0.00
   3   6     0.00  -0.00   0.00    -0.00   0.00   0.00     0.00  -0.00  -0.00
   4   8    -0.00   0.00   0.00     0.00  -0.00  -0.00    -0.00   0.00   0.00
   5   8    -0.00  -0.00  -0.00     0.00  -0.00   0.00    -0.00  -0.00   0.00
   6   6    -0.00   0.00  -0.00    -0.00   0.00  -0.00    -0.00   0.00  -0.00
   7   6    -0.01   0.00  -0.00    -0.00   0.00  -0.00    -0.03   0.02  -0.00
   8   6     0.00  -0.09   0.01     0.00  -0.04   0.00     0.00  -0.24   0.02
   9   6     0.15   0.08   0.00     0.00   0.00   0.00    -0.12  -0.06  -0.00
  10   6     0.01   0.00   0.00    -0.00   0.00  -0.00    -0.00   0.00  -0.00
  11   6    -0.00  -0.00  -0.00     0.00  -0.00   0.00     0.00   0.00  -0.00
  12   6    -0.04  -0.02  -0.00     0.09   0.05   0.00    -0.03  -0.02  -0.00
  13   6    -0.00   0.13  -0.01    -0.00  -0.09   0.01     0.00  -0.00   0.00
  14   6    -0.00   0.00  -0.00     0.17  -0.11   0.02    -0.01   0.01  -0.00
  15   6     0.10   0.06   0.00     0.11   0.06   0.00    -0.02  -0.01  -0.00
  16   1     0.00  -0.00   0.00     0.00   0.00   0.00    -0.00  -0.00  -0.00
  17   1    -0.00  -0.00   0.00     0.00   0.00  -0.00     0.00  -0.00   0.00
  18   1     0.00   0.00  -0.00    -0.00  -0.00   0.00     0.00   0.00  -0.00
  19   1    -0.00   0.00   0.00     0.00   0.00  -0.00    -0.00  -0.00   0.00
  20   1     0.03  -0.02   0.00     0.02  -0.01   0.00     0.13  -0.08   0.01
  21   1    -0.00   0.35  -0.02     0.00   0.15  -0.01     0.00   0.82  -0.05
  22   1    -0.54  -0.30  -0.02    -0.01  -0.00  -0.00     0.39   0.22   0.01
  23   1     0.17   0.09   0.00    -0.35  -0.19  -0.01     0.11   0.06   0.00
  24   1    -0.00  -0.47   0.03     0.00   0.31  -0.02     0.00   0.01  -0.00
  25   1     0.01  -0.01   0.00    -0.58   0.36  -0.06     0.05  -0.03   0.01
  26   1    -0.35  -0.20  -0.01    -0.37  -0.21  -0.01     0.08   0.04   0.00
                     70                     71                     72
                        a                      a                      a 
 Frequencies --  3096.8045              3120.3215              3467.6150
 Red. masses --     1.8848                 1.8552                 1.8386
 Frc consts  --     0.0000                 0.0000                 0.0000
 IR Inten    --    27.3797                 8.0226                17.3000
 Raman Activ --     0.0000                 0.0000                 0.0000
 Depolar     --     0.0000                 0.0000                 0.0000
 Atom AN      X      Y      Z        X      Y      Z        X      Y      Z
   1   6    -0.00   0.00   0.00     0.00   0.00  -0.00    -0.01  -0.00   0.00
   2   7     0.00   0.00   0.00    -0.00  -0.00   0.00    -0.21   0.05   0.12
   3   6    -0.00  -0.00   0.00     0.00   0.00   0.00    -0.01   0.00   0.01
   4   8     0.00   0.00   0.00    -0.00  -0.00   0.00     0.00   0.00   0.00
   5   8     0.00   0.00  -0.00     0.00   0.00   0.00     0.00  -0.00  -0.00
   6   6    -0.00  -0.00  -0.00    -0.01  -0.01  -0.00    -0.00   0.00  -0.00
   7   6     0.00  -0.00   0.00    -0.23   0.15  -0.02     0.00  -0.00  -0.00
   8   6     0.00   0.02  -0.00    -0.00   0.05  -0.00    -0.00  -0.00   0.00
   9   6     0.01   0.01   0.00     0.01   0.00   0.00    -0.00  -0.00   0.00
  10   6     0.00   0.00   0.00     0.00  -0.00   0.00    -0.00   0.00  -0.00
  11   6    -0.01   0.00  -0.00     0.00  -0.00   0.00    -0.00  -0.00   0.00
  12   6    -0.21  -0.11  -0.00    -0.00  -0.00  -0.00     0.00   0.00  -0.00
  13   6     0.00  -0.13   0.01     0.00  -0.00   0.00    -0.00   0.00  -0.00
  14   6     0.06  -0.04   0.01     0.00  -0.00   0.00    -0.00   0.00  -0.00
  15   6     0.03   0.02   0.00     0.00   0.00   0.00    -0.00  -0.00  -0.00
  16   1     0.00  -0.00   0.00     0.00  -0.00   0.00    -0.00  -0.00  -0.00
  17   1    -0.00  -0.00   0.00    -0.00  -0.00   0.00    -0.00  -0.01   0.00
  18   1     0.01   0.00  -0.01    -0.00   0.00   0.00     0.01   0.00  -0.01
  19   1     0.00  -0.00  -0.00     0.00  -0.00  -0.00     0.82  -0.20  -0.48
  20   1    -0.02   0.01  -0.00     0.80  -0.50   0.08    -0.00   0.00   0.00
  21   1     0.00  -0.07   0.00     0.00  -0.15   0.01    -0.00   0.00  -0.00
  22   1    -0.05  -0.03  -0.00    -0.03  -0.02  -0.00     0.00   0.00   0.00
  23   1     0.72   0.39   0.01     0.00   0.00   0.00    -0.00  -0.00   0.00
  24   1     0.00   0.42  -0.03    -0.00   0.01  -0.00    -0.00  -0.00   0.00
  25   1    -0.20   0.12  -0.02    -0.00   0.00  -0.00     0.00  -0.00   0.00
  26   1    -0.08  -0.05  -0.00    -0.00  -0.00  -0.00     0.00   0.00   0.00
