
                                 *****************
                                 * O   R   C   A *
                                 *****************

                                            #,                                       
                                            ###                                      
                                            ####                                     
                                            #####                                    
                                            ######                                   
                                           ########,                                 
                                     ,,################,,,,,                         
                               ,,#################################,,                 
                          ,,##########################################,,             
                       ,#########################################, ''#####,          
                    ,#############################################,,   '####,        
                  ,##################################################,,,,####,       
                ,###########''''           ''''###############################       
              ,#####''   ,,,,##########,,,,          '''####'''          '####       
            ,##' ,,,,###########################,,,                        '##       
           ' ,,###''''                  '''############,,,                           
         ,,##''                                '''############,,,,        ,,,,,,###''
      ,#''                                            '''#######################'''  
     '                                                          ''''####''''         
             ,#######,   #######,   ,#######,      ##                                
            ,#'     '#,  ##    ##  ,#'     '#,    #''#        ,####,   ,####,        
            ##       ##  ##   ,#'  ##            #'  '#       #'       #'  '#        
            ##       ##  #######   ##           ,######,      #####,   #    #        
            '#,     ,#'  ##    ##  '#,     ,#' ,#      #,     #,   #   #,  ,#        
             '#######'   ##     ##  '#######'  #'      '#     '####' # '####'        



                #########################################################
                #                        -***-                          #
                #          Department of theory and spectroscopy        #
                #                                                       #
                #                      Frank Neese                      #
                #                                                       #
                #     Directorship, Architecture, Infrastructure        #
                #                    SHARK, DRIVERS                     #
                #        Core code/Algorithms in most modules           #
                #                                                       #
                #        Max Planck Institute fuer Kohlenforschung      #
                #                Kaiser Wilhelm Platz 1                 #
                #                 D-45470 Muelheim/Ruhr                 #
                #                      Germany                          #
                #                                                       #
                #                  All rights reserved                  #
                #                        -***-                          #
                #########################################################


                         Program Version 6.0.1  -  RELEASE   -


 With contributions from (in alphabetic order):
[Max-Planck-Institut fuer Kohlenforschung]                               
  Daniel Aravena         : Magnetic Suceptibility                        
  Michael Atanasov       : Ab Initio Ligand Field Theory (pilot matlab implementation)
  Alexander A. Auer      : GIAO ZORA, VPT2 properties, NMR spectrum      
  Ute Becker             : All parallelization in ORCA, NUMFREQ, NUMCALC 
  Giovanni Bistoni       : ED, misc. LED, open-shell LED, HFLD           
  Martin Brehm           : Molecular dynamics                            
  Dmytro Bykov           : pre 5.0 version of the SCF Hessian            
  Marcos Casanova-Páez   : Triplet and SCS-CIS(D). UHF-(DLPNO)-IP/EA/STEOM-CCSD. UHF-CVS-IP/STEOM-CCSD   
  Vijay G. Chilkuri      : MRCI spin determinant printing, contributions to CSF-ICE 
  Pauline Colinet        : FMM embedding                                 
  Dipayan Datta          : RHF DLPNO-CCSD density                        
  Achintya Kumar Dutta   : EOM-CC, STEOM-CC                              
  Nicolas Foglia         : Exact transition moments, OPA infrastructure, MCD improvements    
  Dmitry Ganyushin       : Spin-Orbit,Spin-Spin,Magnetic field MRCI      
  Miquel Garcia-Rates    : C-PCM and meta-GGA Hessian, CCSD/C-PCM, Gaussian charge scheme 
  Tiago L. C. Gouveia    : GS-ROHF, GS-ROCIS                             
  Yang Guo               : DLPNO-NEVPT2, F12-NEVPT2, CIM, IAO-localization        
  Andreas Hansen         : Spin unrestricted coupled pair/coupled cluster methods 
  Ingolf Harden          : AUTO-CI MPn and infrastructure                
  Benjamin Helmich-Paris : MC-RPA, TRAH-(SCF,CASSCF), AVAS, COSX integrals, SCF dyn. polar. 
  Lee Huntington         : MR-EOM, pCC                                   
  Robert Izsak           : Overlap fitted RIJCOSX, COSX-SCS-MP3, EOM     
  Riya Kayal             : Wick's Theorem for AUTO-CI, AUTO-CI UHF-CCSDT 
  Emily Kempfer          : AUTO-CI, RHF CISDT and CCSDT                  
  Christian Kollmar      : KDIIS, OOCD, Brueckner-CCSD(T), CCSD density, CASPT2, CASPT2-K, improved NEVPT2 
  Axel Koslowski         : Symmetry handling                             
  Simone Kossmann        : meta-GGA functionals, TD-DFT gradient, OOMP2, (MP2 Hessian; deprecated post 5.0) 
  Lucas Lang             : DCDCAS                                        
  Marvin Lechner         : AUTO-CI (C++ implementation), FIC-MRCC        
  Spencer Leger          : CASSCF response                               
  Dagmar Lenk            : GEPOL surface, SMD, ORCA-2-JSON               
  Dimitrios Liakos       : Extrapolation schemes; Compound Job, initial MDCI parallelization 
  Dimitrios Manganas     : Further ROCIS development; embedding schemes. LFT, Crystal Embedding 
  Dimitrios Pantazis     : SARC Basis sets                               
  Anastasios Papadopoulos: AUTO-CI, single reference methods and gradients 
  Taras Petrenko         : pre 6.0 DFT Hessian and TD-DFT gradient, (ASA, deprecated), ECA, 1-Electron XAS/XES, NRVS 
  Peter Pinski           : DLPNO-MP2, DLPNO-MP2 Gradient                 
  Christoph Reimann      : Effective Core Potentials                     
  Marius Retegan         : Local ZFS, SOC                                
  Christoph Riplinger    : Optimizer, TS searches, QM/MM, DLPNO-CCSD(T), (RO)-DLPNO pert. Triples 
  Michael Roemelt        : Original ROCIS implementation                 
  Masaaki Saitow         : Open-shell DLPNO-CCSD energy and density      
  Barbara Sandhoefer     : DKH picture change effects                    
  Kantharuban Sivalingam : CASSCF convergence/infrastructure, NEVPT2 and variants, FIC-MRCI 
  Bernardo de Souza      : ESD, SOC TD-DFT                               
  Georgi L. Stoychev     : AutoAux, RI-MP2 NMR, DLPNO-MP2 response, X2C  
  Van Anh Tran           : RI-MP2 g-tensors                              
  Willem Van den Heuvel  : Paramagnetic NMR                              
  Zikuan Wang            : NOTCH, Electric field optimization            
  Frank Wennmohs         : Technical directorship and infrastructure     
  Hang Xu                : AUTO-CI-Response properties                   
                                                                         
[FACCTs GmbH]                                                            
  Markus Bursch, Miquel Garcia-Rates, Christoph Riplinger, Bernardo de Souza, Georgi L. Stoychev 
                                                                 
  APM, Basis sets (HGBS, AHGBS, def-TZVP (Ac-Lr), def2-XVPD (La-Lu)), CI-OPT, improved COSX, DLPNO-Multilevel,           
  DOCKER, DRACO, updates on ESD, GOAT, IRC, LR-CPCM, MBIS, meta-GGA TD-DFT gradient, ML-optimized integration grids, 
  MM, NACMEs, nearIR, NEB, NEB-TS, NL-DFT gradient (VV10), 2- and 3-layer-ONIOM, interface openCOSMO-RS, QMMM,   
  Crystal-QMMM, SF, symmetry and pop. for TD-DFT, r2SCAN hybrids, SOLVATOR                                   
                                                                         
[Other institutions]                                                     
  V. Asgeirsson          : NEB                                           
  Christoph Bannwarth    : sTDA-DFT, sTD-DFT, PBEh-3c, B97-3c, D3        
  Sebastian Ehlert       : rSCAN, r2SCAN, r2SCAN-3c, D4, dhf basis sets  
  Marvin Friede          : D4 for Fr, Ra, Ac-Lr                          
  Lars Goerigk           : TD-DFT with DH, B97 family of functionals     
  Stefan Grimme          : VdW corrections, initial TS optimization, DFT functionals, gCP, sTDA/sTD-DF 
  Waldemar Hujo          : DFT-NL                                        
  H. Jonsson             : NEB                                           
  Holger Kruse           : gCP                                           
  Marcel Mueller         : wB97X-3c, vDZP basis set                      
  Hagen Neugebauer       : wr2SCAN                                       
  Tobias Risthaus        : range-separated hybrid DFT                    
  Lukas Wittmann         : regularized MP2, r2SCAN double-hybrids, wr2SCAN        
                                                                         
We gratefully acknowledge several colleagues who have allowed us to      
interface, adapt or use parts of their codes:                            
  Ed Valeev, F. Pavosevic, A. Kumar             : LibInt (2-el integral package), F12 methods 
  Garnet Chan, S. Sharma, J. Yang, R. Olivares  : DMRG                   
  Ulf Ekstrom                                   : XCFun DFT Library      
  Mihaly Kallay                                 : mrcc  (arbitrary order and MRCC methods)
  Frank Weinhold                                : gennbo (NPA and NBO analysis)           
  Simon Mueller                                 : openCOSMO-RS                            
  Christopher J. Cramer and Donald G. Truhlar   : smd solvation model                     
  S Lehtola, MJT Oliveira, MAL Marques          : LibXC Library                           
  Liviu Ungur et al                             : ANISO software                          


 Your calculation uses the libint2 library for the computation of 2-el integrals
 For citations please refer to: http://libint.valeyev.net

 Your ORCA version has been built with support for libXC version: 6.2.2
 For citations please refer to: https://libxc.gitlab.io

 This ORCA versions uses:
   CBLAS   interface :  Fast vector & matrix operations
   LAPACKE interface :  Fast linear algebra routines
   SCALAPACK package :  Parallel linear algebra routines
   Shared memory     :  Shared parallel matrices
   BLAS/LAPACK       :  OpenBLAS 0.3.27  USE64BITINT DYNAMIC_ARCH NO_AFFINITY Zen SINGLE_THREADED
        Core in use  :  Zen
   Copyright (c) 2011-2014, The OpenBLAS Project


Your calculation utilizes the geometrical counterpoise correction gCP
Please cite in your paper:
H.Kruse, S. Grimme J.Chem.Phys., 136, (2012), 154101 
   

Your calculation utilizes the atom-pairwise dispersion correction
based on EEQ partial charges (D4)


================================================================================

----- Orbital basis set information -----
Your calculation utilizes the basis: def2-SV(P)
   F. Weigend and R. Ahlrichs, Phys. Chem. Chem. Phys. 7, 3297 (2005).

----- AuxJ basis set information -----
Your calculation utilizes the auxiliary basis: def2/J
   F. Weigend, Phys. Chem. Chem. Phys. 8, 1057 (2006).

================================================================================
                                        WARNINGS
                       Please study these warnings very carefully!
================================================================================


================================================================================
                                       INPUT FILE
================================================================================
NAME = sp.inp
|  1> ! pbe def2-sv(p) def2/J RI DEFGRID1 loosescf d4 GCP(DFT/SV(P)) printgap
|  2> %output
|  3>     printlevel normal
|  4> end
|  5> * xyz 0 1
|  6> C -2.4163141971 -0.8370585982 0.354998368
|  7> C -0.9620412824 -0.4135910776 0.6024834949
|  8> H -0.7185291598 -0.5707175013 1.6635262451
|  9> C -0.7383171161 1.0770744158 0.2667474606
| 10> H -1.5456930695 1.4246082483 -0.3940725359
| 11> C 0.602507627 1.2361267891 -0.4864059749
| 12> H 0.9190304352 2.2856587075 -0.4601576702
| 13> C 1.6683919871 0.3682988492 0.2132889137
| 14> H 2.6290627941 0.4685699838 -0.306139951
| 15> C 1.239856072 -1.1241328327 0.1051302589
| 16> H 1.4411246142 -1.6261806372 1.063477773
| 17> O -0.1446865798 -1.2344333113 -0.2094794845
| 18> O 1.9433894298 -1.8137869427 -0.8574644021
| 19> O 1.8943638325 0.7744528827 1.533726366
| 20> O 0.4672837361 0.8985770974 -1.8417670019
| 21> O -0.7453091918 1.7825889203 1.4911891461
| 22> O -2.7718824971 -0.7040905446 -0.9937308258
| 23> H -3.0810559049 -0.1845330513 0.9235159384
| 24> H -2.5452332604 -1.8716688965 0.6959995846
| 25> H 1.8403492584 -1.3694540417 -1.7100814973
| 26> H 1.0499509983 1.0242476848 1.9409157226
| 27> H -0.0061230122 0.0547608291 -1.8857160059
| 28> H -0.7498038861 2.730355616 1.3149129559
| 29> H -2.2219534848 -1.3110701826 -1.5034245342
| 30> *
| 31> 
| 32>                          ****END OF INPUT****
================================================================================

                       ****************************
                       * Single Point Calculation *
                       ****************************

---------------------------------
CARTESIAN COORDINATES (ANGSTROEM)
---------------------------------
  C     -2.416314   -0.837059    0.354998
  C     -0.962041   -0.413591    0.602483
  H     -0.718529   -0.570718    1.663526
  C     -0.738317    1.077074    0.266747
  H     -1.545693    1.424608   -0.394073
  C      0.602508    1.236127   -0.486406
  H      0.919030    2.285659   -0.460158
  C      1.668392    0.368299    0.213289
  H      2.629063    0.468570   -0.306140
  C      1.239856   -1.124133    0.105130
  H      1.441125   -1.626181    1.063478
  O     -0.144687   -1.234433   -0.209479
  O      1.943389   -1.813787   -0.857464
  O      1.894364    0.774453    1.533726
  O      0.467284    0.898577   -1.841767
  O     -0.745309    1.782589    1.491189
  O     -2.771882   -0.704091   -0.993731
  H     -3.081056   -0.184533    0.923516
  H     -2.545233   -1.871669    0.696000
  H      1.840349   -1.369454   -1.710081
  H      1.049951    1.024248    1.940916
  H     -0.006123    0.054761   -1.885716
  H     -0.749804    2.730356    1.314913
  H     -2.221953   -1.311070   -1.503425

----------------------------
CARTESIAN COORDINATES (A.U.)
----------------------------
  NO LB      ZA    FRAG     MASS         X           Y           Z
   0 C     6.0000    0    12.011   -4.566172   -1.581812    0.670850
   1 C     6.0000    0    12.011   -1.817995   -0.781574    1.138529
   2 H     1.0000    0     1.008   -1.357823   -1.078500    3.143609
   3 C     6.0000    0    12.011   -1.395217    2.035376    0.504080
   4 H     1.0000    0     1.008   -2.920937    2.692119   -0.744689
   5 C     6.0000    0    12.011    1.138574    2.335941   -0.919174
   6 H     1.0000    0     1.008    1.736716    4.319269   -0.869572
   7 C     6.0000    0    12.011    3.152804    0.695984    0.403058
   8 H     1.0000    0     1.008    4.968209    0.885469   -0.578521
   9 C     6.0000    0    12.011    2.342988   -2.124303    0.198667
  10 H     1.0000    0     1.008    2.723331   -3.073036    2.009682
  11 O     8.0000    0    15.999   -0.273418   -2.332741   -0.395859
  12 O     8.0000    0    15.999    3.672474   -3.427561   -1.620373
  13 O     8.0000    0    15.999    3.579829    1.463504    2.898323
  14 O     8.0000    0    15.999    0.883038    1.698065   -3.480435
  15 O     8.0000    0    15.999   -1.408430    3.368605    2.817939
  16 O     8.0000    0    15.999   -5.238099   -1.330538   -1.877879
  17 H     1.0000    0     1.008   -5.822352   -0.348717    1.745192
  18 H     1.0000    0     1.008   -4.809794   -3.536942    1.315249
  19 H     1.0000    0     1.008    3.477756   -2.587893   -3.231586
  20 H     1.0000    0     1.008    1.984120    1.935548    3.667799
  21 H     1.0000    0     1.008   -0.011571    0.103483   -3.563487
  22 H     1.0000    0     1.008   -1.416924    5.159624    2.484825
  23 H     1.0000    0     1.008   -4.198884   -2.477564   -2.841061

--------------------------------
INTERNAL COORDINATES (ANGSTROEM)
--------------------------------
 C      0   0   0     0.000000000000     0.00000000     0.00000000
 C      1   0   0     1.534758397752     0.00000000     0.00000000
 H      2   1   0     1.099908443749   109.02146372     0.00000000
 C      2   1   3     1.544297510368   111.62636797   240.28287887
 H      4   2   1     1.099690303056   109.22825443   340.37502417
 C      4   2   1     1.546075271960   109.32017186   222.22069457
 H      6   4   2     1.096536779753   109.70272784   197.14286600
 C      6   4   2     1.542338399804   108.69066267   316.42894818
 H      8   6   4     1.096699158995   109.81927429   180.07589768
 C      8   6   4     1.556500449816   108.52488147    63.17104602
 H     10   8   6     1.100450354112   109.06078268   221.18985446
 O      2   1   3     1.414614633886   107.14748336   119.07376140
 O     10   8   6     1.377378110165   112.83173718   102.85264934
 O      8   6   4     1.399849791684   112.10021067   297.86603417
 O      6   4   2     1.403292132290   111.23445460    79.78470986
 O      4   2   1     1.413172688093   107.02670319   100.68878106
 O      1   2   3     1.401135167445   111.68483725   182.11045795
 H      1   2   3     1.091276021591   109.15987429    64.15906281
 H      1   2   3     1.096959627312   108.75177660   304.99148942
 H     13  10   8     0.966956521701   109.37276258   303.40644553
 H     14   8   6     0.970171969213   109.27495905    38.95012100
 H     15   6   4     0.968540840097   107.48716364   312.46784791
 H     16   4   2     0.964030708529   109.41505579   188.98584725
 H     17   1   2     0.964693669461   107.71073880    63.58719527

---------------------------
INTERNAL COORDINATES (A.U.)
---------------------------
 C      0   0   0     0.000000000000     0.00000000     0.00000000
 C      1   0   0     2.900273053487     0.00000000     0.00000000
 H      2   1   0     2.078525731073   109.02146372     0.00000000
 C      2   1   3     2.918299363891   111.62636797   240.28287887
 H      4   2   1     2.078113504904   109.22825443   340.37502417
 C      4   2   1     2.921658846433   109.32017186   222.22069457
 H      6   4   2     2.072154209505   109.70272784   197.14286600
 C      6   4   2     2.914597181460   108.69066267   316.42894818
 H      8   6   4     2.072461061802   109.81927429   180.07589768
 C      8   6   4     2.941359577478   108.52488147    63.17104602
 H     10   8   6     2.079549793247   109.06078268   221.18985446
 O      2   1   3     2.673234243082   107.14748336   119.07376140
 O     10   8   6     2.602867411071   112.83173718   102.85264934
 O      8   6   4     2.645332734910   112.10021067   297.86603417
 O      6   4   2     2.651837815915   111.23445460    79.78470986
 O      4   2   1     2.670509360433   107.02670319   100.68878106
 O      1   2   3     2.647761743077   111.68483725   182.11045795
 H      1   2   3     2.062212817322   109.15987429    64.15906281
 H      1   2   3     2.072953275589   108.75177660   304.99148942
 H     13  10   8     1.827283009424   109.37276258   303.40644553
 H     14   8   6     1.833359324619   109.27495905    38.95012100
 H     15   6   4     1.830276937302   107.48716364   312.46784791
 H     16   4   2     1.821754023809   109.41505579   188.98584725
 H     17   1   2     1.823006838409   107.71073880    63.58719527

---------------------
BASIS SET INFORMATION
---------------------
There are 3 groups of distinct atoms

 Group   1 Type C   : 7s4p1d contracted to 3s2p1d pattern {511/31/1}
 Group   2 Type H   : 4s contracted to 2s pattern {31}
 Group   3 Type O   : 7s4p1d contracted to 3s2p1d pattern {511/31/1}

Atom   0C    basis set group =>   1
Atom   1C    basis set group =>   1
Atom   2H    basis set group =>   2
Atom   3C    basis set group =>   1
Atom   4H    basis set group =>   2
Atom   5C    basis set group =>   1
Atom   6H    basis set group =>   2
Atom   7C    basis set group =>   1
Atom   8H    basis set group =>   2
Atom   9C    basis set group =>   1
Atom  10H    basis set group =>   2
Atom  11O    basis set group =>   3
Atom  12O    basis set group =>   3
Atom  13O    basis set group =>   3
Atom  14O    basis set group =>   3
Atom  15O    basis set group =>   3
Atom  16O    basis set group =>   3
Atom  17H    basis set group =>   2
Atom  18H    basis set group =>   2
Atom  19H    basis set group =>   2
Atom  20H    basis set group =>   2
Atom  21H    basis set group =>   2
Atom  22H    basis set group =>   2
Atom  23H    basis set group =>   2
---------------------------------
AUXILIARY/J BASIS SET INFORMATION
---------------------------------
There are 3 groups of distinct atoms

 Group   1 Type C   : 12s5p4d2f1g contracted to 6s4p3d1f1g pattern {711111/2111/211/2/1}
 Group   2 Type H   : 5s2p1d contracted to 3s1p1d pattern {311/2/1}
 Group   3 Type O   : 12s5p4d2f1g contracted to 6s4p3d1f1g pattern {711111/2111/211/2/1}

Atom   0C    basis set group =>   1
Atom   1C    basis set group =>   1
Atom   2H    basis set group =>   2
Atom   3C    basis set group =>   1
Atom   4H    basis set group =>   2
Atom   5C    basis set group =>   1
Atom   6H    basis set group =>   2
Atom   7C    basis set group =>   1
Atom   8H    basis set group =>   2
Atom   9C    basis set group =>   1
Atom  10H    basis set group =>   2
Atom  11O    basis set group =>   3
Atom  12O    basis set group =>   3
Atom  13O    basis set group =>   3
Atom  14O    basis set group =>   3
Atom  15O    basis set group =>   3
Atom  16O    basis set group =>   3
Atom  17H    basis set group =>   2
Atom  18H    basis set group =>   2
Atom  19H    basis set group =>   2
Atom  20H    basis set group =>   2
Atom  21H    basis set group =>   2
Atom  22H    basis set group =>   2
Atom  23H    basis set group =>   2
------------------------------------------------------------------------------
                             ORCA STARTUP CALCULATIONS
                           -- RI-GTO INTEGRALS CHOSEN --
------------------------------------------------------------------------------
------------------------------------------------------------------------------
                   ___                                                        
                  /   \      - P O W E R E D   B Y -                         
                 /     \                                                     
                 |  |  |   _    _      __       _____    __    __             
                 |  |  |  | |  | |    /  \     |  _  \  |  |  /  |          
                  \  \/   | |  | |   /    \    | | | |  |  | /  /          
                 / \  \   | |__| |  /  /\  \   | |_| |  |  |/  /          
                |  |  |   |  __  | /  /__\  \  |    /   |      \           
                |  |  |   | |  | | |   __   |  |    \   |  |\   \          
                \     /   | |  | | |  |  |  |  | |\  \  |  | \   \       
                 \___/    |_|  |_| |__|  |__|  |_| \__\ |__|  \__/        
                                                                              
                      - O R C A' S   B I G   F R I E N D -                    
                                      &                                       
                       - I N T E G R A L  F E E D E R -                       
                                                                              
 v1 FN, 2020, v2 2021, v3 2022-2024                                           
------------------------------------------------------------------------------


----------------------
SHARK INTEGRAL PACKAGE
----------------------

Number of atoms                             ...     24
Number of basis functions                   ...    192
Number of shells                            ...     96
Maximum angular momentum                    ...      2
Integral batch strategy                     ... SHARK/LIBINT Hybrid
RI-J (if used) integral strategy            ... SPLIT-RIJ (Revised 2003 algorithm where possible)
Printlevel                                  ...      1
Contraction scheme used                     ... SEGMENTED contraction
Prescreening option                         ... SCHWARTZ
   Thresh                                   ... 1.000e-09
   Tcut                                     ... 1.000e-10
   Tpresel                                  ... 1.000e-10 
Coulomb Range Separation                    ... NOT USED
Exchange Range Separation                   ... NOT USED
Multipole approximations                    ... NOT USED
Finite Nucleus Model                        ... NOT USED
CABS basis                                  ... NOT available
Auxiliary Coulomb fitting basis             ... AVAILABLE
   # of basis functions in Aux-J            ...    720
   # of shells in Aux-J                     ...    240
   Maximum angular momentum in Aux-J        ...      4
Auxiliary J/K fitting basis                 ... NOT available
Auxiliary Correlation fitting basis         ... NOT available
Auxiliary 'external' fitting basis          ... NOT available

Checking pre-screening integrals            ... done (  0.0 sec) Dimension = 96
Check shell pair data                       ... done (  0.0 sec)
Shell pair information
Shell pair cut-off parameter TPreSel        ...   1.0e-10
Total number of shell pairs                 ...      4656
Shell pairs after pre-screening             ...      4276
Total number of primitive shell pairs       ...     18720
Primitive shell pairs kept                  ...     11525
          la=0 lb=0:   1657 shell pairs
          la=1 lb=0:   1353 shell pairs
          la=1 lb=1:    293 shell pairs
          la=2 lb=0:    631 shell pairs
          la=2 lb=1:    273 shell pairs
          la=2 lb=2:     69 shell pairs

Calculating one electron integrals          ... done (  0.0 sec)
Calculating RI/J V-Matrix + Cholesky decomp.... done (  0.0 sec)
Calculating Nuclear repulsion               ... done (  0.0 sec) ENN=    857.437374694666 Eh

Diagonalization of the overlap matrix:
Smallest eigenvalue                        ... 8.025e-04
Time for diagonalization                   ...    0.003 sec
Threshold for overlap eigenvalues          ... 1.000e-07
Number of eigenvalues below threshold      ... 0
Time for construction of square roots      ...    0.004 sec
Total time needed                          ...    0.008 sec

-------------------
DFT GRID GENERATION
-------------------

General Integration Accuracy     IntAcc      ... 4.159
Radial Grid Type                 RadialGrid  ... OptM3 with GC (2021)
Angular Grid (max. ang.)         AngularGrid ... 3 (Lebedev-194)
Angular grid pruning method      GridPruning ... 4 (adaptive)
Weight generation scheme         WeightScheme... mBecke (2022)
Basis function cutoff            BFCut       ... 1.0000e-10
Integration weight cutoff        WCut        ... 1.0000e-14
Partially contracted basis set               ... off
Rotationally invariant grid construction     ... off
Angular grids for H and He will be reduced by one unit

Total number of grid points                  ...    55560
Total number of batches                      ...      879
Average number of points per batch           ...       63
Average number of grid points per atom       ...     2315
Initializing property integral containers    ... done (  0.0 sec)

SHARK setup successfully completed in   0.6 seconds

Maximum memory used throughout the entire STARTUP-calculation: 28.7 MB
-------------------------------------------------------------------------------
                                 ORCA GUESS
                   Start orbitals & Density for SCF / CASSCF
-------------------------------------------------------------------------------

------------
SCF SETTINGS
------------
Hamiltonian:
 Density Functional     Method          .... DFT(GTOs)
 Exchange Functional    Exchange        .... PBE
   PBE kappa parameter   XKappa         ....  0.804000
   PBE mue parameter    XMuePBE         ....  0.219520
 Correlation Functional Correlation     .... PBE
   PBE beta parameter  CBetaPBE         ....  0.066725
 LDA part of GGA corr.  LDAOpt          .... PW91-LDA
 Gradients option       PostSCFGGA      .... off
   NL short-range parameter             ....  6.400000
 RI-approximation to the Coulomb term is turned on
   Number of AuxJ basis functions       .... 720


General Settings:
 Integral files         IntName         .... sp
 Hartree-Fock type      HFTyp           .... RHF
 Total Charge           Charge          ....    0
 Multiplicity           Mult            ....    1
 Number of Electrons    NEL             ....   96
 Basis Dimension        Dim             ....  192
 Nuclear Repulsion      ENuc            ....    857.4373746947 Eh

Convergence Acceleration:
 AO-DIIS                CNVDIIS         .... on
   Start iteration      DIISMaxIt       ....    12
   Startup error        DIISStart       ....  0.200000
   # of expansion vecs  DIISMaxEq       ....     5
   Bias factor          DIISBfac        ....   1.050
   Max. coefficient     DIISMaxC        ....  10.000
 MO-DIIS                CNVKDIIS        .... off
 Trust-Rad. Augm. Hess. CNVTRAH         .... auto
   Auto Start mean grad. ratio tolernc. ....  1.125000
   Auto Start start iteration           ....    50
   Auto Start num. interpolation iter.  ....    10
   Max. Number of Micro iterations      ....    24
   Max. Number of Macro iterations      .... Maxiter - #DIIS iter
   Number of Davidson start vectors     ....     2
   Converg. threshold    (grad. norm)   ....   1.000e-04
   Grad. Scal. Fac. for Micro threshold ....   0.100
   Minimum threshold for Micro iter.    ....   1.000e-02
   NR start threshold (gradient norm)   ....   1.000e-04
   Initial trust radius                 ....   0.400
   Minimum AH scaling param. (alpha)    ....   1.000
   Maximum AH scaling param. (alpha)    .... 1000.000
   Quad. conv. algorithm                .... NR
   White noise on init. David. guess    .... on
   Maximum white noise                  ....   0.010
   Pseudo random numbers                .... off
   Inactive MOs                         .... canonical
   Orbital update algorithm             .... Taylor
   Preconditioner                       .... Diag
   Full preconditioner red. dimension   ....   250
 SOSCF                  CNVSOSCF        .... on
   Start iteration      SOSCFMaxIt      ....   150
   Startup grad/error   SOSCFStart      ....  0.003300
   Hessian update       SOSCFHessUp     .... L-BFGS
 Level Shifting         CNVShift        .... on
   Level shift para.    LevelShift      ....    0.2500
   Turn off err/grad.   ShiftErr        ....    0.0010
 Zerner damping         CNVZerner       .... off
 Static damping         CNVDamp         .... on
   Fraction old density DampFac         ....    0.7000
   Max. Damping (<1)    DampMax         ....    0.9800
   Min. Damping (>=0)   DampMin         ....    0.0000
   Turn off err/grad.   DampErr         ....    0.1000

SCF Procedure:
 Maximum # iterations   MaxIter         ....   125
 SCF integral mode      SCFMode         .... Direct
   Integral package                     .... SHARK and LIBINT hybrid scheme
 Reset frequency        DirectResetFreq ....    20
 Integral Threshold     Thresh          ....  1.000e-09 Eh
 Primitive CutOff       TCut            ....  1.000e-10 Eh

Convergence Tolerance:
 Convergence Check Mode ConvCheckMode   .... Total+1el-Energy
 Convergence forced     ConvForced      .... 0
 Energy Change          TolE            ....  1.000e-05 Eh
 1-El. energy change                    ....  1.000e-02 Eh
 Orbital Gradient       TolG            ....  1.000e-04
 Orbital Rotation angle TolX            ....  1.000e-04
 DIIS Error             TolErr          ....  5.000e-04

------------------------------
INITIAL GUESS: MODEL POTENTIAL
------------------------------
Loading Hartree-Fock densities                     ... done
Calculating cut-offs                               ... done
Initializing the effective Hamiltonian             ... done
Setting up the integral package (SHARK)            ... done
Starting the Coulomb interaction                   ... done (   0.2 sec)
Making the grid                                    ... done (   0.2 sec)
Mapping shells                                     ... done
Starting the XC term evaluation                    ... done (   0.2 sec)
  promolecular density results
     # of electrons  =     95.993584523
     EX              =    -83.246389768
     EC              =     -3.277962681
     EX+EC           =    -86.524352449
Transforming the Hamiltonian                       ... done (   0.0 sec)
Diagonalizing the Hamiltonian                      ... done (   0.0 sec)
Back transforming the eigenvectors                 ... done (   0.0 sec)
Now organizing SCF variables                       ... done
                      ------------------
                      INITIAL GUESS DONE (   0.6 sec)
                      ------------------
             **** ENERGY FILE WAS UPDATED (sp.en.tmp) ****
Finished Guess after   0.7 sec
Maximum memory used throughout the entire GUESS-calculation: 22.5 MB

-------------------------------------------------------------------------------------------
                                      ORCA LEAN-SCF
                              memory conserving SCF solver
-------------------------------------------------------------------------------------------

----------------------------------------D-I-I-S--------------------------------------------
Iteration    Energy (Eh)           Delta-E    RMSDP     MaxDP     DIISErr   Damp  Time(sec)
-------------------------------------------------------------------------------------------
               ***  Starting incremental Fock matrix formation  ***
    1    -685.5333466505078377     0.00e+00  4.84e-03  1.39e-01  2.21e-01  0.700   0.8
    2    -685.6795288773766970    -1.46e-01  3.08e-03  9.42e-02  8.91e-02  0.700   0.8
                               ***Turning on AO-DIIS***
    3    -685.7260422708679926    -4.65e-02  1.09e-03  2.72e-02  2.03e-02  0.700   0.7
    4    -685.7570624999466418    -3.10e-02  1.46e-03  2.29e-02  9.01e-03  0.000   0.7
    5    -685.8284533182854830    -7.14e-02  4.56e-04  1.46e-02  5.34e-03  0.000   0.7
                              *** Initializing SOSCF ***
---------------------------------------S-O-S-C-F--------------------------------------
Iteration    Energy (Eh)           Delta-E    RMSDP     MaxDP     MaxGrad    Time(sec)
--------------------------------------------------------------------------------------
    6    -685.8287636409736479    -3.10e-04  1.32e-04  2.83e-03  1.33e-03     0.7
               *** Restarting incremental Fock matrix formation ***
    7    -685.8287889915641244    -2.54e-05  9.04e-05  2.35e-03  1.37e-04     0.9
    8    -685.8287890795859312    -8.80e-08  3.61e-05  5.56e-04  2.06e-04     0.6
                 **** Energy Check signals convergence ****

               *****************************************************
               *                     SUCCESS                       *
               *           SCF CONVERGED AFTER   8 CYCLES          *
               *****************************************************

             **** ENERGY FILE WAS UPDATED (sp.en.tmp) ****

----------------
TOTAL SCF ENERGY
----------------

Total Energy       :       -685.82878907958593 Eh          -18662.35013 eV

Components:
Nuclear Repulsion  :        857.43737469466578 Eh           23332.05714 eV
Electronic Energy  :      -1543.26616377425171 Eh          -41994.40727 eV
One Electron Energy:      -2643.15767606071040 Eh          -71923.97691 eV
Two Electron Energy:       1099.89151228645869 Eh           29929.56964 eV

Virial components:
Potential Energy   :      -1366.96654048482287 Eh          -37197.05063 eV
Kinetic Energy     :        681.13775140523683 Eh           18534.70050 eV
Virial Ratio       :          2.00688706163279

DFT components:
N(Alpha)           :       47.999847583284 electrons
N(Beta)            :       47.999847583284 electrons
N(Total)           :       95.999695166567 electrons
E(X)               :      -84.606692822393 Eh       
E(C)               :       -3.287104213675 Eh       
E(XC)              :      -87.893797036068 Eh       

---------------
SCF CONVERGENCE
---------------

  Last Energy change         ...    8.8022e-08  Tolerance :   1.0000e-05
  Last MAX-Density change    ...    5.5589e-04  Tolerance :   1.0000e-03
  Last RMS-Density change    ...    3.6099e-05  Tolerance :   1.0000e-04
  Last DIIS Error            ...    1.3304e-03  Tolerance :   5.0000e-04
  Last Orbital Gradient      ...    2.0574e-04  Tolerance :   1.0000e-04
  Last Orbital Rotation      ...    1.7627e-04  Tolerance :   1.0000e-04


----------------
ORBITAL ENERGIES
----------------

  NO   OCC          E(Eh)            E(eV) 
   0   2.0000     -18.789377      -511.2849 
   1   2.0000     -18.787459      -511.2328 
   2   2.0000     -18.764361      -510.6042 
   3   2.0000     -18.764112      -510.5974 
   4   2.0000     -18.763101      -510.5699 
   5   2.0000     -18.745741      -510.0976 
   6   2.0000      -9.989531      -271.8290 
   7   2.0000      -9.958759      -270.9916 
   8   2.0000      -9.956819      -270.9388 
   9   2.0000      -9.950961      -270.7794 
  10   2.0000      -9.946003      -270.6445 
  11   2.0000      -9.940072      -270.4831 
  12   2.0000      -0.997862       -27.1532 
  13   2.0000      -0.962751       -26.1978 
  14   2.0000      -0.944921       -25.7126 
  15   2.0000      -0.940762       -25.5994 
  16   2.0000      -0.924409       -25.1545 
  17   2.0000      -0.923563       -25.1314 
  18   2.0000      -0.712554       -19.3896 
  19   2.0000      -0.686786       -18.6884 
  20   2.0000      -0.629461       -17.1285 
  21   2.0000      -0.600497       -16.3404 
  22   2.0000      -0.578160       -15.7325 
  23   2.0000      -0.539244       -14.6736 
  24   2.0000      -0.517187       -14.0734 
  25   2.0000      -0.500543       -13.6205 
  26   2.0000      -0.477402       -12.9908 
  27   2.0000      -0.470363       -12.7992 
  28   2.0000      -0.467487       -12.7210 
  29   2.0000      -0.450605       -12.2616 
  30   2.0000      -0.416104       -11.3228 
  31   2.0000      -0.400776       -10.9057 
  32   2.0000      -0.388343       -10.5674 
  33   2.0000      -0.384453       -10.4615 
  34   2.0000      -0.366235        -9.9658 
  35   2.0000      -0.364786        -9.9263 
  36   2.0000      -0.340759        -9.2725 
  37   2.0000      -0.329038        -8.9536 
  38   2.0000      -0.316952        -8.6247 
  39   2.0000      -0.310005        -8.4357 
  40   2.0000      -0.294319        -8.0088 
  41   2.0000      -0.283237        -7.7073 
  42   2.0000      -0.265614        -7.2277 
  43   2.0000      -0.262779        -7.1506 
  44   2.0000      -0.247263        -6.7284 
  45   2.0000      -0.237929        -6.4744 
  46   2.0000      -0.223696        -6.0871 
  47   2.0000      -0.200909        -5.4670 
  48   0.0000      -0.002065        -0.0562 
  49   0.0000       0.012459         0.3390 
  50   0.0000       0.032538         0.8854 
  51   0.0000       0.045337         1.2337 
  52   0.0000       0.059051         1.6069 
  53   0.0000       0.068361         1.8602 
  54   0.0000       0.078513         2.1365 
  55   0.0000       0.084835         2.3085 
  56   0.0000       0.092093         2.5060 
  57   0.0000       0.103299         2.8109 
  58   0.0000       0.113783         3.0962 
*Only the first 10 virtual orbitals were printed.

                    ********************************
                    * MULLIKEN POPULATION ANALYSIS *
                    ********************************

-----------------------
MULLIKEN ATOMIC CHARGES
-----------------------
   0 C :    0.065393
   1 C :   -0.004542
   2 H :    0.069819
   3 C :   -0.000527
   4 H :    0.087701
   5 C :    0.030229
   6 H :    0.069770
   7 C :    0.026230
   8 H :    0.081640
   9 C :    0.185954
  10 H :    0.073546
  11 O :   -0.322120
  12 O :   -0.371721
  13 O :   -0.423474
  14 O :   -0.417930
  15 O :   -0.412354
  16 O :   -0.430488
  17 H :    0.100742
  18 H :    0.090208
  19 H :    0.292590
  20 H :    0.299028
  21 H :    0.292685
  22 H :    0.313998
  23 H :    0.303621
Sum of atomic charges:   -0.0000000

--------------------------------
MULLIKEN REDUCED ORBITAL CHARGES
--------------------------------
  0 C s       :     3.014495  s :     3.014495
      pz      :     0.803105  p :     2.856633
      px      :     0.995402
      py      :     1.058126
      dz2     :     0.017001  d :     0.063479
      dxz     :     0.016538
      dyz     :     0.015101
      dx2y2   :     0.008953
      dxy     :     0.005886

  1 C s       :     3.056580  s :     3.056580
      pz      :     0.967323  p :     2.882082
      px      :     0.993725
      py      :     0.921035
      dz2     :     0.016192  d :     0.065879
      dxz     :     0.010736
      dyz     :     0.009479
      dx2y2   :     0.014769
      dxy     :     0.014704

  2 H s       :     0.930181  s :     0.930181

  3 C s       :     3.080147  s :     3.080147
      pz      :     0.815939  p :     2.855328
      px      :     1.046923
      py      :     0.992466
      dz2     :     0.013653  d :     0.065051
      dxz     :     0.017970
      dyz     :     0.015231
      dx2y2   :     0.010180
      dxy     :     0.008017

  4 H s       :     0.912299  s :     0.912299

  5 C s       :     3.051254  s :     3.051254
      pz      :     0.773035  p :     2.850647
      px      :     1.012365
      py      :     1.065247
      dz2     :     0.020192  d :     0.067870
      dxz     :     0.017925
      dyz     :     0.011942
      dx2y2   :     0.010908
      dxy     :     0.006902

  6 H s       :     0.930230  s :     0.930230

  7 C s       :     3.078425  s :     3.078425
      pz      :     0.793895  p :     2.828266
      px      :     1.055128
      py      :     0.979243
      dz2     :     0.017820  d :     0.067079
      dxz     :     0.015682
      dyz     :     0.015753
      dx2y2   :     0.011135
      dxy     :     0.006688

  8 H s       :     0.918360  s :     0.918360

  9 C s       :     3.049167  s :     3.049167
      pz      :     0.955777  p :     2.666436
      px      :     0.726348
      py      :     0.984311
      dz2     :     0.018667  d :     0.098444
      dxz     :     0.019354
      dyz     :     0.016404
      dx2y2   :     0.025630
      dxy     :     0.018389

 10 H s       :     0.926454  s :     0.926454

 11 O s       :     3.766905  s :     3.766905
      pz      :     1.625947  p :     4.540209
      px      :     1.245593
      py      :     1.668668
      dz2     :     0.002322  d :     0.015006
      dxz     :     0.003369
      dyz     :     0.002875
      dx2y2   :     0.003382
      dxy     :     0.003058

 12 O s       :     3.762909  s :     3.762909
      pz      :     1.201969  p :     4.592765
      px      :     1.728736
      py      :     1.662060
      dz2     :     0.002910  d :     0.016048
      dxz     :     0.001902
      dyz     :     0.006075
      dx2y2   :     0.002251
      dxy     :     0.002910

 13 O s       :     3.771743  s :     3.771743
      pz      :     1.318839  p :     4.636205
      px      :     1.510602
      py      :     1.806765
      dz2     :     0.003483  d :     0.015526
      dxz     :     0.004653
      dyz     :     0.001783
      dx2y2   :     0.003759
      dxy     :     0.001848

 14 O s       :     3.783803  s :     3.783803
      pz      :     1.399928  p :     4.618350
      px      :     1.751085
      py      :     1.467337
      dz2     :     0.006285  d :     0.015778
      dxz     :     0.002015
      dyz     :     0.001799
      dx2y2   :     0.001898
      dxy     :     0.003782

 15 O s       :     3.782627  s :     3.782627
      pz      :     1.485339  p :     4.614560
      px      :     1.885321
      py      :     1.243899
      dz2     :     0.005062  d :     0.015167
      dxz     :     0.001925
      dyz     :     0.003245
      dx2y2   :     0.004483
      dxy     :     0.000453

 16 O s       :     3.795183  s :     3.795183
      pz      :     1.244087  p :     4.619254
      px      :     1.696049
      py      :     1.679119
      dz2     :     0.002708  d :     0.016050
      dxz     :     0.004323
      dyz     :     0.003751
      dx2y2   :     0.001166
      dxy     :     0.004102

 17 H s       :     0.899258  s :     0.899258

 18 H s       :     0.909792  s :     0.909792

 19 H s       :     0.707410  s :     0.707410

 20 H s       :     0.700972  s :     0.700972

 21 H s       :     0.707315  s :     0.707315

 22 H s       :     0.686002  s :     0.686002

 23 H s       :     0.696379  s :     0.696379


------------------------
MULLIKEN OVERLAP CHARGES
------------------------
B(  0-C ,  1-C ) :   0.6601 B(  0-C , 11-O ) :  -0.1061 B(  0-C , 16-O ) :   0.6792 
B(  0-C , 17-H ) :   0.6923 B(  0-C , 18-H ) :   0.6914 B(  0-C , 23-H ) :  -0.0931 
B(  1-C ,  2-H ) :   0.5833 B(  1-C ,  3-C ) :   0.1557 B(  1-C ,  4-H ) :  -0.0708 
B(  1-C ,  7-C ) :  -0.0513 B(  1-C ,  9-C ) :  -0.0547 B(  1-C , 11-O ) :   0.6176 
B(  1-C , 15-O ) :  -0.0851 B(  1-C , 16-O ) :  -0.0979 B(  1-C , 18-H ) :  -0.0530 
B(  2-H ,  3-C ) :  -0.0525 B(  2-H , 11-O ) :  -0.0623 B(  3-C ,  4-H ) :   0.6614 
B(  3-C ,  5-C ) :   0.2494 B(  3-C ,  6-H ) :  -0.0801 B(  3-C ,  7-C ) :   0.0972 
B(  3-C ,  9-C ) :  -0.1199 B(  3-C , 11-O ) :  -0.1735 B(  3-C , 15-O ) :   0.4611 
B(  3-C , 22-H ) :  -0.0773 B(  4-H ,  5-C ) :  -0.1068 B(  5-C ,  6-H ) :   0.6672 
B(  5-C ,  7-C ) :   0.1912 B(  5-C , 11-O ) :   0.0983 B(  5-C , 14-O ) :   0.5064 
B(  5-C , 15-O ) :  -0.0618 B(  5-C , 21-H ) :  -0.1399 B(  6-H ,  7-C ) :  -0.0754 
B(  7-C ,  8-H ) :   0.6547 B(  7-C ,  9-C ) :   0.2060 B(  7-C , 10-H ) :  -0.1312 
B(  7-C , 11-O ) :  -0.1404 B(  7-C , 13-O ) :   0.5703 B(  7-C , 14-O ) :  -0.1150 
B(  7-C , 20-H ) :  -0.1078 B(  8-H ,  9-C ) :  -0.1077 B(  9-C , 10-H ) :   0.6710 
B(  9-C , 11-O ) :   0.4568 B(  9-C , 12-O ) :   0.6678 B(  9-C , 13-O ) :  -0.0955 
B(  9-C , 14-O ) :   0.0505 B(  9-C , 19-H ) :  -0.0755 B( 10-H , 11-O ) :  -0.0647 
B( 10-H , 12-O ) :  -0.0511 B( 11-O , 12-O ) :  -0.1199 B( 11-O , 21-H ) :   0.0530 
B( 12-O , 19-H ) :   0.5189 B( 13-O , 20-H ) :   0.5513 B( 14-O , 21-H ) :   0.5329 
B( 15-O , 20-H ) :   0.1200 B( 15-O , 22-H ) :   0.5229 B( 16-O , 17-H ) :  -0.0577 
B( 16-O , 18-H ) :  -0.0568 B( 16-O , 23-H ) :   0.5282 B( 17-H , 18-H ) :  -0.0690 



                     *******************************
                     * LOEWDIN POPULATION ANALYSIS *
                     *******************************

----------------------
LOEWDIN ATOMIC CHARGES
----------------------
   0 C :   -0.121718
   1 C :   -0.077519
   2 H :    0.112348
   3 C :   -0.086728
   4 H :    0.113881
   5 C :   -0.083563
   6 H :    0.113150
   7 C :   -0.094913
   8 H :    0.119111
   9 C :   -0.002616
  10 H :    0.106690
  11 O :   -0.166381
  12 O :   -0.282589
  13 O :   -0.318774
  14 O :   -0.312121
  15 O :   -0.306564
  16 O :   -0.326454
  17 H :    0.122428
  18 H :    0.106759
  19 H :    0.277955
  20 H :    0.268079
  21 H :    0.262619
  22 H :    0.294277
  23 H :    0.282644

-------------------------------
LOEWDIN REDUCED ORBITAL CHARGES
-------------------------------
  0 C s       :     2.917965  s :     2.917965
      pz      :     0.885558  p :     3.058972
      px      :     1.060502
      py      :     1.112912
      dz2     :     0.038845  d :     0.144781
      dxz     :     0.035489
      dyz     :     0.032889
      dx2y2   :     0.023531
      dxy     :     0.014028

  1 C s       :     2.902280  s :     2.902280
      pz      :     1.024885  p :     3.021647
      px      :     1.011151
      py      :     0.985611
      dz2     :     0.039921  d :     0.153592
      dxz     :     0.023503
      dyz     :     0.021186
      dx2y2   :     0.038073
      dxy     :     0.030909

  2 H s       :     0.887652  s :     0.887652

  3 C s       :     2.901699  s :     2.901699
      pz      :     0.928431  p :     3.030862
      px      :     1.083451
      py      :     1.018980
      dz2     :     0.030321  d :     0.154167
      dxz     :     0.045066
      dyz     :     0.033712
      dx2y2   :     0.028753
      dxy     :     0.016315

  4 H s       :     0.886119  s :     0.886119

  5 C s       :     2.896549  s :     2.896549
      pz      :     0.880240  p :     3.027645
      px      :     1.068790
      py      :     1.078616
      dz2     :     0.046093  d :     0.159368
      dxz     :     0.044447
      dyz     :     0.025932
      dx2y2   :     0.025629
      dxy     :     0.017267

  6 H s       :     0.886850  s :     0.886850

  7 C s       :     2.904153  s :     2.904153
      pz      :     0.901377  p :     3.032415
      px      :     1.083237
      py      :     1.047801
      dz2     :     0.041288  d :     0.158345
      dxz     :     0.036277
      dyz     :     0.034786
      dx2y2   :     0.028257
      dxy     :     0.017737

  8 H s       :     0.880889  s :     0.880889

  9 C s       :     2.901069  s :     2.901069
      pz      :     1.013377  p :     2.882407
      px      :     0.822266
      py      :     1.046765
      dz2     :     0.041310  d :     0.219140
      dxz     :     0.041961
      dyz     :     0.035653
      dx2y2   :     0.062038
      dxy     :     0.038178

 10 H s       :     0.893310  s :     0.893310

 11 O s       :     3.481799  s :     3.481799
      pz      :     1.662217  p :     4.655452
      px      :     1.302948
      py      :     1.690286
      dz2     :     0.004033  d :     0.029131
      dxz     :     0.006779
      dyz     :     0.004590
      dx2y2   :     0.007539
      dxy     :     0.006189

 12 O s       :     3.523307  s :     3.523307
      pz      :     1.284400  p :     4.730956
      px      :     1.749658
      py      :     1.696899
      dz2     :     0.005875  d :     0.028325
      dxz     :     0.004286
      dyz     :     0.011403
      dx2y2   :     0.002710
      dxy     :     0.004051

 13 O s       :     3.522684  s :     3.522684
      pz      :     1.388888  p :     4.768907
      px      :     1.568342
      py      :     1.811676
      dz2     :     0.007312  d :     0.027183
      dxz     :     0.008283
      dyz     :     0.003571
      dx2y2   :     0.005365
      dxy     :     0.002651

 14 O s       :     3.529580  s :     3.529580
      pz      :     1.470188  p :     4.754949
      px      :     1.763197
      py      :     1.521564
      dz2     :     0.012014  d :     0.027593
      dxz     :     0.003162
      dyz     :     0.003209
      dx2y2   :     0.002992
      dxy     :     0.006216

 15 O s       :     3.534257  s :     3.534257
      pz      :     1.551029  p :     4.745429
      px      :     1.879154
      py      :     1.315245
      dz2     :     0.008798  d :     0.026879
      dxz     :     0.002727
      dyz     :     0.006501
      dx2y2   :     0.007929
      dxy     :     0.000924

 16 O s       :     3.539363  s :     3.539363
      pz      :     1.323830  p :     4.759417
      px      :     1.720494
      py      :     1.715093
      dz2     :     0.006266  d :     0.027675
      dxz     :     0.007857
      dyz     :     0.006617
      dx2y2   :     0.001213
      dxy     :     0.005722

 17 H s       :     0.877572  s :     0.877572

 18 H s       :     0.893241  s :     0.893241

 19 H s       :     0.722045  s :     0.722045

 20 H s       :     0.731921  s :     0.731921

 21 H s       :     0.737381  s :     0.737381

 22 H s       :     0.705723  s :     0.705723

 23 H s       :     0.717356  s :     0.717356


---------------------------------
LOEWDIN BOND ORDERS (THRESH 0.050000)
---------------------------------
B(  0-C ,  1-C ) :   1.0692 B(  0-C ,  3-C ) :   0.0565 B(  0-C , 11-O ) :   0.0571 
B(  0-C , 16-O ) :   1.2480 B(  0-C , 17-H ) :   0.9068 B(  0-C , 18-H ) :   0.9051 
B(  1-C ,  2-H ) :   0.8611 B(  1-C ,  3-C ) :   1.0091 B(  1-C ,  5-C ) :   0.0522 
B(  1-C ,  9-C ) :   0.0675 B(  1-C , 11-O ) :   1.1297 B(  1-C , 15-O ) :   0.0622 
B(  1-C , 16-O ) :   0.0809 B(  3-C ,  4-H ) :   0.8665 B(  3-C ,  5-C ) :   1.0163 
B(  3-C ,  7-C ) :   0.0547 B(  3-C , 11-O ) :   0.0626 B(  3-C , 14-O ) :   0.0781 
B(  3-C , 15-O ) :   1.1920 B(  5-C ,  6-H ) :   0.8756 B(  5-C ,  7-C ) :   1.0144 
B(  5-C ,  9-C ) :   0.0549 B(  5-C , 13-O ) :   0.0768 B(  5-C , 14-O ) :   1.2238 
B(  5-C , 15-O ) :   0.0773 B(  7-C ,  8-H ) :   0.8723 B(  7-C ,  9-C ) :   1.0000 
B(  7-C , 11-O ) :   0.0580 B(  7-C , 12-O ) :   0.0749 B(  7-C , 13-O ) :   1.2426 
B(  7-C , 14-O ) :   0.0800 B(  9-C , 10-H ) :   0.8790 B(  9-C , 11-O ) :   1.1149 
B(  9-C , 12-O ) :   1.3187 B(  9-C , 13-O ) :   0.0826 B( 11-O , 12-O ) :   0.0785 
B( 11-O , 21-H ) :   0.0544 B( 12-O , 19-H ) :   0.8703 B( 13-O , 20-H ) :   0.8509 
B( 14-O , 21-H ) :   0.8607 B( 15-O , 20-H ) :   0.0854 B( 15-O , 22-H ) :   0.8773 
B( 16-O , 23-H ) :   0.8827 

------------------------------------------
LOEWDIN REDUCED ORBITAL POPULATIONS PER MO
-------------------------------------------
THRESHOLD FOR PRINTING IS 0.1%%
                      0         1         2         3         4         5   
                 -18.78938 -18.78746 -18.76436 -18.76411 -18.76310 -18.74574
                   2.00000   2.00000   2.00000   2.00000   2.00000   2.00000
                  --------  --------  --------  --------  --------  --------
11 O  s              99.9       0.0       0.0       0.0       0.0       0.0
12 O  s               0.0       0.0      99.9       0.0       0.0       0.0
13 O  s               0.0       0.0       0.0       0.0       0.0      99.9
14 O  s               0.0       0.0       0.0       0.0      99.9       0.0
15 O  s               0.0      99.9       0.0       0.0       0.0       0.0
16 O  s               0.0       0.0       0.0      99.9       0.0       0.0

                      6         7         8         9        10        11   
                  -9.98953  -9.95876  -9.95682  -9.95096  -9.94600  -9.94007
                   2.00000   2.00000   2.00000   2.00000   2.00000   2.00000
                  --------  --------  --------  --------  --------  --------
 0 C  s               0.0       0.0       0.0       0.0      99.6       0.0
 1 C  s               0.0      99.5       0.1       0.0       0.0       0.0
 3 C  s               0.0       0.1      99.5       0.0       0.0       0.0
 5 C  s               0.0       0.0       0.0      99.6       0.0       0.0
 7 C  s               0.0       0.0       0.0       0.0       0.0      99.6
 9 C  s              99.6       0.0       0.0       0.0       0.0       0.0
13 O  pz              0.0       0.0       0.0       0.0       0.0       0.1
14 O  pz              0.0       0.0       0.0       0.1       0.0       0.0
16 O  pz              0.0       0.0       0.0       0.0       0.1       0.0

                     12        13        14        15        16        17   
                  -0.99786  -0.96275  -0.94492  -0.94076  -0.92441  -0.92356
                   2.00000   2.00000   2.00000   2.00000   2.00000   2.00000
                  --------  --------  --------  --------  --------  --------
 0 C  s               0.8       0.0       9.2       0.0       0.4       0.4
 0 C  pz              0.1       0.0       6.9       0.0       0.9       0.9
 0 C  px              0.6       0.0       0.1       0.0       0.4       0.5
 0 C  dz2             0.0       0.0       0.6       0.0       0.1       0.1
 1 C  s               5.7       0.2       1.6       0.0       1.2       1.7
 1 C  pz              1.6       0.1       0.6       0.0       0.3       0.4
 1 C  px              1.7       0.0       0.7       0.0       0.8       1.4
 1 C  py              0.8       1.7       0.3       0.0       0.3       0.8
 1 C  dxz             0.1       0.0       0.0       0.0       0.1       0.1
 1 C  dyz             0.1       0.0       0.0       0.0       0.0       0.1
 1 C  dxy             0.1       0.0       0.0       0.0       0.1       0.1
 2 H  s               0.8       0.1       0.1       0.0       0.1       0.2
 3 C  s               1.7       8.8       0.0       0.1       0.3       0.1
 3 C  pz              0.1       4.7       0.0       2.5       0.1       0.0
 3 C  px              0.1       0.1       0.1       0.6       0.0       0.0
 3 C  py              0.4       2.3       0.4       0.3       0.0       0.6
 3 C  dz2             0.0       0.2       0.0       0.0       0.0       0.0
 3 C  dyz             0.0       0.4       0.0       0.1       0.0       0.0
 4 H  s               0.2       1.1       0.0       0.0       0.0       0.0
 5 C  s               1.6       1.8       0.2       7.9       0.1       0.2
 5 C  pz              0.0       0.1       0.0       7.4       0.6       1.4
 5 C  px              0.0       0.5       0.0       0.0       0.7       0.2
 5 C  py              0.6       0.0       0.0       0.9       0.0       0.0
 5 C  dz2             0.0       0.0       0.0       0.5       0.0       0.1
 5 C  dyz             0.0       0.0       0.0       0.2       0.0       0.0
 6 H  s               0.2       0.3       0.0       0.9       0.0       0.0
 7 C  s               2.1       0.2       0.5       0.7       7.0       1.7
 7 C  pz              0.0       0.2       0.0       0.1       5.7       3.2
 7 C  px              0.5       0.1       0.0       0.3       0.2       0.0
 7 C  py              0.7       0.6       0.0       0.6       0.5       0.3
 7 C  dz2             0.0       0.0       0.0       0.0       0.4       0.2
 7 C  dyz             0.0       0.0       0.0       0.0       0.2       0.0
 8 H  s               0.3       0.0       0.1       0.1       1.0       0.1
 9 C  s              12.9       1.3       1.0       0.6       0.3       0.2
 9 C  pz              2.1       0.6       0.7       0.3       0.1       2.4
 9 C  px              1.8       0.0       1.1       0.1       3.6       5.4
 9 C  py              0.2       0.4       0.1       0.7       0.2       1.7
 9 C  dz2             0.0       0.0       0.0       0.0       0.0       0.2
 9 C  dxz             0.0       0.0       0.1       0.0       0.1       0.3
 9 C  dyz             0.1       0.0       0.0       0.0       0.0       0.1
 9 C  dx2y2           0.2       0.0       0.0       0.0       0.1       0.1
10 H  s               1.5       0.1       0.1       0.1       0.1       0.0
11 O  s              30.8       1.4       1.2       0.3       8.5      12.4
11 O  pz              0.6       0.0       0.1       0.0       0.2       0.5
11 O  px              0.6       0.2       0.3       0.1       0.1       0.1
11 O  py              0.7       0.0       0.1       0.0       0.2       0.4
12 O  s              13.5       4.7       7.8       4.5       5.2      22.8
12 O  pz              0.1       0.0       0.0       0.0       0.0       0.1
12 O  px              0.7       0.1       0.1       0.1       0.0       0.2
12 O  py              0.8       0.2       0.3       0.2       0.2       0.8
13 O  s               1.0       1.4       0.9       0.7      39.5      13.9
13 O  pz              0.1       0.0       0.0       0.0       0.8       0.2
13 O  px              0.0       0.1       0.0       0.0       1.6       0.6
14 O  s               2.4       1.9       0.6      47.9       0.3       4.6
14 O  pz              0.2       0.2       0.0       2.1       0.0       0.1
14 O  px              0.0       0.0       0.0       0.2       0.0       0.0
14 O  py              0.0       0.0       0.0       0.7       0.0       0.1
15 O  s               1.7      48.6       0.5       6.1       0.9       1.6
15 O  pz              0.1       2.4       0.0       0.2       0.0       0.1
15 O  py              0.0       0.3       0.0       0.1       0.0       0.0
16 O  s               0.9       0.1      46.1       0.0       5.6       6.0
16 O  pz              0.0       0.0       0.7       0.0       0.0       0.0
16 O  px              0.0       0.0       1.4       0.0       0.1       0.1
16 O  py              0.0       0.0       0.9       0.0       0.1       0.1
17 H  s               0.1       0.0       1.0       0.0       0.0       0.1
18 H  s               0.1       0.0       1.1       0.0       0.0       0.0
19 H  s               2.9       0.9       1.6       0.7       1.0       4.6
20 H  s               0.4       1.1       0.2       0.1       7.6       2.6
21 H  s               1.1       0.3       0.1       9.6       0.1       0.8
22 H  s               0.4       9.8       0.1       1.2       0.2       0.3
23 H  s               0.3       0.0       9.6       0.0       1.0       1.1

                     18        19        20        21        22        23   
                  -0.71255  -0.68679  -0.62946  -0.60050  -0.57816  -0.53924
                   2.00000   2.00000   2.00000   2.00000   2.00000   2.00000
                  --------  --------  --------  --------  --------  --------
 0 C  s               6.1       2.8      14.5       0.7       5.8       1.0
 0 C  pz              1.3       0.5       1.8       0.0       0.2       0.3
 0 C  px              2.4       0.8       0.0       0.0       3.2       4.2
 0 C  py              0.6       0.0       0.0       0.6       0.0       0.4
 0 C  dz2             0.1       0.0       0.0       0.0       0.0       0.0
 1 C  s              16.7       2.9       0.6       0.1       3.8       4.1
 1 C  pz              0.0       0.0       1.0       1.0       0.1       2.0
 1 C  px              1.3       1.3       4.9       0.1       1.8       0.1
 1 C  py              2.6       1.7       1.3       6.5       0.0       1.9
 1 C  dyz             0.0       0.0       0.0       0.1       0.0       0.0
 1 C  dx2y2           0.0       0.0       0.2       0.0       0.0       0.0
 2 H  s               3.2       0.6       0.4       0.4       1.4       3.8
 3 C  s              13.1       2.0       4.6       5.3       0.4       1.3
 3 C  pz              0.3       0.8       0.8       0.7       1.6       0.1
 3 C  px              0.0       2.7       0.7       2.0       0.4       0.5
 3 C  py              4.1       0.4       0.1       0.7       2.7       0.2
 3 C  dyz             0.1       0.0       0.0       0.0       0.0       0.0
 3 C  dx2y2           0.0       0.1       0.0       0.0       0.1       0.0
 4 H  s               2.6       0.2       1.0       1.7       0.5       0.9
 5 C  s               3.5      11.7       1.2       5.9       4.0       1.4
 5 C  pz              1.5       2.9       0.3       0.0       0.1       2.2
 5 C  px              1.2       0.6       3.2       3.9       1.2       0.1
 5 C  py              0.0       0.2       0.7       0.6       3.3       2.4
 5 C  dz2             0.0       0.1       0.0       0.0       0.0       0.1
 6 H  s               0.6       2.6       0.4       3.3       2.7       1.7
 7 C  s               0.2      12.6       5.6       1.7       5.7       1.4
 7 C  pz              0.2       2.9       0.2       1.4       0.0       0.0
 7 C  px              0.4       1.6       0.5       0.0       1.5       0.1
 7 C  py              0.6       0.2       2.7       4.8       0.9       0.0
 7 C  dz2             0.0       0.2       0.0       0.0       0.0       0.0
 8 H  s               0.0       2.5       1.9       1.0       2.9       0.6
 9 C  s               1.7       5.9       6.0       7.1       0.5       1.3
 9 C  pz              0.0       0.3       1.0       1.2       0.3       2.5
 9 C  px              1.5       0.1       1.1       0.0       2.2       3.5
 9 C  py              0.2       3.1       1.0       0.9       5.0       4.1
 9 C  dxz             0.1       0.0       0.0       0.0       0.0       0.1
 9 C  dx2y2           0.1       0.1       0.1       0.0       0.1       0.0
 9 C  dxy             0.0       0.0       0.0       0.0       0.0       0.1
10 H  s               0.3       1.0       2.1       3.5       0.1       3.4
11 O  s               3.4       0.6       1.2       1.4       0.6       1.1
11 O  pz              0.4       0.0       0.2       0.0       0.6       3.9
11 O  px              4.6       4.4       0.5       6.3       6.3       2.8
11 O  py              1.0       0.0       0.1       0.1       2.6       0.0
12 O  s               1.0       1.8       1.2       0.8       0.0       0.2
12 O  pz              0.5       1.7       3.8       8.0       1.5      12.1
12 O  px              0.2       0.1       0.1       0.8       1.0       0.0
12 O  py              0.0       0.1       0.2       0.0       0.2       0.2
13 O  s               0.3       4.7       0.7       0.2       0.6       0.0
13 O  pz              0.0       2.6       1.9       1.0       4.2       1.9
13 O  px              0.0       0.3       0.5       0.1       1.0       0.4
13 O  py              0.0       0.3       0.7       0.0       1.1       0.1
14 O  s               1.4       3.7       0.3       0.6       0.2       0.1
14 O  pz              0.5       2.1       0.3       2.3       2.1       2.2
14 O  px              0.0       0.5       0.0       1.3       0.2       1.0
14 O  py              0.3       1.1       0.2       2.2       3.2       6.1
15 O  s               3.3       0.5       0.7       0.4       0.3       0.0
15 O  pz              1.0       0.4       0.9       1.4       0.3       1.2
15 O  px              0.0       0.0       0.1       0.1       0.1       0.1
15 O  py              4.1       0.3       1.7       8.0       0.0       1.4
16 O  s               2.0       0.9       1.6       0.2       0.3       0.0
16 O  pz              1.3       0.7       6.6       0.4       7.1       5.6
16 O  px              0.0       0.0       0.2       0.0       0.6       0.7
16 O  py              0.2       0.1       0.4       0.0       0.6       1.0
17 H  s               1.5       0.6       4.9       0.1       3.3       1.4
18 H  s               1.1       0.7       4.0       0.5       1.9       0.1
19 H  s               0.4       1.1       1.4       2.7       0.7       3.4
20 H  s               0.1       2.0       1.1       0.3       1.8       0.7
21 H  s               0.6       2.0       0.1       1.7       1.5       2.8
22 H  s               2.4       0.2       0.9       2.8       0.0       0.6
23 H  s               1.0       0.4       2.5       0.1       2.4       2.0

                     24        25        26        27        28        29   
                  -0.51719  -0.50054  -0.47740  -0.47036  -0.46749  -0.45061
                   2.00000   2.00000   2.00000   2.00000   2.00000   2.00000
                  --------  --------  --------  --------  --------  --------
 0 C  s               0.1       0.0       0.7       0.9       0.0       0.6
 0 C  pz              0.8       0.3       0.4      10.7       0.5       0.2
 0 C  px              0.7       0.1       0.2       1.5       2.9       0.0
 0 C  py              0.1       0.3       6.1       2.6       1.6       7.9
 0 C  dz2             0.0       0.0       0.0       0.2       0.0       0.0
 1 C  s               0.2       0.2       0.6       0.2       0.2       1.9
 1 C  pz             10.9       0.7       1.1       4.2       1.0       2.8
 1 C  px              0.7       0.9       0.1       3.0       5.5       0.0
 1 C  py              0.1       0.5       2.2       0.2       2.6       2.2
 1 C  dyz             0.0       0.1       0.1       0.2       0.0       0.1
 2 H  s               4.4       0.0       1.0       1.3       0.5       2.8
 3 C  s               2.4       0.2       0.0       0.4       0.0       0.3
 3 C  pz             12.1       5.4       0.7       3.1       0.0       0.1
 3 C  px              2.7       2.1       7.2       0.1       5.2       0.6
 3 C  py              1.2       3.1       0.8       0.6       2.2       3.9
 3 C  dz2             0.1       0.3       0.0       0.1       0.0       0.1
 3 C  dyz             0.0       0.0       0.1       0.1       0.0       0.1
 4 H  s               7.2       0.0       2.0       1.4       0.3       0.7
 5 C  s               0.1       0.0       0.4       0.0       0.0       0.4
 5 C  pz              0.0       1.7      10.2       0.7       1.7       3.3
 5 C  px              3.9       1.9       0.0       1.1       3.1       1.1
 5 C  py              0.5       4.6       0.1       0.2       2.2       0.4
 5 C  dz2             0.0       0.1       0.2       0.1       0.0       0.1
 6 H  s               0.0       1.0       0.1       0.1       0.4       1.1
 7 C  s               0.1       0.3       0.1       0.0       0.2       0.0
 7 C  pz              1.5       0.6       0.6       0.7       7.3       0.6
 7 C  px              4.5       8.6       1.1       0.1       0.3       0.0
 7 C  py              0.1       2.9       1.6       0.0       0.2      12.5
 7 C  dz2             0.0       0.1       0.1       0.0       0.0       0.0
 7 C  dxy             0.0       0.0       0.1       0.0       0.0       0.0
 8 H  s               0.4       2.1       0.0       0.2       1.3       0.0
 9 C  s               0.0       0.5       0.1       0.1       0.1       0.8
 9 C  pz              0.0       0.1       1.7       0.0      14.4       1.3
 9 C  px              3.8       0.1       2.5       4.0       0.0       1.5
 9 C  py              1.1       3.2       0.9       0.0       0.4       7.6
10 H  s               0.2       0.0       0.2       0.0       4.9       0.4
11 O  s               0.4       2.4       0.3       0.2       0.4       0.0
11 O  pz              0.7       0.1       1.8       0.1       9.7       0.0
11 O  px              5.3       0.1       4.4       7.5       0.6       2.7
11 O  py              0.0       5.4       0.1       1.8       0.0       0.5
12 O  s               0.0       0.0       0.0       0.2       0.9       0.4
12 O  pz              5.5       0.2       8.6       4.2       3.0       2.4
12 O  px              0.0       0.1       0.2       0.4       2.5       1.5
12 O  py              0.0       0.3       0.0       0.0       1.6       2.2
13 O  s               0.4       0.1       0.5       0.0       0.3       0.0
13 O  pz              2.5       6.6       0.1       0.8       3.9       6.6
13 O  px              3.1       4.8       1.3       0.2       0.3       0.8
13 O  py              0.7       0.3       1.0       0.1       2.1       0.4
14 O  s               0.1       0.9       0.2       0.1       0.3       0.0
14 O  pz              0.0       0.1       3.6       0.2       1.8       2.1
14 O  px              1.3       1.0       2.1       1.0       1.8       0.6
14 O  py              0.0       2.9      10.2       0.7       0.1       2.3
15 O  s               0.7       0.1       0.0       0.8       0.2       0.0
15 O  pz              0.6       4.1       0.6       0.1       1.2       2.5
15 O  px              0.8       0.7       2.4       0.1       0.9       0.1
15 O  py              9.6      16.6       2.2       5.6       0.0       3.2
15 O  dz2             0.0       0.1       0.0       0.0       0.0       0.1
16 O  s               0.2       0.0       0.8       0.5       0.2       0.9
16 O  pz              0.1       0.6       0.3      15.4       2.7       0.2
16 O  px              0.3       0.0       0.5       1.5       1.6       0.6
16 O  py              0.2       0.3       2.3       5.1       0.0       3.3
17 H  s               0.2       0.0       0.1       0.4       0.0       0.1
18 H  s               0.2       0.2       3.3       4.1       0.5       4.6
19 H  s               1.5       0.1       2.3       1.1       1.1       0.9
20 H  s               2.3       2.9       0.4       0.5       1.5       1.3
21 H  s               0.1       0.6       4.7       0.6       0.4       1.3
22 H  s               2.4       5.3       0.8       1.5       0.0       1.3
23 H  s               0.0       0.3       0.7       6.2       0.9       0.6

                     30        31        32        33        34        35   
                  -0.41610  -0.40078  -0.38834  -0.38445  -0.36624  -0.36479
                   2.00000   2.00000   2.00000   2.00000   2.00000   2.00000
                  --------  --------  --------  --------  --------  --------
 0 C  s               0.2       0.3       0.3       0.0       0.1       0.0
 0 C  pz              0.4       1.6      14.2       0.6       0.0       0.0
 0 C  px              2.2      10.3       7.9       0.3       0.7       1.6
 0 C  py              4.2       1.2       9.7       5.3       1.4       2.5
 0 C  dz2             0.0       0.0       0.2       0.0       0.0       0.0
 0 C  dxz             0.0       0.1       0.3       0.0       0.0       0.0
 0 C  dxy             0.0       0.1       0.2       0.0       0.0       0.0
 1 C  s               0.1       0.1       0.8       0.1       0.0       0.1
 1 C  pz              0.4       6.5       2.0       0.0       2.0       2.6
 1 C  px              1.6       9.0       0.2       1.0       0.4       2.3
 1 C  py              2.3       0.6       0.2       0.0       5.9       2.8
 1 C  dz2             0.0       0.1       0.0       0.0       0.0       0.0
 1 C  dxz             0.1       0.1       0.3       0.0       0.0       0.1
 1 C  dx2y2           0.0       0.0       0.0       0.1       0.0       0.0
 1 C  dxy             0.1       0.1       0.1       0.0       0.0       0.0
 2 H  s               0.3       4.9       2.5       0.0       1.1       1.6
 3 C  s               0.0       0.4       0.1       0.6       0.2       0.0
 3 C  pz              0.1       0.6       0.0       0.3       0.4       0.6
 3 C  px              3.6       0.0       0.2       5.4       0.2       4.4
 3 C  py              6.0       1.3       0.0       0.0       7.2       1.1
 3 C  dz2             0.0       0.0       0.0       0.0       0.0       0.2
 3 C  dyz             0.0       0.0       0.0       0.0       0.1       0.0
 3 C  dx2y2           0.0       0.0       0.0       0.0       0.0       0.1
 3 C  dxy             0.0       0.1       0.0       0.2       0.1       0.0
 4 H  s               2.9       0.8       0.0       3.3       0.2       0.4
 5 C  s               0.1       0.2       0.0       0.0       0.1       0.5
 5 C  pz              1.9       0.1       0.0       0.0       0.1       0.4
 5 C  px              4.9       1.0       0.5       3.6       0.1       6.4
 5 C  py              6.4       0.1       0.4      12.1       5.4       4.0
 5 C  dz2             0.3       0.0       0.0       0.0       0.2       0.0
 5 C  dyz             0.0       0.0       0.0       0.0       0.0       0.2
 5 C  dx2y2           0.0       0.0       0.0       0.1       0.0       0.1
 5 C  dxy             0.1       0.0       0.0       0.1       0.2       0.0
 6 H  s               4.9       0.1       0.0       5.0       3.5       3.2
 7 C  s               0.4       0.0       0.0       0.5       0.3       0.0
 7 C  pz              5.1       3.0       0.0       3.4       2.5       1.2
 7 C  px              0.1       6.2       0.4       0.2      11.8       3.7
 7 C  py              0.1       0.1       0.1       7.3       0.1       0.2
 7 C  dz2             0.2       0.0       0.0       0.0       0.2       0.0
 7 C  dxz             0.2       0.0       0.0       0.0       0.1       0.0
 7 C  dx2y2           0.1       0.0       0.0       0.1       0.0       0.1
 8 H  s               1.6       4.4       0.0       1.0       7.8       2.8
 9 C  s               0.5       0.6       0.1       0.4       0.1       0.2
 9 C  pz              1.6       6.2       3.1       2.8       2.9       0.8
 9 C  px              0.0       0.5       0.7       1.0       0.3       0.1
 9 C  py              0.2       0.7       0.3       5.3       0.8       0.7
 9 C  dxz             0.0       0.2       0.0       0.0       0.1       0.0
 9 C  dyz             0.1       0.0       0.0       0.0       0.2       0.1
 9 C  dxy             0.1       0.0       0.0       0.0       0.0       0.2
10 H  s               1.3       4.4       1.3       1.6       2.8       1.1
11 O  s               0.0       0.0       0.8       0.1       0.0       0.6
11 O  pz              1.4       2.2       0.0       3.8       0.1       0.5
11 O  px              0.1       0.0       2.7       0.1       0.8       0.4
11 O  py              1.5       1.1       0.3       1.2       0.3      11.1
12 O  s               0.3       0.1       0.9       1.5       0.1       0.2
12 O  pz              1.5       2.7       0.1       0.0       1.2       0.9
12 O  px              0.3       0.1       3.2       0.9       0.9       0.1
12 O  py              0.6       2.4       2.4       9.8       0.1       0.0
13 O  s               0.3       0.7       0.2       0.0       0.1       0.1
13 O  pz              6.0       2.4       0.0       0.2       3.6       1.3
13 O  px              3.2       1.6       0.7       0.4       2.9       1.7
13 O  py              2.0       0.9       0.0       2.7       1.3       0.0
14 O  s               0.1       0.0       0.0       0.2       0.0       3.0
14 O  pz              8.8       0.0       0.1       1.7       2.2      14.6
14 O  px              0.0       0.3       0.1       1.6       1.0       4.0
14 O  py              1.8       0.0       0.1       2.5       0.0       2.9
15 O  s               1.2       0.8       0.2       0.0       1.4       0.4
15 O  pz              3.9       1.7       0.2       0.1      15.1       0.6
15 O  px              0.1       0.0       0.1       4.1       1.2       3.1
15 O  py              0.4       1.2       0.4       0.3       0.6       0.8
16 O  s               0.2       1.5       0.6       0.1       0.6       0.3
16 O  pz              0.0       0.3      15.0       0.9       0.1       0.0
16 O  px              0.2      10.0       2.7       0.1       0.2       0.0
16 O  py              2.7       0.0       1.6       1.5       2.4       3.1
16 O  dxz             0.0       0.0       0.1       0.0       0.0       0.0
17 H  s               0.1       1.1      18.7       1.3       0.0       0.0
18 H  s               3.1       1.0       0.4       2.0       1.2       1.9
19 H  s               0.8       0.7       0.0       0.1       0.5       0.3
20 H  s               2.4       0.1       0.1       0.2       0.9       0.2
21 H  s               1.4       0.0       0.0       0.2       0.4       0.3
22 H  s               0.0       0.3       0.1       0.1       0.1       0.3
23 H  s               0.2       0.2       1.4       0.1       0.2       0.1

                     36        37        38        39        40        41   
                  -0.34076  -0.32904  -0.31695  -0.31001  -0.29432  -0.28324
                   2.00000   2.00000   2.00000   2.00000   2.00000   2.00000
                  --------  --------  --------  --------  --------  --------
[...]
 3 C  dxy             0.1       0.1       0.0       0.0       0.0       0.0
 5 C  s               0.0       0.8       0.3       1.0       0.6       0.0
 5 C  pz              0.0       1.0       0.2       1.4       1.0       0.1
 5 C  py              0.0       0.0       0.0       0.1       0.1       0.0
 5 C  dz2             0.0       4.1       1.4       3.5       2.0       0.1
 5 C  dxz             0.0       0.0       0.3       0.9       0.0       0.0
 5 C  dyz             0.0       0.6       0.0       0.6       0.9       0.1
 7 C  s               0.0       0.0       1.3       0.2       1.3       0.0
 7 C  pz              0.0       0.0       1.3       0.2       1.9       0.1
 7 C  px              0.0       0.0       0.1       0.0       0.1       0.1
 7 C  py              0.0       0.0       0.1       0.0       0.2       0.1
 7 C  dz2             0.1       0.0       3.5       1.1       4.0       0.1
 7 C  dxz             0.0       0.1       0.7       0.2       0.2       0.0
 7 C  dyz             0.0       0.2       1.0       0.0       1.9       0.0
 7 C  dx2y2           0.0       0.0       0.2       0.2       0.0       0.0
 7 C  dxy             0.0       0.0       0.1       0.0       0.0       0.1
 9 C  s               0.1       0.3       1.4       0.4       0.7       0.1
 9 C  pz              0.1       0.1       0.5       0.3       0.3       0.2
 9 C  px              0.0       0.0       0.3       0.3       0.0       2.7
 9 C  py              0.0       0.1       0.3       0.2       0.2       0.1
 9 C  dz2             0.0       0.0       0.0       0.2       0.0       1.9
 9 C  dxz             0.0       0.4       2.0       1.2       1.5       1.6
 9 C  dyz             0.2       0.1       1.4       0.2       0.0       1.7
 9 C  dx2y2           0.0       0.1       0.1       0.0       0.7       3.8
 9 C  dxy             0.0       0.4       1.3       1.3       0.8       0.3
11 O  s               0.4       0.0       0.4       0.5       0.1       0.1
11 O  pz              0.0       0.0       0.0       0.0       0.0       0.3
11 O  px              0.0       0.1       0.2       0.0       0.6       5.1
11 O  py              0.0       0.0       0.1       0.0       0.0       0.7
11 O  dz2             0.3       0.0       0.3       1.5       0.0       2.5
11 O  dxz             0.7       1.9       4.1       0.3       4.6      14.9
11 O  dyz             0.2       0.1       0.6       0.1       0.8       6.8
11 O  dx2y2           1.9       0.0       0.2       0.3       0.1      14.0
11 O  dxy             0.8       0.7       3.5       1.9       5.1      10.7
12 O  s               0.1       0.2       1.2       1.0       0.8       1.3
12 O  pz              0.0       0.2       1.2       0.5       0.3       0.5
12 O  px              0.0       0.0       0.2       0.1       0.0       0.4
12 O  py              0.0       0.0       0.2       0.2       0.2       0.1
12 O  dz2             0.1       0.5       1.7       0.8       0.7       0.0
12 O  dxz             0.4       1.0       7.5       3.3       1.0       7.0
12 O  dyz             0.3       2.2      11.0       4.6       4.2       3.0
12 O  dx2y2           0.1       0.1       0.0       0.2       1.4       0.9
12 O  dxy             0.2       0.4       2.8       2.4       1.4       3.6
13 O  s               0.0       0.0       1.2       0.3       2.9       0.2
13 O  pz              0.0       0.0       1.9       0.2       2.1       0.0
13 O  px              0.0       0.0       0.1       0.0       0.0       0.0
13 O  py              0.0       0.0       0.2       0.1       0.2       0.0
13 O  dz2             0.1       0.1      21.6       1.7      20.0       0.1
13 O  dxz             0.0       0.4       2.9       0.1       4.5       0.1
13 O  dyz             0.2       0.2       5.3       2.3       5.6       0.4
13 O  dx2y2           0.1       0.0       0.8       0.3       0.0       0.0
13 O  dxy             0.0       0.0       0.5       0.3       0.4       0.1
14 O  s               0.0       0.8       0.4       2.0       1.8       0.1
14 O  pz              0.0       1.0       0.4       1.3       0.9       0.1
14 O  px              0.0       0.2       0.0       0.0       0.1       0.0
14 O  py              0.0       0.3       0.1       0.3       0.1       0.0
14 O  dz2             0.0      16.8       4.8      20.2      12.7       0.9
14 O  dxz             0.1       2.4       0.0       0.0       0.9       0.0
14 O  dyz             0.0       3.5       1.9       3.0       0.5       0.0
15 O  s               0.0       2.3       0.0       2.8       0.2       0.1
15 O  pz              0.0       1.3       0.0       0.9       0.2       0.0
15 O  py              0.0       1.5       0.0       1.0       0.0       0.0
15 O  dz2             0.7      14.6       0.0       7.5       1.4       0.3
15 O  dxz             0.0       0.2       0.1       0.5       0.3       0.0
15 O  dyz             0.2      22.4       0.4      13.3       0.7       0.8
15 O  dx2y2           0.0       0.8       0.1       0.7       0.0       0.0
15 O  dxy             0.0       0.0       0.1       0.1       0.1       0.0
16 O  s               3.8       0.1       0.0       0.1       0.0       0.0
16 O  pz              4.1       0.1       0.0       0.0       0.0       0.0
16 O  dz2            47.0       0.6       0.2       0.2       0.0       0.5
16 O  dxz            15.2       0.2       0.0       0.1       0.0       0.0
16 O  dyz             2.7       0.0       0.0       0.0       0.0       0.1
16 O  dx2y2           0.4       0.0       0.0       0.0       0.0       0.1
19 H  s               0.0       0.0       0.2       0.0       0.0       0.1
20 H  s               0.0       0.1       0.5       0.1       0.3       0.0
21 H  s               0.0       0.3       0.1       0.2       0.1       0.0
22 H  s               0.0       0.4       0.0       0.2       0.0       0.0
23 H  s               0.9       0.0       0.0       0.0       0.0       0.0



                      *****************************
                      * MAYER POPULATION ANALYSIS *
                      *****************************

  NA   - Mulliken gross atomic population
  ZA   - Total nuclear charge
  QA   - Mulliken gross atomic charge
  VA   - Mayer's total valence
  BVA  - Mayer's bonded valence
  FA   - Mayer's free valence

  ATOM       NA         ZA         QA         VA         BVA        FA
  0 C      5.9346     6.0000     0.0654     3.9861     3.9861     0.0000
  1 C      6.0045     6.0000    -0.0045     4.0518     4.0518     0.0000
  2 H      0.9302     1.0000     0.0698     0.9859     0.9859    -0.0000
  3 C      6.0005     6.0000    -0.0005     3.9843     3.9843    -0.0000
  4 H      0.9123     1.0000     0.0877     0.9926     0.9926    -0.0000
  5 C      5.9698     6.0000     0.0302     4.0430     4.0430    -0.0000
  6 H      0.9302     1.0000     0.0698     0.9723     0.9723    -0.0000
  7 C      5.9738     6.0000     0.0262     3.9330     3.9330    -0.0000
  8 H      0.9184     1.0000     0.0816     0.9779     0.9779     0.0000
  9 C      5.8140     6.0000     0.1860     4.0721     4.0721    -0.0000
 10 H      0.9265     1.0000     0.0735     0.9839     0.9839    -0.0000
 11 O      8.3221     8.0000    -0.3221     2.1312     2.1312    -0.0000
 12 O      8.3717     8.0000    -0.3717     2.0675     2.0675     0.0000
 13 O      8.4235     8.0000    -0.4235     2.0222     2.0222     0.0000
 14 O      8.4179     8.0000    -0.4179     2.0108     2.0108    -0.0000
 15 O      8.4124     8.0000    -0.4124     2.0436     2.0436     0.0000
 16 O      8.4305     8.0000    -0.4305     2.0365     2.0365     0.0000
 17 H      0.8993     1.0000     0.1007     0.9550     0.9550    -0.0000
 18 H      0.9098     1.0000     0.0902     0.9566     0.9566     0.0000
 19 H      0.7074     1.0000     0.2926     0.9173     0.9173    -0.0000
 20 H      0.7010     1.0000     0.2990     0.9383     0.9383     0.0000
 21 H      0.7073     1.0000     0.2927     0.9402     0.9402    -0.0000
 22 H      0.6860     1.0000     0.3140     0.8780     0.8780    -0.0000
 23 H      0.6964     1.0000     0.3036     0.8939     0.8939    -0.0000

  Mayer bond orders larger than 0.100000
B(  0-C ,  1-C ) :   1.0440 B(  0-C , 16-O ) :   1.0697 B(  0-C , 17-H ) :   0.9224 
B(  0-C , 18-H ) :   0.9154 B(  1-C ,  2-H ) :   0.8641 B(  1-C ,  3-C ) :   0.9926 
B(  1-C , 11-O ) :   1.0257 B(  3-C ,  4-H ) :   0.8815 B(  3-C ,  5-C ) :   0.9947 
B(  3-C , 15-O ) :   1.0260 B(  5-C ,  6-H ) :   0.8936 B(  5-C ,  7-C ) :   0.9704 
B(  5-C , 14-O ) :   1.0421 B(  7-C ,  8-H ) :   0.8992 B(  7-C ,  9-C ) :   0.9325 
B(  7-C , 13-O ) :   1.0791 B(  9-C , 10-H ) :   0.8973 B(  9-C , 11-O ) :   0.9617 
B(  9-C , 12-O ) :   1.1576 B( 12-O , 19-H ) :   0.8350 B( 13-O , 20-H ) :   0.8073 
B( 14-O , 21-H ) :   0.8138 B( 15-O , 20-H ) :   0.1114 B( 15-O , 22-H ) :   0.8397 
B( 16-O , 23-H ) :   0.8390 

-------
TIMINGS
-------

Total SCF time: 0 days 0 hours 0 min 6 sec 

Total time                  ....       6.284 sec
Sum of individual times     ....       6.252 sec  ( 99.5%)

SCF preparation             ....       0.065 sec  (  1.0%)
Fock matrix formation       ....       5.711 sec  ( 90.9%)
  Startup                   ....       0.008 sec  (  0.1% of F)
  Split-RI-J                ....       2.913 sec  ( 51.0% of F)
  XC integration            ....       2.703 sec  ( 47.3% of F)
    XC Preparation          ....       0.000 sec  (  0.0% of XC)
    Basis function eval.    ....       1.052 sec  ( 38.9% of XC)
    Density eval.           ....       0.584 sec  ( 21.6% of XC)
    XC-Functional eval.     ....       0.153 sec  (  5.7% of XC)
    XC-Potential eval.      ....       0.602 sec  ( 22.3% of XC)
Diagonalization             ....       0.000 sec  (  0.0%)
Density matrix formation    ....       0.030 sec  (  0.5%)
Total Energy calculation    ....       0.002 sec  (  0.0%)
Population analysis         ....       0.323 sec  (  5.1%)
Orbital Transformation      ....       0.018 sec  (  0.3%)
Orbital Orthonormalization  ....       0.000 sec  (  0.0%)
DIIS solution               ....       0.081 sec  (  1.3%)
  MO trafo                  ....       0.000 sec  (  0.0 % of DIIS)
  Orb grad                  ....       0.000 sec  (  0.0 % of DIIS)
  Energy W gradient         ....       0.000 sec  (  0.0 % of DIIS)
  DIIS error                ....       0.005 sec  (  6.3 % of DIIS)
  DIIS work                 ....       0.066 sec  ( 81.8 % of DIIS)
  Form Q                    ....       0.000 sec  (  0.0 % of DIIS)
  Form QpQm                 ....       0.000 sec  (  0.0 % of DIIS)
  Exp/Cayley                ....       0.000 sec  (  0.0 % of DIIS)
  Orb update                ....       0.000 sec  (  0.0 % of DIIS)
  Wake-sleep                ....       0.001 sec  (  1.3 % of DIIS)
SOSCF solution              ....       0.023 sec  (  0.4%)
  MO trafo                  ....       0.014 sec  ( 61.2 % of SOSCF)
  Orb grad                  ....       0.000 sec  (  0.8 % of SOSCF)
  Rot update                ....       0.002 sec  (  7.6 % of SOSCF)
  Step                      ....       0.007 sec  ( 30.1 % of SOSCF)
Finished LeanSCF after   6.3 sec

Maximum memory used throughout the entire LEANSCF-calculation: 19.1 MB


-------------------------------------------------------------------------------
                          DFT DISPERSION CORRECTION                            
                                                                               
                                DFTD4 V3.4.0                                   
-------------------------------------------------------------------------------
The PBE functional is recognized
Active option DFTDOPT                   ...         5   

-------------------------   ----------------
Dispersion correction           -0.025507044
-------------------------   ----------------

------------------   -----------------
gCP correction             0.159832396
------------------   -----------------

-------------------------   --------------------
FINAL SINGLE POINT ENERGY      -685.694463727590
-------------------------   --------------------


------------------------------------------------------------------------------
                              ORCA PROPERTY CALCULATIONS
------------------------------------------------------------------------------

GBWName                                 ... sp.gbw
Number of atoms                         ...     24
Number of basis functions               ...    192
Max core memory                         ...   1024 MB

Electric properties:
Dipole moment                           ... YES
Quadrupole moment                       ...  NO
Static polarizability (Dipole/Dipole)   ...  NO
Static polarizability (Dipole/Quad.)    ...  NO
Static polarizability (Quad./Quad.)     ...  NO
Static polarizability (Velocity)        ...  NO

Atomic electric properties:
Dipole moment                           ...  NO
Quadrupole moment                       ...  NO
Static polarizability                   ...  NO

Choice of electric origin               ... Center of mass
Position of electric origin             ...    -0.000006     0.000002     0.000005

General magnetic properties:
Magnetizability                         ...  NO

EPR properties:
g-Tensor (aka g-matrix)                 ...  NO
Zero-Field splitting spin-orbit         ...  NO
Zero-field splitting spin-spin          ...  NO
Hyperfine couplings                     ...  NO (   0 nuclei)
Quadrupole couplings                    ...  NO (   0 nuclei)
Contact density                         ...  NO (   0 nuclei)

NMR properties:
Chemical shifts                         ...  NO (   0 nuclei)
Spin-rotation constants                 ...  NO (   0 nuclei)
Spin-spin couplings                     ...  NO (   0 nuclei,    0 pairs)

Choice of magnetic origin               ... GIAO
Position of magnetic origin             ...     0.000000     0.000000     0.000000

Properties with geometric perturbations:
SCF Hessian                             ...  NO
IR spectrum                             ...  NO
VCD spectrum                            ...  NO
X-ray spectroscopy properties:
SCF XES/XAS/RIXS spectra                ...  NO


-------------
DIPOLE MOMENT
-------------

Method             : SCF
Type of density    : Electron Density
Multiplicity       :   1
Irrep              :   0
Energy             :  -685.8287890795859312 Eh
Relativity type    : 
Basis              : AO
                                X                 Y                 Z
Electronic contribution:      2.115744627      -0.584195339      -1.203065495
Nuclear contribution   :     -2.794543901       0.984977063       1.246733474
                        -----------------------------------------
Total Dipole Moment    :     -0.678799274       0.400781724       0.043667979
                        -----------------------------------------
Magnitude (a.u.)       :      0.789494355
Magnitude (Debye)      :      2.006735174



--------------------
Rotational spectrum 
--------------------
 
Rotational constants in cm-1:             0.039320             0.029124             0.023220 
Rotational constants in MHz :          1178.782585           873.123789           696.111604 

Dipole components along the rotational axes: 
x,y,z [a.u.] :    -0.643149     0.423630    -0.173777 
x,y,z [Debye]:    -1.634754     1.076783    -0.441706 

 

Dipole moment calculation done in   0.0 sec 

Maximum memory used throughout the entire PROP-calculation: 12.7 MB

--------------------------------
SUGGESTED CITATIONS FOR THIS RUN
--------------------------------

Below you find a list of papers that are relevant to this ORCA run
We neither can nor want to force you to cite these papers, but we appreciate if you do
You receive ORCA, which is the product of decades of hard work by many enthusiastic individuals, for free
The only thing we kindly ask in return is that you cite our papers,
We deeply appreciate it, if you show your appreciation for ORCA by not just citing the generic ORCA reference.

Please note that relegating all ORCA citations to the supporting information does *not* help us.
SI sections are not indexed - citations you put there will not count into any citation statistics
But we need these citations in order to attract the funding resources that allow us to do what we are doing

Therefore, if you are a happy ORCA user, please consider citing a few of the papers listed below in the main body of your paper

In addition to the list printed below, the program has created the file sp.bibtex that contains the list in bibtex format
You can import this file easily into all common literature databanks and citation aid programs


List of essential papers. We consider these as the minimum necessary citations

  1. Neese,F.
     Software update: the ORCA program system, version 5.0
     WIRES Comput. Molec. Sci., 2022 12(1)e1606
     doi.org/10.1002/wcms.1606

List of papers to cite with high priority. The work reported in these papers was absolutely
necessary for this run to complete.
Our perspective: the developers of density functionals and basis sets usually get cited in chemistry papers
Good! But without the algorithms to do something with them, the functionals or basis sets would not do anything.
Hence, in our opinion, the algorithm design and method developments papers are equally worthy of getting cited

  1. Neese,F.
     An improvement of the resolution of the identity approximation for the formation of the Coulomb matrix
     J. Comp. Chem., 2003 24(14)1740-1747
     doi.org/10.1002/jcc.10318
  2. Neese,F.
     The SHARK Integral Generation and Digestion System
     J. Comp. Chem., 2022  1-16
     doi.org/10.1002/jcc.26942
  3. Caldeweyher,E.; Bannwarth,C.; Grimme,S.
     Extension of the D3 dispersion coefficient model
     J. Chem. Phys., 2017 147 034112
     doi.org/10.1063/1.4993215
  4. Caldeweyher,E.; Ehlert,S.; Hansen,A.; Neugebauer,H.; Spicher,S.; Bannwarth,C.; Grimme,S.
     A generally applicable atomic-charge dependent London dispersion correction
     J. Chem. Phys., 2019 150 154122
     doi.org/10.1063/1.5090222
  5. Caldeweyher,E.; Mewes,J.; Ehlert,S.; Grimme,S.
     Extension and evaluation of the D4 London-dispersion model for periodic systems
     Phys. Chem. Chem. Phys., 2020 22(16)8499-8512
     doi.org/10.1039/D0CP00502A
  6. Wittmann,L.; Gordiy,I.; Friede,M.; Helmich-Paris,B.; Grimme,S.; Hansen,A.; Bursch,M.
     Extension of the D3 and D4 London Dispersion Corrections to the full Actinides Series
     Phys. Chem. Chem. Phys., 2024 26(32)21379-21394
     doi.org/https://doi.org/10.1039/D4CP01514B 

List of suggested additional citations. These are papers that are important in the 'surrounding' of 
of this run, or papers that preceded the highly important papers. If you like your results we are grateful for a citation.

  1. Neese,F.
     The ORCA program system
     WIRES Comput. Molec. Sci., 2012 2(1)73-78
     doi.org/10.1002/wcms.81
  2. Neese,F.
     Software update: the ORCA program system, version 4.0
     WIRES Comput. Molec. Sci., 2018 8(1)1-6
     doi.org/10.1002/wcms.1327
  3. Neese,F.; Wennmohs,F.; Becker,U.; Riplinger,C.
     The ORCA quantum chemistry program package
     J. Chem. Phys., 2020 152 Art. No. L224108
     doi.org/10.1063/5.0004608

List of optional additional citations

  1. Neese,F.
     Approximate second-order SCF convergence for spin unrestricted wavefunctions
     Chem. Phys. Lett., 2000 325(1-3)93-98
     doi.org/10.1016/s0009-2614(00)00662-x

Timings for individual modules:

Sum of individual times          ...        7.750 sec (=   0.129 min)
Startup calculation              ...        0.624 sec (=   0.010 min)   8.1 %
SCF iterations                   ...        7.058 sec (=   0.118 min)  91.1 %
Property calculations            ...        0.068 sec (=   0.001 min)   0.9 %
                             ****ORCA TERMINATED NORMALLY****
TOTAL RUN TIME: 0 days 0 hours 0 minutes 7 seconds 993 msec
