22
 energy: -46.970907345003 gnorm: 0.026694786123 xtb: 6.7.1 (edcfbbe)
C           -3.54572098415331        0.00011567863664        0.00014342756526
C           -2.85960726513999       -0.85276040806823       -0.85527154434235
C           -1.47094260648568       -0.84177185311007       -0.84340330572789
C           -0.73960435806860        0.00006015635655        0.00007003313015
C           -1.47086379915563        0.84192343952098        0.84357966031575
C           -2.85952784131268        0.85296657498665        0.85552097570594
Cl          -0.60924851177159        1.91652352574891        1.91972673996621
C            0.73960917820408        0.00001766233625        0.00002965500935
C            1.47090441492541       -0.84184530687329        0.84350901455773
C            2.85956801144527       -0.85292696691683        0.85535465397464
C            3.54572491440100       -0.00011931456294       -0.00009446142156
C            2.85957560154556        0.85275936560434       -0.85547796653649
C            1.47091077121851        0.84181464694690       -0.84350832259413
Cl           0.60935160295521        1.91644533509464       -1.91966964326312
Cl           0.60933423547035       -1.91639438915373        1.91974453981501
Cl          -0.60942957949065       -1.91640340950864       -1.91960016868366
H           -4.63050908463733        0.00013669463191        0.00017455102318
H           -3.38832611403529       -1.51984515015899       -1.52499216551746
H           -3.38818590270578        1.52007515983545        1.52526666527590
H            3.38825520066036       -1.52003291476017        1.52507919217697
H            4.63051295224125       -0.00017678004198       -0.00014577540472
H            3.38826638845685        1.51981174551542       -1.52525289089725
22
 energy: -46.972048042902 gnorm: 0.016588038408 xtb: 6.7.1 (edcfbbe)
C           -3.53478860563665        0.00011803550258        0.00014394019325
C           -2.84872461542313       -0.84917363581066       -0.85151792730022
C           -1.46373364930656       -0.83990021633823       -0.84180310718009
C           -0.73930717040257        0.00005697449073        0.00006779384513
C           -1.46365037512218        0.84004807039357        0.84197645040033
C           -2.84864077594133        0.84938142704494        0.85176679909136
Cl          -0.59590071420572        1.90497570860114        1.90850089208911
C            0.73931160947025        0.00001134471155        0.00002394093588
C            1.46369321541830       -0.83997311010201        0.84190650570886
C            2.84868345526156       -0.84933888232791        0.85160286585927
C            3.53479274663312       -0.00011394503600       -0.00008958990726
C            2.84869050438231        0.84917569021253       -0.85172240653774
C            1.46369945079219        0.83993533496808       -0.84191259491762
Cl           0.59600683708229        1.90489929904330       -1.90844712206350
Cl           0.59599063079035       -1.90485412808595        1.90851670149925
Cl          -0.59608869219729       -1.90486341835966       -1.90837682994304
H           -4.61535948234655        0.00014055189688        0.00017537751528
H           -3.37595681111094       -1.51368734518286       -1.51811755721983
H           -3.37580876856601        1.51391817543483        1.51839446818288
H            3.37588183817866       -1.51387312867777        1.51820877701053
H            4.61536362355619       -0.00016903876314       -0.00013939520439
H            3.37589297326105        1.51365972844386       -1.51837511792996
22
 energy: -46.972371282257 gnorm: 0.007467554469 xtb: 6.7.1 (edcfbbe)
C           -3.52656050132543        0.00012100012107        0.00014498472007
C           -2.84062316821317       -0.84826371085113       -0.85037036999291
C           -1.45679146516706       -0.84106061468307       -0.84304352831014
C           -0.73941150921735        0.00005266368934        0.00006448510584
C           -1.45670103031083        0.84120246541234        0.84321279367615
C           -2.84053217846707        0.84847283336426        0.85061946028368
Cl          -0.58445446443692        1.89662013453218        1.90075911152695
C            0.73941573769988        0.00000549439381        0.00001896410138
C            1.45674767909339       -0.84113418946903        0.84314166859363
C            2.84057892307215       -0.84842809043208        0.85045660115597
C            3.52656478641650       -0.00010870085374       -0.00008493992670
C            2.84058501299951        0.84826936722135       -0.85057243491286
C            1.45675342157897        0.84109064269975       -0.84315284821747
Cl           0.58456650037006        1.89654207870664       -1.90071463212354
Cl           0.58455262767006       -1.89650954724999        1.90077299627879
Cl          -0.58465622994844       -1.89651941964895       -1.90064050939239
H           -4.60473363034498        0.00014644756002        0.00017688535497
H           -3.36789205222281       -1.51154585876965       -1.51537103918932
H           -3.36773125696202        1.51178005864159        1.51565036518677
H            3.36781081569084       -1.51172908165899        1.51546777085915
H            4.60473793112851       -0.00015675411530       -0.00012875655811
H            3.36782127546352        1.51152627344937       -1.51562416409245
22
 energy: -46.972418908170 gnorm: 0.002679300241 xtb: 6.7.1 (edcfbbe)
C           -3.52452144950407        0.00012332237236        0.00014581385013
C           -2.83910627393791       -0.84878138473881       -0.85081269140823
C           -1.45466017025924       -0.84256910112179       -0.84460368657229
C           -0.73972926832547        0.00004895494992        0.00006168901513
C           -1.45456383083188        0.84270602530684        0.84476947189112
C           -2.83900942545926        0.84899182154777        0.85106195773838
Cl          -0.58165925873719        1.89502278682821        1.89938962959865
C            0.73973350106009        0.00000126493930        0.00001553770809
C            1.45461375948845       -0.84264195704234        0.84469874713449
C            2.83905950962786       -0.84894408433658        0.85090104269017
C            3.52452576243198       -0.00010374137699       -0.00008042456641
C            2.83906477901255        0.84878962816547       -0.85101307067660
C            1.45461884520038        0.84259335475850       -0.84471413400620
Cl           0.58177678027509        1.89494446588482       -1.89935169433211
Cl           0.58176491105049       -1.89492190048625        1.89940178110746
Cl          -0.58187385941512       -1.89493134601252       -1.89927624435825
H           -4.60274535576051        0.00015110321991        0.00017878137636
H           -3.36737298963127       -1.51206224346028       -1.51565656820819
H           -3.36720155732510        1.51230001660686        1.51593777073089
H            3.36728686107274       -1.51224398484215        1.51575718073041
H            4.60274967454702       -0.00014792514099       -0.00012105144336
H            3.36729627998770        1.51204841603853       -1.51590697387216
22
 energy: -46.972427141069 gnorm: 0.000368168127 xtb: 6.7.1 (edcfbbe)
C           -3.52419896562096        0.00012537381385        0.00014667531389
C           -2.83930473204768       -0.84919259012356       -0.85121084014603
C           -1.45424981503952       -0.84341763411020       -0.84545756892753
C           -0.74001722828014        0.00004542216723        0.00005910141101
C           -1.45414814014280        0.84355003824607        0.84562007925134
C           -2.83920251121403        0.84940429058717        0.85146038662300
Cl          -0.58162386194652        1.89503911432025        1.89952254303704
C            0.74002150142497       -0.00000229656529        0.00001283740157
C            1.45420110139161       -0.84349073953503        0.84554898612200
C            2.83925568327815       -0.84935428527550        0.85130076174041
C            3.52420327359087       -0.00009979107385       -0.00007690463111
C            2.83926014738428        0.84920339648168       -0.85140955561444
C            1.45420545028750        0.84343809482084       -0.84556738744531
Cl           0.58174664153002        1.89495965115686       -1.89949157259399
Cl           0.58173665457010       -1.89494721888051        1.89953343343910
Cl          -0.58185082442265       -1.89495609885248       -1.89941435604060
H           -4.60286053247735        0.00015547986290        0.00018075319981
H           -3.36841118300647       -1.51254030406699       -1.51611162628450
H           -3.36822984477947        1.51278180466392        1.51639440609940
H            3.36832072646902       -1.51272038405212        1.51621615260134
H            4.60286483921322       -0.00013955971110       -0.00011370020092
H            3.36832884440517        1.51253172818562       -1.51635974022803
22
 energy: -46.972427356064 gnorm: 0.000118807036 xtb: 6.7.1 (edcfbbe)
C           -3.52436659969494        0.00012691528998        0.00014729162216
C           -2.83966422514797       -0.84923819990385       -0.85128814649060
C           -1.45445731763791       -0.84347959829324       -0.84553506530536
C           -0.74012702572213        0.00004273993390        0.00005721617142
C           -1.45435183099045        0.84360870333728        0.84569519969279
C           -2.83955810047443        0.84945092500056        0.85153789312261
Cl          -0.58221394536717        1.89527277661334        1.89977267074626
C            0.74013131679586       -0.00000509695224        0.00001075204985
C            1.45440699342749       -0.84355242834683        0.84562437253533
C            2.83961353231132       -0.84939883482315        0.85137964722421
C            3.52437089646307       -0.00009651361675       -0.00007396353920
C            2.83961737985635        0.84925078967643       -0.85148578759296
C            1.45441074209395        0.84349642150649       -0.84564524160847
Cl           0.58234053192368        1.89519278749716       -1.89974639906149
Cl           0.58233192322984       -1.89518779633141        1.89978238056802
Cl          -0.58244991188802       -1.89519570324374       -1.89966841637134
H           -4.60321788155750        0.00015869261710        0.00018228606832
H           -3.36899183954586       -1.51255663790518       -1.51619239006702
H           -3.36880327475235        1.51280090166163        1.51647631780546
H            3.36889834495824       -1.51273557009313        1.51629971315127
H            4.60322217715332       -0.00013367237272       -0.00010855900855
H            3.36890533913293        1.51255189080812       -1.51643890758524
22
 energy: -46.972427378906 gnorm: 0.000018024451 xtb: 6.7.1 (edcfbbe)
C           -3.52433053913516        0.00012809374891        0.00014778857618
C           -2.83961709839841       -0.84920830540371       -0.85128199844251
C           -1.45444131348304       -0.84343434295784       -0.84550667932551
C           -0.74012176581149        0.00004068220816        0.00005576784809
C           -1.45433288990891        0.84356092894230        0.84566498509791
C           -2.83950793413060        0.84942179372933        0.85153190206448
Cl          -0.58219232821328        1.89520327190909        1.89973401881944
C            0.74012605760385       -0.00000730026844        0.00000910563264
C            1.45438975055250       -0.84350748864691        0.84559384725943
C            2.83956512458577       -0.84936844805121        0.85137438746079
C            3.52433483389833       -0.00009424747229       -0.00007196010047
C            2.83956849464446        0.84922234883387       -0.85147872004747
C            1.45439303869382        0.84344891252499       -0.84561659304600
Cl           0.58232178958107        1.89512258603213       -1.89971161303754
Cl           0.58231424437831       -1.89512330628003        1.89974307757639
Cl          -0.58243511551014       -1.89513073892660       -1.89963275513358
H           -4.60314249865731        0.00016120572124        0.00018341758474
H           -3.36892543641222       -1.51249411913720       -1.51617653983821
H           -3.36873127887393        1.51274044414431        1.51646134255302
H            3.36882958731303       -1.51267196306397        1.51628619277842
H            4.60314679346842       -0.00012890444275       -0.00010437160158
H            3.36883570838226        1.51249238891639       -1.51642173855123
