
                                 *****************
                                 * O   R   C   A *
                                 *****************

                                            #,                                       
                                            ###                                      
                                            ####                                     
                                            #####                                    
                                            ######                                   
                                           ########,                                 
                                     ,,################,,,,,                         
                               ,,#################################,,                 
                          ,,##########################################,,             
                       ,#########################################, ''#####,          
                    ,#############################################,,   '####,        
                  ,##################################################,,,,####,       
                ,###########''''           ''''###############################       
              ,#####''   ,,,,##########,,,,          '''####'''          '####       
            ,##' ,,,,###########################,,,                        '##       
           ' ,,###''''                  '''############,,,                           
         ,,##''                                '''############,,,,        ,,,,,,###''
      ,#''                                            '''#######################'''  
     '                                                          ''''####''''         
             ,#######,   #######,   ,#######,      ##                                
            ,#'     '#,  ##    ##  ,#'     '#,    #''#        ,####,   ,####,        
            ##       ##  ##   ,#'  ##            #'  '#       #'       #'  '#        
            ##       ##  #######   ##           ,######,      #####,   #    #        
            '#,     ,#'  ##    ##  '#,     ,#' ,#      #,     #,   #   #,  ,#        
             '#######'   ##     ##  '#######'  #'      '#     '####' # '####'        



                #########################################################
                #                        -***-                          #
                #          Department of theory and spectroscopy        #
                #                                                       #
                #                      Frank Neese                      #
                #                                                       #
                #     Directorship, Architecture, Infrastructure        #
                #                    SHARK, DRIVERS                     #
                #        Core code/Algorithms in most modules           #
                #                                                       #
                #        Max Planck Institute fuer Kohlenforschung      #
                #                Kaiser Wilhelm Platz 1                 #
                #                 D-45470 Muelheim/Ruhr                 #
                #                      Germany                          #
                #                                                       #
                #                  All rights reserved                  #
                #                        -***-                          #
                #########################################################


                         Program Version 6.0.0  -   RELEASE  -


 With contributions from (in alphabetic order):
   Daniel Aravena         : Magnetic Suceptibility
   Michael Atanasov       : Ab Initio Ligand Field Theory (pilot matlab implementation)
   Alexander A. Auer      : GIAO ZORA, VPT2 properties, NMR spectrum
   Ute Becker             : All parallelization in ORCA, NUMFREQ, NUMCALC
   Giovanni Bistoni       : ED, misc. LED, open-shell LED, HFLD
   Martin Brehm           : Molecular dynamics
   Dmytro Bykov           : pre 5.0 version of the SCF Hessian
   Marcos Casanova-Páez   : Triplet and SCS-CIS(D). UHF-(DLPNO)-IP/EA/STEOM-CCSD. UHF-CVS-IP/STEOM-CCSD
   Vijay G. Chilkuri      : MRCI spin determinant printing, contributions to CSF-ICE
   Pauline Colinet        : FMM embedding
   Dipayan Datta          : RHF DLPNO-CCSD density
   Achintya Kumar Dutta   : EOM-CC, STEOM-CC
   Nicolas Foglia         : Exact transition moments, OPA infrastructure, MCD improvements
   Dmitry Ganyushin       : Spin-Orbit,Spin-Spin,Magnetic field MRCI
   Miquel Garcia          : C-PCM and meta-GGA Hessian, CCSD/C-PCM, Gaussian charge scheme
   Tiago L. C. Gouveia    : GS-ROHF, GS-ROCIS
   Yang Guo               : DLPNO-NEVPT2, F12-NEVPT2, CIM, IAO-localization
   Andreas Hansen         : Spin unrestricted coupled pair/coupled cluster methods
   Ingolf Harden          : AUTO-CI MPn and infrastructure 
   Benjamin Helmich-Paris : MC-RPA, TRAH-(SCF,CASSCF), AVAS, COSX integrals, SCF dyn. polar.
   Lee Huntington         : MR-EOM, pCC
   Robert Izsak           : Overlap fitted RIJCOSX, COSX-SCS-MP3, EOM
   Riya Kayal             : Wick's Theorem for AUTO-CI, AUTO-CI UHF-CCSDT
   Emily Kempfer          : AUTO-CI, RHF CISDT and CCSDT
   Christian Kollmar      : KDIIS, OOCD, Brueckner-CCSD(T), CCSD density, CASPT2, CASPT2-K, improved NEVPT2
   Axel Koslowski         : Symmetry handling
   Simone Kossmann        : Meta GGA functionals, TD-DFT gradient, OOMP2, (MP2 Hessian; deprecated post 5.0)
   Lucas Lang             : DCDCAS
   Marvin Lechner         : AUTO-CI (C++ implementation), FIC-MRCC
   Spencer Leger          : CASSCF response
   Dagmar Lenk            : GEPOL surface, SMD, ORCA-2-JSON
   Dimitrios Liakos       : Extrapolation schemes; Compound Job, initial MDCI parallelization
   Dimitrios Manganas     : Further ROCIS development; embedding schemes. LFT, Crystal Embedding
   Dimitrios Pantazis     : SARC Basis sets
   Anastasios Papadopoulos: AUTO-CI, single reference methods and gradients
   Taras Petrenko         : pre 6.0 DFT Hessian and TD-DFT gradient, (ASA, deprecated), ECA, 1-Electron XAS/XES, NRVS
   Peter Pinski           : DLPNO-MP2, DLPNO-MP2 Gradient
   Christoph Reimann      : Effective Core Potentials
   Marius Retegan         : Local ZFS, SOC
   Christoph Riplinger    : Optimizer, TS searches, QM/MM, DLPNO-CCSD(T), (RO)-DLPNO pert. Triples
   Michael Roemelt        : Original ROCIS implementation
   Masaaki Saitow         : Open-shell DLPNO-CCSD energy and density
   Barbara Sandhoefer     : DKH picture change effects
   Kantharuban Sivalingam : CASSCF convergence/infrastructure, NEVPT2 and variants, FIC-MRCI
   Bernardo de Souza      : ESD, SOC TD-DFT
   Georgi Stoychev        : AutoAux, RI-MP2 NMR, DLPNO-MP2 response, X2C
   Van Anh Tran           : RI-MP2 g-tensors
   Willem Van den Heuvel  : Paramagnetic NMR
   Zikuan Wang            : NOTCH, Electric field optimization 
   Frank Wennmohs         : Technical directorship and infrastructure
   Hang Xu                : AUTO-CI-Response properties 


 We gratefully acknowledge several colleagues who have allowed us to
 interface, adapt or use parts of their codes:
   Stefan Grimme, W. Hujo, H. Kruse, P. Pracht,  : VdW corrections, initial TS optimization,
                  C. Bannwarth, S. Ehlert,         DFT functionals, gCP, sTDA/sTD-DF
                  L. Wittmann, M. Mueller
   Ed Valeev, F. Pavosevic, A. Kumar             : LibInt (2-el integral package), F12 methods
   Garnet Chan, S. Sharma, J. Yang, R. Olivares  : DMRG
   Ulf Ekstrom                                   : XCFun DFT Library
   Mihaly Kallay                                 : mrcc  (arbitrary order and MRCC methods)
   Frank Weinhold                                : gennbo (NPA and NBO analysis)
   Simon Mueller                                 : openCOSMO-RS
   Christopher J. Cramer and Donald G. Truhlar   : smd solvation model
   Lars Goerigk                                  : TD-DFT with DH, B97 family of functionals
   V. Asgeirsson, H. Jonsson                     : NEB implementation
   FAccTs GmbH                                   : IRC, NEB, NEB-TS, DLPNO-Multilevel, CI-OPT
                                                   MM, QMMM, 2- and 3-layer-ONIOM, Crystal-QMMM,
                                                   LR-CPCM, SF, NACMEs, symmetry and pop. for TD-DFT,
                                                   nearIR, NL-DFT gradient (VV10), updates on ESD,
                                                   ML-optimized integration grids, MBIS, APM,
                                                   GOAT, DOCKER, SOLVATOR, interface openCOSMO-RS
   S Lehtola, MJT Oliveira, MAL Marques          : LibXC Library
   Liviu Ungur et al                             : ANISO software


 Your calculation uses the libint2 library for the computation of 2-el integrals
 For citations please refer to: http://libint.valeyev.net

 Your ORCA version has been built with support for libXC version: 6.2.2
 For citations please refer to: https://libxc.gitlab.io

 This ORCA versions uses:
   CBLAS   interface :  Fast vector & matrix operations
   LAPACKE interface :  Fast linear algebra routines
   SCALAPACK package :  Parallel linear algebra routines
   Shared memory     :  Shared parallel matrices
   BLAS/LAPACK       :  OpenBLAS 0.3.27  USE64BITINT DYNAMIC_ARCH NO_AFFINITY SkylakeX SINGLE_THREADED
        Core in use  :  SkylakeX
   Copyright (c) 2011-2014, The OpenBLAS Project




***************************************
The coordinates will be read from file: vacuum_censo.xyz
***************************************


Your calculation utilizes the geometrical counterpoise correction gCP
Please cite in your paper:
H.Kruse, S. Grimme J.Chem.Phys., 136, (2012), 154101 
   

Your calculation utilizes the atom-pairwise dispersion correction
based on EEQ partial charges (D4)


================================================================================

----- Orbital basis set information -----
Your calculation utilizes the basis: def2-TZVP
   F. Weigend and R. Ahlrichs, Phys. Chem. Chem. Phys. 7, 3297 (2005).

----- AuxJ basis set information -----
Your calculation utilizes the basis: def2-mTZVPP/J
   Stefan Grimme, Andreas Hansen, Sebastian Ehlert, and Jan-Michael Mewes 
   J. Chem. Phys. 154, 000000 (2021). DOI: 10.1063/5.0040021

================================================================================
                                        WARNINGS
                       Please study these warnings very carefully!
================================================================================

Using LibXC functional ID 497 : Re-regularized SCAN exchange by Furness et al
[ 1]  J. W. Furness, A. D. Kaplan, J. Ning, J. P. Perdew, and J. Sun.,  J. Phys. Chem. Lett. 11, 8208-8215 (2020)
[ 2]  J. W. Furness, A. D. Kaplan, J. Ning, J. P. Perdew, and J. Sun.,  J. Phys. Chem. Lett. 11, 9248-9248 (2020)
Using LibXC functional ID 498 : Re-regularized SCAN correlation by Furness et al
[ 1]  J. W. Furness, A. D. Kaplan, J. Ning, J. P. Perdew, and J. Sun.,  J. Phys. Chem. Lett. 11, 8208-8215 (2020)
[ 2]  J. W. Furness, A. D. Kaplan, J. Ning, J. P. Perdew, and J. Sun.,  J. Phys. Chem. Lett. 11, 9248-9248 (2020)
Using LibXC functional ID 497 : Re-regularized SCAN exchange by Furness et al
[ 1]  J. W. Furness, A. D. Kaplan, J. Ning, J. P. Perdew, and J. Sun.,  J. Phys. Chem. Lett. 11, 8208-8215 (2020)
[ 2]  J. W. Furness, A. D. Kaplan, J. Ning, J. P. Perdew, and J. Sun.,  J. Phys. Chem. Lett. 11, 9248-9248 (2020)
Using LibXC functional ID 498 : Re-regularized SCAN correlation by Furness et al
[ 1]  J. W. Furness, A. D. Kaplan, J. Ning, J. P. Perdew, and J. Sun.,  J. Phys. Chem. Lett. 11, 8208-8215 (2020)
[ 2]  J. W. Furness, A. D. Kaplan, J. Ning, J. P. Perdew, and J. Sun.,  J. Phys. Chem. Lett. 11, 9248-9248 (2020)

================================================================================
                                       INPUT FILE
================================================================================
NAME = vacuum_censo.inp
|  1> ! r2SCAN-3c DEF2-TZVP FREQ
|  2> * xyzfile 0 1 vacuum_censo.xyz
|  3> 
|  4>                          ****END OF INPUT****
================================================================================

                       ****************************
                       * Single Point Calculation *
                       ****************************

---------------------------------
CARTESIAN COORDINATES (ANGSTROEM)
---------------------------------
  C      1.763135    0.632299    0.010101
  C      0.449114   -0.083639   -0.135369
  O      0.318708   -1.244680   -0.443700
  O     -0.591995    0.735528    0.152092
  C     -1.889673    0.107054    0.079828
  H      1.649588    1.713767   -0.069999
  H      2.459251    0.256564   -0.740802
  H      2.173985    0.396213    0.997141
  H     -2.069703   -0.279502   -0.926323
  H     -2.606377    0.889689    0.327376
  H     -1.953777   -0.717035    0.794948

----------------------------
CARTESIAN COORDINATES (A.U.)
----------------------------
  NO LB      ZA    FRAG     MASS         X           Y           Z
   0 C     6.0000    0    12.011    3.331842    1.194871    0.019089
   1 C     6.0000    0    12.011    0.848702   -0.158055   -0.255811
   2 O     8.0000    0    15.999    0.602270   -2.352103   -0.838471
   3 O     8.0000    0    15.999   -1.118709    1.389947    0.287413
   4 C     6.0000    0    12.011   -3.570965    0.202303    0.150853
   5 H     1.0000    0     1.008    3.117270    3.238550   -0.132279
   6 H     1.0000    0     1.008    4.647310    0.484836   -1.399913
   7 H     1.0000    0     1.008    4.108236    0.748735    1.884323
   8 H     1.0000    0     1.008   -3.911172   -0.528182   -1.750496
   9 H     1.0000    0     1.008   -4.925340    1.681269    0.618652
  10 H     1.0000    0     1.008   -3.692103   -1.355000    1.502234

--------------------------------
INTERNAL COORDINATES (ANGSTROEM)
--------------------------------
 C      0   0   0     0.000000000000     0.00000000     0.00000000
 C      1   0   0     1.503456270836     0.00000000     0.00000000
 O      2   1   0     1.208340919458   125.20945096     0.00000000
 O      2   1   3     1.355572911344   111.28270881   178.73489980
 C      4   2   1     1.443665439126   114.62468796   182.03491578
 H      1   2   3     1.090358562275   111.97413818   158.98395705
 H      1   2   3     1.090692167360   109.09627537    35.77244365
 H      1   2   3     1.094888382634   108.21056194   278.65811891
 H      5   4   2     1.092783139110   110.37512486   300.11358272
 H      5   4   2     1.089707656061   105.49561902   180.39145713
 H      5   4   2     1.092990654964   110.37714885    60.70899008

---------------------------
INTERNAL COORDINATES (A.U.)
---------------------------
 C      0   0   0     0.000000000000     0.00000000     0.00000000
 C      1   0   0     2.841120606208     0.00000000     0.00000000
 O      2   1   0     2.283433414187   125.20945096     0.00000000
 O      2   1   3     2.561661557002   111.28270881   178.73489980
 C      4   2   1     2.728132308956   114.62468796   182.03491578
 H      1   2   3     2.060479070476   111.97413818   158.98395705
 H      1   2   3     2.061109492723   109.09627537    35.77244365
 H      1   2   3     2.069039190391   108.21056194   278.65811891
 H      5   4   2     2.065060856684   110.37512486   300.11358272
 H      5   4   2     2.059249035992   105.49561902   180.39145713
 H      5   4   2     2.065453004816   110.37714885    60.70899008

---------------------
BASIS SET INFORMATION
---------------------
There are 3 groups of distinct atoms

 Group   1 Type C   : 11s6p2d1f contracted to 5s3p2d1f pattern {62111/411/11/1}
 Group   2 Type O   : 11s6p2d1f contracted to 5s3p2d1f pattern {62111/411/11/1}
 Group   3 Type H   : 5s1p contracted to 3s1p pattern {311/1}

Atom   0C    basis set group =>   1
Atom   1C    basis set group =>   1
Atom   2O    basis set group =>   2
Atom   3O    basis set group =>   2
Atom   4C    basis set group =>   1
Atom   5H    basis set group =>   3
Atom   6H    basis set group =>   3
Atom   7H    basis set group =>   3
Atom   8H    basis set group =>   3
Atom   9H    basis set group =>   3
Atom  10H    basis set group =>   3
---------------------------------
AUXILIARY/J BASIS SET INFORMATION
---------------------------------
There are 3 groups of distinct atoms

 Group   1 Type C   : 8s3p3d contracted to 6s3p3d pattern {311111/111/111}
 Group   2 Type O   : 8s3p3d contracted to 6s3p3d pattern {311111/111/111}
 Group   3 Type H   : 5s2p1d contracted to 3s1p1d pattern {311/2/1}

Atom   0C    basis set group =>   1
Atom   1C    basis set group =>   1
Atom   2O    basis set group =>   2
Atom   3O    basis set group =>   2
Atom   4C    basis set group =>   1
Atom   5H    basis set group =>   3
Atom   6H    basis set group =>   3
Atom   7H    basis set group =>   3
Atom   8H    basis set group =>   3
Atom   9H    basis set group =>   3
Atom  10H    basis set group =>   3
------------------------------------------------------------------------------
                             ORCA STARTUP CALCULATIONS
                           -- RI-GTO INTEGRALS CHOSEN --
------------------------------------------------------------------------------
------------------------------------------------------------------------------
                   ___                                                        
                  /   \      - P O W E R E D   B Y -                         
                 /     \                                                     
                 |  |  |   _    _      __       _____    __    __             
                 |  |  |  | |  | |    /  \     |  _  \  |  |  /  |          
                  \  \/   | |  | |   /    \    | | | |  |  | /  /          
                 / \  \   | |__| |  /  /\  \   | |_| |  |  |/  /          
                |  |  |   |  __  | /  /__\  \  |    /   |      \           
                |  |  |   | |  | | |   __   |  |    \   |  |\   \          
                \     /   | |  | | |  |  |  |  | |\  \  |  | \   \       
                 \___/    |_|  |_| |__|  |__|  |_| \__\ |__|  \__/        
                                                                              
                      - O R C A' S   B I G   F R I E N D -                    
                                      &                                       
                       - I N T E G R A L  F E E D E R -                       
                                                                              
 v1 FN, 2020, v2 2021, v3 2022-2024                                           
------------------------------------------------------------------------------


----------------------
SHARK INTEGRAL PACKAGE
----------------------

Number of atoms                             ...     11
Number of basis functions                   ...    191
Number of shells                            ...     79
Maximum angular momentum                    ...      3
Integral batch strategy                     ... SHARK/LIBINT Hybrid
RI-J (if used) integral strategy            ... SPLIT-RIJ (Revised 2003 algorithm where possible)
Printlevel                                  ...      1
Contraction scheme used                     ... SEGMENTED contraction
Prescreening option                         ... SCHWARTZ
   Thresh                                   ... 1.000e-10
   Tcut                                     ... 1.000e-11
   Tpresel                                  ... 1.000e-11 
Coulomb Range Separation                    ... NOT USED
Exchange Range Separation                   ... NOT USED
Multipole approximations                    ... NOT USED
Finite Nucleus Model                        ... NOT USED
CABS basis                                  ... NOT available
Auxiliary Coulomb fitting basis             ... AVAILABLE
   # of basis functions in Aux-J            ...    216
   # of shells in Aux-J                     ...     90
   Maximum angular momentum in Aux-J        ...      2
Auxiliary J/K fitting basis                 ... NOT available
Auxiliary Correlation fitting basis         ... NOT available
Auxiliary 'external' fitting basis          ... NOT available

Checking pre-screening integrals            ... done (  0.0 sec) Dimension = 79
Check shell pair data                       ... done (  0.0 sec)
Shell pair information
Shell pair cut-off parameter TPreSel        ...   1.0e-11
Total number of shell pairs                 ...      3160
Shell pairs after pre-screening             ...      3002
Total number of primitive shell pairs       ...      9444
Primitive shell pairs kept                  ...      7058
          la=0 lb=0:    872 shell pairs
          la=1 lb=0:    853 shell pairs
          la=1 lb=1:    226 shell pairs
          la=2 lb=0:    409 shell pairs
          la=2 lb=1:    208 shell pairs
          la=2 lb=2:     55 shell pairs
          la=3 lb=0:    209 shell pairs
          la=3 lb=1:    105 shell pairs
          la=3 lb=2:     50 shell pairs
          la=3 lb=3:     15 shell pairs

Calculating one electron integrals          ... done (  0.0 sec)
Calculating RI/J V-Matrix + Cholesky decomp.... done (  0.0 sec)
Calculating Nuclear repulsion               ... done (  0.0 sec) ENN=    181.223059946709 Eh

Diagonalization of the overlap matrix:
Smallest eigenvalue                        ... 3.718e-04
Time for diagonalization                   ...    0.003 sec
Threshold for overlap eigenvalues          ... 1.000e-07
Number of eigenvalues below threshold      ... 0
Time for construction of square roots      ...    0.014 sec
Total time needed                          ...    0.025 sec

-------------------
DFT GRID GENERATION
-------------------

General Integration Accuracy     IntAcc      ... 4.388
Radial Grid Type                 RadialGrid  ... OptM3 with GC (2021)
Angular Grid (max. ang.)         AngularGrid ... 4 (Lebedev-302)
Angular grid pruning method      GridPruning ... 4 (adaptive)
Weight generation scheme         WeightScheme... mBecke (2022)
Basis function cutoff            BFCut       ... 1.0000e-10
Integration weight cutoff        WCut        ... 1.0000e-14
Partially contracted basis set               ... off
Rotationally invariant grid construction     ... off
Angular grids for H and He will be reduced by one unit

Total number of grid points                  ...    49863
Total number of batches                      ...      784
Average number of points per batch           ...       63
Average number of grid points per atom       ...     4533
Initializing property integral containers    ... done (  0.0 sec)

SHARK setup successfully completed in   0.7 seconds

Maximum memory used throughout the entire STARTUP-calculation: 25.3 MB
-------------------------------------------------------------------------------
                                 ORCA GUESS
                   Start orbitals & Density for SCF / CASSCF
-------------------------------------------------------------------------------

------------
SCF SETTINGS
------------
Hamiltonian:
 Density Functional     Method          .... DFT(GTOs)
  Functional kind                       .... Exchange
  Functional name                       .... Re-regularized SCAN exchange by Furness et al
  Functional family                     .... MGGA
  Functional refs                              
    [ 0] J. W. Furness, A. D. Kaplan, J. Ning, J. P. Perdew, and J. Sun.,  J. Phys. Chem. Lett. 11, 8208-8215 (2020), doi: 10.1021/acs.jpclett.0c02405
    [ 1] J. W. Furness, A. D. Kaplan, J. Ning, J. P. Perdew, and J. Sun.,  J. Phys. Chem. Lett. 11, 9248-9248 (2020), doi: 10.1021/acs.jpclett.0c03077
  Functional external parameters        .... 6
    Parameter  0 _c1        =  6.670000e-01 : c1 parameter        
    Parameter  1 _c2        =  8.000000e-01 : c2 parameter        
    Parameter  2 _d         =  1.240000e+00 : d parameter         
    Parameter  3 _k1        =  6.500000e-02 : k1 parameter        
    Parameter  4 _eta       =  1.000000e-03 : eta parameter       
    Parameter  5 _dp2       =  3.610000e-01 : dp2 parameter       
  Functional kind                       .... Correlation
  Functional name                       .... Re-regularized SCAN correlation by Furness et al
  Functional family                     .... MGGA
  Functional refs                              
    [ 0] J. W. Furness, A. D. Kaplan, J. Ning, J. P. Perdew, and J. Sun.,  J. Phys. Chem. Lett. 11, 8208-8215 (2020), doi: 10.1021/acs.jpclett.0c02405
    [ 1] J. W. Furness, A. D. Kaplan, J. Ning, J. P. Perdew, and J. Sun.,  J. Phys. Chem. Lett. 11, 9248-9248 (2020), doi: 10.1021/acs.jpclett.0c03077
  Functional external parameters        .... 1
    Parameter  0 _eta       =  1.000000e-03 : Regularization parameter
 Gradients option       PostSCFGGA      .... off
 RI-approximation to the Coulomb term is turned on
   Number of AuxJ basis functions       .... 216


General Settings:
 Integral files         IntName         .... vacuum_censo
 Hartree-Fock type      HFTyp           .... RHF
 Total Charge           Charge          ....    0
 Multiplicity           Mult            ....    1
 Number of Electrons    NEL             ....   40
 Basis Dimension        Dim             ....  191
 Nuclear Repulsion      ENuc            ....    181.2230599467 Eh

Convergence Acceleration:
 AO-DIIS                CNVDIIS         .... on
   Start iteration      DIISMaxIt       ....    12
   Startup error        DIISStart       ....  0.200000
   # of expansion vecs  DIISMaxEq       ....     5
   Bias factor          DIISBfac        ....   1.050
   Max. coefficient     DIISMaxC        ....  10.000
 MO-DIIS                CNVKDIIS        .... off
 Trust-Rad. Augm. Hess. CNVTRAH         .... auto
   Auto Start mean grad. ratio tolernc. ....  1.125000
   Auto Start start iteration           ....    50
   Auto Start num. interpolation iter.  ....    10
   Max. Number of Micro iterations      ....    24
   Max. Number of Macro iterations      .... Maxiter - #DIIS iter
   Number of Davidson start vectors     ....     2
   Converg. threshold    (grad. norm)   ....   5.000e-05
   Grad. Scal. Fac. for Micro threshold ....   0.100
   Minimum threshold for Micro iter.    ....   1.000e-02
   NR start threshold (gradient norm)   ....   1.000e-04
   Initial trust radius                 ....   0.400
   Minimum AH scaling param. (alpha)    ....   1.000
   Maximum AH scaling param. (alpha)    .... 1000.000
   Quad. conv. algorithm                .... NR
   White noise on init. David. guess    .... on
   Maximum white noise                  ....   0.010
   Pseudo random numbers                .... off
   Inactive MOs                         .... canonical
   Orbital update algorithm             .... Taylor
   Preconditioner                       .... Diag
   Full preconditioner red. dimension   ....   250
   COSX micro iterations for RIJONX calc.... off
 SOSCF                  CNVSOSCF        .... on
   Start iteration      SOSCFMaxIt      ....   150
   Startup grad/error   SOSCFStart      ....  0.003300
   Hessian update       SOSCFHessUp     .... L-BFGS
 Level Shifting         CNVShift        .... on
   Level shift para.    LevelShift      ....    0.2500
   Turn off err/grad.   ShiftErr        ....    0.0010
 Zerner damping         CNVZerner       .... off
 Static damping         CNVDamp         .... on
   Fraction old density DampFac         ....    0.7000
   Max. Damping (<1)    DampMax         ....    0.9800
   Min. Damping (>=0)   DampMin         ....    0.0000
   Turn off err/grad.   DampErr         ....    0.1000

SCF Procedure:
 Maximum # iterations   MaxIter         ....   125
 SCF integral mode      SCFMode         .... Direct
   Integral package                     .... SHARK and LIBINT hybrid scheme
 Reset frequency        DirectResetFreq ....    20
 Integral Threshold     Thresh          ....  1.000e-10 Eh
 Primitive CutOff       TCut            ....  1.000e-11 Eh

Convergence Tolerance:
 Convergence Check Mode ConvCheckMode   .... Total+1el-Energy
 Convergence forced     ConvForced      .... 0
 Energy Change          TolE            ....  1.000e-06 Eh
 1-El. energy change                    ....  1.000e-03 Eh
 Orbital Gradient       TolG            ....  5.000e-05
 Orbital Rotation angle TolX            ....  5.000e-05
 DIIS Error             TolErr          ....  1.000e-06

------------------------------
INITIAL GUESS: MODEL POTENTIAL
------------------------------
Loading Hartree-Fock densities                     ... done
Calculating cut-offs                               ... done
Initializing the effective Hamiltonian             ... done
Setting up the integral package (SHARK)            ... done
Starting the Coulomb interaction                   ... done (   0.1 sec)
Making the grid                                    ... done (   0.1 sec)
Mapping shells                                     ... done
Starting the XC term evaluation                    ... done (   0.2 sec)
  promolecular density results
     # of electrons  =     39.997547058
     EX              =    -33.394135303
     EC              =     -1.315683992
     EX+EC           =    -34.709819294
Transforming the Hamiltonian                       ... done (   0.0 sec)
Diagonalizing the Hamiltonian                      ... done (   0.0 sec)
Back transforming the eigenvectors                 ... done (   0.0 sec)
Now organizing SCF variables                       ... done
                      ------------------
                      INITIAL GUESS DONE (   0.4 sec)
                      ------------------
             **** ENERGY FILE WAS UPDATED (vacuum_censo.en.tmp) ****
Finished Guess after   0.7 sec
Maximum memory used throughout the entire GUESS-calculation: 15.2 MB

-------------------------------------------------------------------------------------------
                                      ORCA LEAN-SCF
                              memory conserving SCF solver
-------------------------------------------------------------------------------------------

----------------------------------------D-I-I-S--------------------------------------------
Iteration    Energy (Eh)           Delta-E    RMSDP     MaxDP     DIISErr   Damp  Time(sec)
-------------------------------------------------------------------------------------------
               ***  Starting incremental Fock matrix formation  ***
    1    -268.1895706351094759     0.00e+00  1.81e-03  5.78e-02  2.80e-01  0.700   1.5
    2    -268.2723355002190146    -8.28e-02  1.18e-03  3.11e-02  9.89e-02  0.700   1.4
                               ***Turning on AO-DIIS***
    3    -268.2992308671199453    -2.69e-02  4.50e-04  9.12e-03  3.89e-02  0.700   1.4
    4    -268.3170190247466280    -1.78e-02  6.96e-04  1.52e-02  1.49e-02  0.000   1.3
    5    -268.3572345289925352    -4.02e-02  2.21e-04  5.80e-03  9.77e-03  0.000   1.3
                              *** Initializing SOSCF ***
---------------------------------------S-O-S-C-F--------------------------------------
Iteration    Energy (Eh)           Delta-E    RMSDP     MaxDP     MaxGrad    Time(sec)
--------------------------------------------------------------------------------------
    6    -268.3575706296463750    -3.36e-04  7.78e-05  1.69e-03  3.23e-03     1.3
               *** Restarting incremental Fock matrix formation ***
    7    -268.3575868551497479    -1.62e-05  7.98e-05  2.26e-03  8.71e-04     1.5
    8    -268.3575503769337729     3.65e-05  4.93e-05  1.56e-03  2.49e-03     1.3
    9    -268.3575950716772240    -4.47e-05  1.40e-05  4.01e-04  1.82e-04     1.3
   10    -268.3575936045965591     1.47e-06  9.40e-06  2.75e-04  3.76e-04     1.2
   11    -268.3575956063081094    -2.00e-06  2.53e-06  5.61e-05  1.99e-05     1.2
   12    -268.3575955983043286     8.00e-09  1.34e-06  3.33e-05  2.75e-05     1.2
                 **** Energy Check signals convergence ****

               *****************************************************
               *                     SUCCESS                       *
               *           SCF CONVERGED AFTER  12 CYCLES          *
               *****************************************************

             **** ENERGY FILE WAS UPDATED (vacuum_censo.en.tmp) ****

----------------
TOTAL SCF ENERGY
----------------

Total Energy       :       -268.35759559830433 Eh           -7302.38142 eV

Components:
Nuclear Repulsion  :        181.22305994670936 Eh            4931.33017 eV
Electronic Energy  :       -449.58065554501371 Eh          -12233.71159 eV
One Electron Energy:       -724.13762022608478 Eh          -19704.78642 eV
Two Electron Energy:        274.55696468107107 Eh            7471.07483 eV

Virial components:
Potential Energy   :       -535.53301952727122 Eh          -14572.59432 eV
Kinetic Energy     :        267.17542392896689 Eh            7270.21290 eV
Virial Ratio       :          2.00442470213747

DFT components:
N(Alpha)           :       20.000011015170 electrons
N(Beta)            :       20.000011015170 electrons
N(Total)           :       40.000022030341 electrons
E(X)               :      -34.286625403578 Eh       
E(C)               :       -1.286673998593 Eh       
E(XC)              :      -35.573299402172 Eh       

---------------
SCF CONVERGENCE
---------------

  Last Energy change         ...   -8.0038e-09  Tolerance :   1.0000e-06
  Last MAX-Density change    ...    3.3325e-05  Tolerance :   1.0000e-05
  Last RMS-Density change    ...    1.3436e-06  Tolerance :   1.0000e-06
  Last DIIS Error            ...    3.2260e-03  Tolerance :   1.0000e-06
  Last Orbital Gradient      ...    2.7469e-05  Tolerance :   5.0000e-05
  Last Orbital Rotation      ...    2.3059e-05  Tolerance :   5.0000e-05


----------------
ORBITAL ENERGIES
----------------

  NO   OCC          E(Eh)            E(eV) 
   0   2.0000     -19.001578      -517.0592 
   1   2.0000     -18.935730      -515.2674 
   2   2.0000     -10.158327      -276.4221 
   3   2.0000     -10.086675      -274.4724 
   4   2.0000     -10.043657      -273.3018 
   5   2.0000      -1.066201       -29.0128 
   6   2.0000      -0.979464       -26.6526 
   7   2.0000      -0.735248       -20.0071 
   8   2.0000      -0.669579       -18.2202 
   9   2.0000      -0.535979       -14.5847 
  10   2.0000      -0.464325       -12.6349 
  11   2.0000      -0.455388       -12.3918 
  12   2.0000      -0.444401       -12.0928 
  13   2.0000      -0.403140       -10.9700 
  14   2.0000      -0.387970       -10.5572 
  15   2.0000      -0.371436       -10.1073 
  16   2.0000      -0.340621        -9.2688 
  17   2.0000      -0.329344        -8.9619 
  18   2.0000      -0.278555        -7.5799 
  19   2.0000      -0.243554        -6.6274 
  20   0.0000      -0.020136        -0.5479 
  21   0.0000       0.047929         1.3042 
  22   0.0000       0.074477         2.0266 
  23   0.0000       0.091181         2.4812 
  24   0.0000       0.112044         3.0489 
  25   0.0000       0.127681         3.4744 
  26   0.0000       0.127837         3.4786 
  27   0.0000       0.142829         3.8866 
  28   0.0000       0.149997         4.0816 
  29   0.0000       0.190031         5.1710 
  30   0.0000       0.203334         5.5330 
*Only the first 10 virtual orbitals were printed.

                    ********************************
                    * MULLIKEN POPULATION ANALYSIS *
                    ********************************

-----------------------
MULLIKEN ATOMIC CHARGES
-----------------------
   0 C :   -0.310825
   1 C :    0.329313
   2 O :   -0.357051
   3 O :   -0.264009
   4 C :   -0.144683
   5 H :    0.124335
   6 H :    0.132756
   7 H :    0.128661
   8 H :    0.122021
   9 H :    0.119115
  10 H :    0.120367
Sum of atomic charges:    0.0000000

--------------------------------
MULLIKEN REDUCED ORBITAL CHARGES
--------------------------------
  0 C s       :     3.251799  s :     3.251799
      pz      :     1.055048  p :     3.021637
      px      :     0.950120
      py      :     1.016469
      dz2     :     0.004628  d :     0.033715
      dxz     :     0.009628
      dyz     :     0.002285
      dx2y2   :     0.010768
      dxy     :     0.006406
      f0      :     0.000409  f :     0.003674
      f+1     :     0.000855
      f-1     :     0.000212
      f+2     :     0.000056
      f-2     :     0.000228
      f+3     :     0.000793
      f-3     :     0.001121

  1 C s       :     3.106227  s :     3.106227
      pz      :     0.763007  p :     2.281415
      px      :     0.789790
      py      :     0.728617
      dz2     :     0.019021  d :     0.257647
      dxz     :     0.035929
      dyz     :     0.052994
      dx2y2   :     0.056342
      dxy     :     0.093362
      f0      :     0.002129  f :     0.025398
      f+1     :     0.001371
      f-1     :     0.002661
      f+2     :     0.002954
      f-2     :     0.003126
      f+3     :     0.008338
      f-3     :     0.004819

  2 O s       :     3.842475  s :     3.842475
      pz      :     1.397512  p :     4.480802
      px      :     1.760198
      py      :     1.323092
      dz2     :     0.003724  d :     0.031710
      dxz     :     0.000843
      dyz     :     0.010222
      dx2y2   :     0.008441
      dxy     :     0.008479
      f0      :     0.000158  f :     0.002065
      f+1     :     0.000018
      f-1     :     0.000357
      f+2     :     0.000421
      f-2     :     0.000120
      f+3     :     0.000534
      f-3     :     0.000458

  3 O s       :     3.782879  s :     3.782879
      pz      :     1.688396  p :     4.437309
      px      :     1.184651
      py      :     1.564262
      dz2     :     0.004708  d :     0.041634
      dxz     :     0.006860
      dyz     :     0.004522
      dx2y2   :     0.008908
      dxy     :     0.016636
      f0      :     0.000262  f :     0.002187
      f+1     :     0.000363
      f-1     :     0.000170
      f+2     :     0.000115
      f-2     :     0.000307
      f+3     :     0.000437
      f-3     :     0.000533

  4 C s       :     3.241205  s :     3.241205
      pz      :     1.083827  p :     2.819981
      px      :     0.742257
      py      :     0.993897
      dz2     :     0.005726  d :     0.076239
      dxz     :     0.021572
      dyz     :     0.012205
      dx2y2   :     0.015470
      dxy     :     0.021267
      f0      :     0.001193  f :     0.007258
      f+1     :     0.000373
      f-1     :     0.000937
      f+2     :     0.000724
      f-2     :     0.000741
      f+3     :     0.001963
      f-3     :     0.001327

  5 H s       :     0.852599  s :     0.852599
      pz      :     0.005135  p :     0.023066
      px      :     0.004992
      py      :     0.012939

  6 H s       :     0.844174  s :     0.844174
      pz      :     0.008705  p :     0.023070
      px      :     0.008556
      py      :     0.005809

  7 H s       :     0.847684  s :     0.847684
      pz      :     0.011380  p :     0.023655
      px      :     0.006708
      py      :     0.005567

  8 H s       :     0.855962  s :     0.855962
      pz      :     0.011939  p :     0.022017
      px      :     0.003989
      py      :     0.006089

  9 H s       :     0.858694  s :     0.858694
      pz      :     0.005658  p :     0.022191
      px      :     0.007875
      py      :     0.008658

 10 H s       :     0.857657  s :     0.857657
      pz      :     0.008348  p :     0.021976
      px      :     0.003712
      py      :     0.009916



                     *******************************
                     * LOEWDIN POPULATION ANALYSIS *
                     *******************************

----------------------
LOEWDIN ATOMIC CHARGES
----------------------
   0 C :   -0.259349
   1 C :   -0.508586
   2 O :    0.100017
   3 O :    0.221854
   4 C :   -0.298935
   5 H :    0.130498
   6 H :    0.137403
   7 H :    0.142720
   8 H :    0.112105
   9 H :    0.110589
  10 H :    0.111684

-------------------------------
LOEWDIN REDUCED ORBITAL CHARGES
-------------------------------
  0 C s       :     2.838945  s :     2.838945
      pz      :     1.072595  p :     3.175854
      px      :     1.040645
      py      :     1.062614
      dz2     :     0.039103  d :     0.220754
      dxz     :     0.057241
      dyz     :     0.012992
      dx2y2   :     0.065314
      dxy     :     0.046104
      f0      :     0.002175  f :     0.023797
      f+1     :     0.003419
      f-1     :     0.002817
      f+2     :     0.001494
      f-2     :     0.004141
      f+3     :     0.004329
      f-3     :     0.005421

  1 C s       :     2.766671  s :     2.766671
      pz      :     0.755574  p :     2.650144
      px      :     0.929844
      py      :     0.964726
      dz2     :     0.084275  d :     0.940461
      dxz     :     0.107715
      dyz     :     0.169697
      dx2y2   :     0.230266
      dxy     :     0.348508
      f0      :     0.009271  f :     0.151310
      f+1     :     0.008579
      f-1     :     0.013369
      f+2     :     0.019576
      f-2     :     0.020034
      f+3     :     0.052995
      f-3     :     0.027487

  2 O s       :     3.405137  s :     3.405137
      pz      :     1.333987  p :     4.420386
      px      :     1.607030
      py      :     1.479370
      dz2     :     0.007985  d :     0.068220
      dxz     :     0.001495
      dyz     :     0.017175
      dx2y2   :     0.023501
      dxy     :     0.018063
      f0      :     0.000504  f :     0.006240
      f+1     :     0.000059
      f-1     :     0.000953
      f+2     :     0.001136
      f-2     :     0.000333
      f+3     :     0.001597
      f-3     :     0.001658

  3 O s       :     3.280956  s :     3.280956
      pz      :     1.568989  p :     4.381525
      px      :     1.258361
      py      :     1.554176
      dz2     :     0.011681  d :     0.109040
      dxz     :     0.019530
      dyz     :     0.007648
      dx2y2   :     0.029699
      dxy     :     0.040482
      f0      :     0.000551  f :     0.006625
      f+1     :     0.000766
      f-1     :     0.000320
      f+2     :     0.000308
      f-2     :     0.001114
      f+3     :     0.002010
      f-3     :     0.001556

  4 C s       :     2.874763  s :     2.874763
      pz      :     1.115961  p :     3.016323
      px      :     0.840570
      py      :     1.059792
      dz2     :     0.049781  d :     0.356667
      dxz     :     0.066335
      dyz     :     0.060870
      dx2y2   :     0.065732
      dxy     :     0.113949
      f0      :     0.005986  f :     0.051182
      f+1     :     0.006228
      f-1     :     0.003092
      f+2     :     0.006879
      f-2     :     0.005143
      f+3     :     0.012268
      f-3     :     0.011587

  5 H s       :     0.805553  s :     0.805553
      pz      :     0.014237  p :     0.063949
      px      :     0.013050
      py      :     0.036662

  6 H s       :     0.799094  s :     0.799094
      pz      :     0.025068  p :     0.063503
      px      :     0.021997
      py      :     0.016438

  7 H s       :     0.793663  s :     0.793663
      pz      :     0.032009  p :     0.063617
      px      :     0.016503
      py      :     0.015104

  8 H s       :     0.823899  s :     0.823899
      pz      :     0.036554  p :     0.063996
      px      :     0.010481
      py      :     0.016961

  9 H s       :     0.826719  s :     0.826719
      pz      :     0.015820  p :     0.062692
      px      :     0.020705
      py      :     0.026168

 10 H s       :     0.824429  s :     0.824429
      pz      :     0.024977  p :     0.063887
      px      :     0.009788
      py      :     0.029122



                      *****************************
                      * MAYER POPULATION ANALYSIS *
                      *****************************

  NA   - Mulliken gross atomic population
  ZA   - Total nuclear charge
  QA   - Mulliken gross atomic charge
  VA   - Mayer's total valence
  BVA  - Mayer's bonded valence
  FA   - Mayer's free valence

  ATOM       NA         ZA         QA         VA         BVA        FA
  0 C      6.3108     6.0000    -0.3108     3.8461     3.8461     0.0000
  1 C      5.6707     6.0000     0.3293     4.1517     4.1517     0.0000
  2 O      8.3571     8.0000    -0.3571     2.1259     2.1259    -0.0000
  3 O      8.2640     8.0000    -0.2640     2.0846     2.0846    -0.0000
  4 C      6.1447     6.0000    -0.1447     3.8627     3.8627     0.0000
  5 H      0.8757     1.0000     0.1243     0.9865     0.9865     0.0000
  6 H      0.8672     1.0000     0.1328     0.9861     0.9861     0.0000
  7 H      0.8713     1.0000     0.1287     0.9827     0.9827     0.0000
  8 H      0.8780     1.0000     0.1220     0.9809     0.9809     0.0000
  9 H      0.8809     1.0000     0.1191     0.9727     0.9727    -0.0000
 10 H      0.8796     1.0000     0.1204     0.9803     0.9803    -0.0000

  Mayer bond orders larger than 0.100000
B(  0-C ,  1-C ) :   0.9720 B(  0-C ,  5-H ) :   0.9641 B(  0-C ,  6-H ) :   0.9672 
B(  0-C ,  7-H ) :   0.9436 B(  1-C ,  2-O ) :   1.9822 B(  1-C ,  3-O ) :   1.1574 
B(  3-O ,  4-C ) :   0.8892 B(  4-C ,  8-H ) :   0.9729 B(  4-C ,  9-H ) :   0.9682 
B(  4-C , 10-H ) :   0.9728 

-------
TIMINGS
-------

Total SCF time: 0 days 0 hours 0 min 16 sec 

Total time                  ....      16.199 sec
Sum of individual times     ....      15.653 sec  ( 96.6%)

SCF preparation             ....       0.233 sec  (  1.4%)
Fock matrix formation       ....      14.487 sec  ( 89.4%)
  Startup                   ....       0.060 sec  (  0.4% of F)
  Split-RI-J                ....       1.373 sec  (  9.5% of F)
  XC integration            ....      12.441 sec  ( 85.9% of F)
    XC Preparation          ....       0.000 sec  (  0.0% of XC)
    Basis function eval.    ....       2.171 sec  ( 17.5% of XC)
    Density eval.           ....       3.404 sec  ( 27.4% of XC)
    XC-Functional eval.     ....       1.362 sec  ( 10.9% of XC)
    XC-Potential eval.      ....       4.582 sec  ( 36.8% of XC)
Diagonalization             ....       0.000 sec  (  0.0%)
Density matrix formation    ....       0.226 sec  (  1.4%)
Total Energy calculation    ....       0.036 sec  (  0.2%)
Population analysis         ....       0.033 sec  (  0.2%)
Orbital Transformation      ....       0.058 sec  (  0.4%)
Orbital Orthonormalization  ....       0.000 sec  (  0.0%)
DIIS solution               ....       0.304 sec  (  1.9%)
SOSCF solution              ....       0.276 sec  (  1.7%)
Finished LeanSCF after  16.3 sec

Maximum memory used throughout the entire LEANSCF-calculation: 18.0 MB

------------------------------------------------------------------------------
                         ORCA PROPERTY INTEGRAL CALCULATIONS
------------------------------------------------------------------------------

GBWName                                   ... vacuum_censo.gbw
Number of atoms                           ...     11
Number of basis functions                 ...    191
Max core memory                           ...   1024 MB

Dipole integrals                          ... YES
Quadrupole integrals                      ...  NO
Linear momentum integrals                 ...  NO
Angular momentum integrals                ...  NO
Higher moments length integrals           ...  NO
Higher moments velocity integrals         ...  NO
Kinetic energy integrals                  ...  NO
GIAO right hand sides                     ...  NO
GIAO dipole derivative integrals          ...  NO
SOC integrals                             ...  NO
EPR diamagnetic integrals (GIAO)          ...  NO
EPR gauge integrals                       ...  NO
Field gradient integrals                  ...  NO (   0 nuclei)
Spin-dipole/Fermi contact integrals       ...  NO (   0 nuclei)
Contact density integrals                 ...  NO (   0 nuclei)
Nucleus-orbit integrals                   ...  NO (   0 nuclei)
Geometric perturbations                   ... YES (  11 nuclei)

Choice of electric origin   ... Center of mass
Position of electric origin ... ( -0.0216,  0.0512, -0.1231) 
Choice of magnetic origin   ... GIAO
Position of magnetic origin ... (  0.0000,  0.0000,  0.0000) 

Calculating integrals                     ... Electric Dipole (Length)     done (  0.0 sec)
Calculating integrals                     ... Geometrical perturbation right hand sides

-----------------------
GEOMETRIC PERTURBATIONS (11 nuclei)
-----------------------

MaxCore                            ...   1024 MB
Number of batches                  ...      1

BATCH   0: Atoms    0 -   10 ( 33 perturbations)
   => H(core) and overlap derivative integrals     ... done (     0.1 sec)
   => Making and storing internal U-coefficients   ... done (     0.7 sec)
   => RI-J derivative integrals                    ... done (     1.3 sec)
   => RI-J response operators                      ... done (     0.3 sec)
   => XC derivative integrals                      ... done (    75.8 sec)
   => XC response operators                        ... done (    20.3 sec)
   => Completing and storing right hand sides      ... done (     0.3 sec)
   => Total time for right hand sides = 100.5 sec

  geometrical perturbations done (100.5 sec)

Property integrals calculated in 100.5 sec

Maximum memory used throughout the entire PROPINT-calculation: 67.5 MB


-------------------------------------------------------------------------------
                          DFT DISPERSION CORRECTION                            
                                                                               
                                DFTD4 V3.4.0                                   
-------------------------------------------------------------------------------
The R2SCAN3C composite method is recognized
Using three-body term ABC
Active option DFTDOPT                   ...         5   

-------------------------   ----------------
Dispersion correction           -0.002014440
-------------------------   ----------------

------------------   -----------------
gCP correction             0.007933964
------------------   -----------------

-------------------------   --------------------
FINAL SINGLE POINT ENERGY      -268.351676073974
-------------------------   --------------------

------------------------------------------------------------------------------
                            ORCA SCF RESPONSE CALCULATION
------------------------------------------------------------------------------

GBWName                                 ... vacuum_censo.gbw
Number of atoms                         ...     11
Number of basis functions               ...    191
Max core memory                         ...   1024 MB

Electric field perturbation             ...  NO
Quadrupolar field perturbation          ...  NO
Magnetic field perturbation (no GIAO)   ...  NO
Magnetic field perturbation (with GIAO) ...  NO
Linear momentum (velocity) perturbation ...  NO
Spin-orbit coupling perturbation        ...  NO
Choice of electric origin               ... Center of mass
Position of electric origin             ...    -0.021624     0.051214    -0.123104
Choice of magnetic origin               ... GIAO
Position of magnetic origin             ...     0.000000     0.000000     0.000000
Nuclear geometric perturbations         ... YES (  33 perturbations)
Nucleus-orbit perturbations             ...  NO (   0 perturbations)
Spin-dipole/Fermi contact perturbations ...  NO (   0 perturbations)

Total number of real perturbations      ...     33
Total number of imaginary perturbations ...      0
Total number of triplet perturbations   ...      0
Total number of SOC perturbations       ...      0


                                **********************
                                * REAL PERTURBATIONS *
                                **********************



-------------------
SHARK CP-SCF DRIVER
-------------------

Dimension of the orbital basis          ...    191
Dimension of the CPSCF-problem          ...   3420
Number of operators                     ...      1
Max. number of iterations               ...    128
Convergence Tolerance                   ... 1.0e-03
Number of perturbations                 ...     33
Perturbation type                       ... REAL

----------------------------
POPLE LINEAR EQUATION SOLVER
----------------------------

  ITERATION   0:   ||err||_max =   6.5551e-01 (   7.3 sec   0/ 33 done)
  ITERATION   1:   ||err||_max =   5.0581e-02 (   7.3 sec   0/ 33 done)
  ITERATION   2:   ||err||_max =   1.8142e-02 (   7.3 sec   1/ 33 done)
  ITERATION   3:   ||err||_max =   3.4945e-03 (   8.9 sec   9/ 33 done)
  ITERATION   4:   ||err||_max =   1.2649e-03 (   7.0 sec  27/ 33 done)
  ITERATION   5:   ||err||_max =   3.5378e-04 (   1.9 sec  33/ 33 done)

CP-SCF equations solved in  43.8 sec
Response densities calculated in   0.1 sec

Maximum memory used throughout the entire SCFRESP-calculation: 35.0 MB

------------------------------------------------------------------------------
                              ORCA PROPERTY CALCULATIONS
------------------------------------------------------------------------------

GBWName                                 ... vacuum_censo.gbw
Number of atoms                         ...     11
Number of basis functions               ...    191
Max core memory                         ...   1024 MB

Electric properties:
Dipole moment                           ... YES
Quadrupole moment                       ...  NO
Static polarizability (Dipole/Dipole)   ...  NO
Static polarizability (Dipole/Quad.)    ...  NO
Static polarizability (Quad./Quad.)     ...  NO
Static polarizability (Velocity)        ...  NO

Atomic electric properties:
Dipole moment                           ...  NO
Quadrupole moment                       ...  NO
Static polarizability                   ...  NO

Choice of electric origin               ... Center of mass
Position of electric origin             ...    -0.021624     0.051214    -0.123104

General magnetic properties:
Magnetizability                         ...  NO

EPR properties:
g-Tensor (aka g-matrix)                 ...  NO
Zero-Field splitting spin-orbit         ...  NO
Zero-field splitting spin-spin          ...  NO
Hyperfine couplings                     ...  NO (   0 nuclei)
Quadrupole couplings                    ...  NO (   0 nuclei)
Contact density                         ...  NO (   0 nuclei)

NMR properties:
Chemical shifts                         ...  NO (   0 nuclei)
Spin-rotation constants                 ...  NO (   0 nuclei)
Spin-spin couplings                     ...  NO (   0 nuclei,    0 pairs)

Choice of magnetic origin               ... GIAO
Position of magnetic origin             ...     0.000000     0.000000     0.000000

Properties with geometric perturbations:
SCF Hessian                             ... YES
IR spectrum                             ... YES
VCD spectrum                            ...  NO
X-ray spectroscopy properties:
SCF XES/XAS/RIXS spectra                ...  NO


-------------
DIPOLE MOMENT
-------------

Method             : SCF
Type of density    : Electron Density
Multiplicity       :   1
Irrep              :   0
Energy             :  -268.3575955983043286 Eh
Relativity type    : 
Basis              : AO
                                X                 Y                 Z
Electronic contribution:      0.121649559      -1.288666385      -0.495087571
Nuclear contribution   :     -0.264868707       1.959107792       0.723017472
                        -----------------------------------------
Total Dipole Moment    :     -0.143219148       0.670441407       0.227929901
                        -----------------------------------------
Magnitude (a.u.)       :      0.722464840
Magnitude (Debye)      :      1.836359685



--------------------
Rotational spectrum 
--------------------
 
Rotational constants in cm-1:             0.341937             0.138151             0.102178 
Rotational constants in MHz :         10251.001371          4141.662660          3063.215618 

Dipole components along the rotational axes: 
x,y,z [a.u.] :    -0.150308     0.706032     0.029697 
x,y,z [Debye]:    -0.382052     1.794591     0.075485 

 

Dipole moment calculation done in   0.0 sec 

-----------
SCF HESSIAN
-----------

Occupied/Occupied contributions to the Hessian:
   => Occupied/Occupied contributions              ... done (  0.0 sec)
Perturbed density contributions to the Hessian:
   => Perturbed density contributions              ... done (  0.0 sec)
Explicit contributions to the Hessian:
   => Nuclear repulsion Hessian                    ... done (  0.0 sec)
   => HCore and overlap Hessian                    ... done (  3.1 sec)
   => RI-J Hessian                                 ... done (  3.2 sec)
   => XC-Hessian                                   ... done ( 30.2 sec)
   => Van der Waals-Hessian                        ... done (  1.9 sec)
   => GCP-Hessian                                  ... done (  0.0 sec)
   => Explicit contributions done
Dipole derivatives                                 ... done (  0.0 sec)
Mass weighting the Hessian           ... done
Calculating normal modes             ... done
Scaling frequencies                  ... done

-----------------------
VIBRATIONAL FREQUENCIES
-----------------------

Scaling factor for frequencies =  1.000000000  (already applied!)

     0:       0.00 cm**-1
     1:       0.00 cm**-1
     2:       0.00 cm**-1
     3:       0.00 cm**-1
     4:       0.00 cm**-1
     5:       0.00 cm**-1
     6:      77.24 cm**-1
     7:     157.05 cm**-1
     8:     192.36 cm**-1
     9:     295.30 cm**-1
    10:     432.65 cm**-1
    11:     609.48 cm**-1
    12:     644.75 cm**-1
    13:     845.58 cm**-1
    14:     990.03 cm**-1
    15:    1046.76 cm**-1
    16:    1059.55 cm**-1
    17:    1169.44 cm**-1
    18:    1205.44 cm**-1
    19:    1244.56 cm**-1
    20:    1384.35 cm**-1
    21:    1456.70 cm**-1
    22:    1467.69 cm**-1
    23:    1475.09 cm**-1
    24:    1476.55 cm**-1
    25:    1488.85 cm**-1
    26:    1778.91 cm**-1
    27:    3028.91 cm**-1
    28:    3034.36 cm**-1
    29:    3112.16 cm**-1
    30:    3112.54 cm**-1
    31:    3145.29 cm**-1
    32:    3147.69 cm**-1


------------
NORMAL MODES
------------

These modes are the Cartesian displacements weighted by the diagonal matrix
M(i,i)=1/sqrt(m[i]) where m[i] is the mass of the displaced atom
Thus, these vectors are normalized but *not* orthogonal

                  0          1          2          3          4          5    
      0       0.000000   0.000000   0.000000   0.000000   0.000000   0.000000
      1       0.000000   0.000000   0.000000   0.000000   0.000000   0.000000
      2       0.000000   0.000000   0.000000   0.000000   0.000000   0.000000
      3       0.000000   0.000000   0.000000   0.000000   0.000000   0.000000
      4       0.000000   0.000000   0.000000   0.000000   0.000000   0.000000
      5       0.000000   0.000000   0.000000   0.000000   0.000000   0.000000
      6       0.000000   0.000000   0.000000   0.000000   0.000000   0.000000
      7       0.000000   0.000000   0.000000   0.000000   0.000000   0.000000
      8       0.000000   0.000000   0.000000   0.000000   0.000000   0.000000
      9       0.000000   0.000000   0.000000   0.000000   0.000000   0.000000
     10       0.000000   0.000000   0.000000   0.000000   0.000000   0.000000
     11       0.000000   0.000000   0.000000   0.000000   0.000000   0.000000
     12       0.000000   0.000000   0.000000   0.000000   0.000000   0.000000
     13       0.000000   0.000000   0.000000   0.000000   0.000000   0.000000
     14       0.000000   0.000000   0.000000   0.000000   0.000000   0.000000
     15       0.000000   0.000000   0.000000   0.000000   0.000000   0.000000
     16       0.000000   0.000000   0.000000   0.000000   0.000000   0.000000
     17       0.000000   0.000000   0.000000   0.000000   0.000000   0.000000
     18       0.000000   0.000000   0.000000   0.000000   0.000000   0.000000
     19       0.000000   0.000000   0.000000   0.000000   0.000000   0.000000
     20       0.000000   0.000000   0.000000   0.000000   0.000000   0.000000
     21       0.000000   0.000000   0.000000   0.000000   0.000000   0.000000
     22       0.000000   0.000000   0.000000   0.000000   0.000000   0.000000
     23       0.000000   0.000000   0.000000   0.000000   0.000000   0.000000
     24       0.000000   0.000000   0.000000   0.000000   0.000000   0.000000
     25       0.000000   0.000000   0.000000   0.000000   0.000000   0.000000
     26       0.000000   0.000000   0.000000   0.000000   0.000000   0.000000
     27       0.000000   0.000000   0.000000   0.000000   0.000000   0.000000
     28       0.000000   0.000000   0.000000   0.000000   0.000000   0.000000
     29       0.000000   0.000000   0.000000   0.000000   0.000000   0.000000
     30       0.000000   0.000000   0.000000   0.000000   0.000000   0.000000
     31       0.000000   0.000000   0.000000   0.000000   0.000000   0.000000
     32       0.000000   0.000000   0.000000   0.000000   0.000000   0.000000
                  6          7          8          9         10         11    
      0      -0.004068  -0.000658  -0.001511   0.095334   0.129647   0.109192
      1      -0.000817   0.010295   0.040275  -0.108427  -0.142476   0.041819
      2       0.016296  -0.036162  -0.148192  -0.031447  -0.044799   0.042275
      3       0.001787   0.000896   0.004446  -0.029772  -0.019096   0.052789
      4      -0.002771  -0.004505  -0.021353   0.124294   0.099686  -0.085179
      5      -0.018733   0.018461   0.081600   0.033390   0.025500   0.296945
      6      -0.005228   0.001817  -0.001928  -0.166265   0.227340  -0.075926
      7       0.006520  -0.014668  -0.003457   0.134781   0.083377   0.037937
      8      -0.049686   0.056066   0.016063   0.045572   0.006077  -0.111532
      9       0.006863   0.000911   0.015719  -0.028904  -0.146142  -0.014761
     10      -0.006410  -0.003569  -0.070081   0.119196  -0.015848  -0.021662
     11       0.013429   0.014071   0.259654   0.029571   0.002765  -0.117682
     12       0.004645  -0.002718  -0.014984   0.117740  -0.214099  -0.053357
     13      -0.002036   0.010652   0.043952  -0.226934   0.012793  -0.014464
     14       0.030179  -0.045835  -0.173459  -0.065499   0.020699   0.002906
     15       0.050032  -0.010930  -0.056280   0.338623   0.557131  -0.138603
     16      -0.032355   0.005795   0.022917  -0.085926  -0.102232  -0.003237
     17      -0.512150  -0.082622  -0.312649  -0.089473  -0.116369  -0.270208
     18       0.195910  -0.016240  -0.087069  -0.017344  -0.074659  -0.193336
     19      -0.375307  -0.017021  -0.053076  -0.311313  -0.482989   0.002495
     20       0.393751  -0.036958  -0.180280  -0.034480  -0.065738  -0.226877
     21      -0.310062   0.025736   0.137420   0.078865   0.122857   0.651333
     22       0.476143   0.057893   0.226764  -0.149252  -0.254717   0.428822
     23       0.259342  -0.035985  -0.162323  -0.034238  -0.068241  -0.102027
     24      -0.017394  -0.187013   0.346672   0.315575  -0.260621  -0.191925
     25       0.013362   0.531538  -0.018549  -0.277874   0.032753  -0.047156
     26       0.028202  -0.215667  -0.213762  -0.078744   0.021851   0.040521
     27       0.011231   0.032840  -0.035720  -0.116708  -0.153961   0.011826
     28      -0.004179  -0.123299   0.132796  -0.430930   0.064079   0.025575
     29       0.056236   0.480354  -0.514118  -0.108133   0.036242   0.068316
     30       0.016191   0.141865  -0.380326   0.314545  -0.245680   0.005771
     31      -0.012395  -0.361369   0.107171  -0.260818   0.028718   0.024186
     32       0.019512  -0.465262  -0.132689  -0.090285   0.035233   0.051708
                 12         13         14         15         16         17    
      0      -0.295201  -0.155112  -0.078113   0.082966  -0.022279   0.000033
      1      -0.151663  -0.008936  -0.168315  -0.153837  -0.028976   0.000598
      2      -0.019527   0.002079  -0.059977   0.004277   0.165912   0.005307
      3      -0.104032  -0.021706   0.146776   0.021533  -0.013572  -0.000028
      4      -0.046029   0.136644   0.042719   0.026009   0.054405  -0.000918
      5       0.169799   0.053610   0.027280  -0.059609  -0.186420   0.004044
      6       0.198472  -0.038425   0.002749   0.016968   0.002894  -0.000692
      7      -0.016413   0.183105   0.124707   0.059184  -0.014000   0.000833
      8      -0.079258   0.047431   0.031001   0.029817   0.033895  -0.004141
      9       0.001287   0.063841   0.153390  -0.217673   0.059806  -0.003447
     10       0.169351  -0.291537   0.040361  -0.066510   0.006708   0.015136
     11      -0.006772  -0.083948  -0.005092   0.005425   0.026939  -0.063718
     12       0.157498   0.148610  -0.178834   0.169807  -0.044028   0.008607
     13       0.046962   0.018423  -0.104819   0.086079  -0.022533  -0.033984
     14       0.001391  -0.006345  -0.014151   0.012633  -0.001341   0.134372
     15      -0.292757   0.226698  -0.710910  -0.654779  -0.120415   0.005492
     16      -0.164842   0.024359  -0.226179  -0.225564  -0.075000   0.001019
     17      -0.166013  -0.033476   0.056751  -0.056690  -0.379267  -0.002785
     18      -0.520569  -0.381280   0.202500   0.274691  -0.492811  -0.018355
     19      -0.295390  -0.338117   0.265232   0.394290  -0.085239  -0.009516
     20      -0.155422  -0.041769   0.002320  -0.083224  -0.261601  -0.007556
     21      -0.028024  -0.120790  -0.244719   0.141689   0.607202   0.016048
     22      -0.025843  -0.199891   0.093539   0.328571   0.264449   0.006542
     23      -0.104831  -0.058863   0.070126   0.085368  -0.053840  -0.000581
     24       0.260950  -0.159404  -0.215538   0.057680  -0.011781   0.536599
     25      -0.015844   0.080626  -0.029366   0.054504  -0.011538   0.373683
     26       0.004866   0.021998  -0.026780   0.030568  -0.006921  -0.115856
     27      -0.052741   0.504390   0.028109   0.064672  -0.012362  -0.019971
     28      -0.146322   0.327439   0.072384   0.008258   0.005524   0.075985
     29      -0.005978   0.054430   0.013632  -0.010950  -0.007375  -0.296154
     30       0.342997  -0.136900  -0.224921   0.033105  -0.013209  -0.556738
     31       0.016854   0.085370  -0.050033   0.053684  -0.016952  -0.292409
     32      -0.014319   0.049319   0.030942  -0.015638   0.003787  -0.212568
                 18         19         20         21         22         23    
      0       0.013228   0.109556   0.137680   0.013077  -0.003496   0.015141
      1       0.004514  -0.065246   0.053585  -0.026838   0.025261   0.025658
      2       0.002152  -0.024632   0.020679  -0.002817   0.034750  -0.021001
      3      -0.053414  -0.428916  -0.038471  -0.020383  -0.048619  -0.029663
      4      -0.006820   0.080196   0.009033  -0.008802  -0.012087   0.005113
      5      -0.000384   0.048678   0.011260   0.000470   0.015915  -0.010001
      6       0.013778   0.059900   0.003882   0.001080   0.008403   0.003692
      7      -0.039007   0.001931  -0.013305   0.006158   0.021350   0.003627
      8      -0.011200  -0.002322  -0.004826   0.002073   0.001847   0.002327
      9      -0.032130   0.156353   0.005494   0.036034   0.024623   0.014305
     10       0.095016  -0.060940  -0.000372   0.000312  -0.003216  -0.005444
     11       0.026943  -0.027531  -0.001304  -0.002579  -0.003905   0.008935
     12       0.073811  -0.060553  -0.004909   0.075359   0.037507   0.020068
     13      -0.130971  -0.013436  -0.006168   0.019860   0.008274  -0.009291
     14      -0.037891   0.000699  -0.001917   0.000802  -0.001008   0.042564
     15       0.043302  -0.011030  -0.485343   0.215036  -0.113507  -0.274058
     16       0.011175  -0.038835  -0.027856   0.015854  -0.040622   0.007575
     17       0.005806   0.128847  -0.141667   0.142090  -0.583816   0.222810
     18       0.039830   0.389775  -0.403838  -0.180544   0.259794   0.059238
     19       0.040363   0.478194  -0.216942   0.135394   0.215772  -0.339929
     20       0.007704  -0.025231  -0.334339  -0.252002   0.164457   0.203437
     21       0.041698   0.080778  -0.521281  -0.212203   0.100737   0.184397
     22       0.038214   0.413663  -0.273573   0.293691  -0.550991  -0.012822
     23      -0.000638   0.102440   0.204332   0.163952  -0.154320  -0.091155
     24      -0.434671   0.267483   0.040910  -0.420376  -0.188025  -0.433807
     25       0.159782  -0.016678   0.012133  -0.007564   0.003099   0.197926
     26      -0.056288  -0.039338  -0.014630   0.093230   0.039831   0.025849
     27       0.623194   0.103418   0.055415  -0.393903  -0.194906  -0.133541
     28       0.351222   0.107142   0.042823  -0.369017  -0.192294   0.049373
     29       0.045263   0.020264   0.010901  -0.083577  -0.020415  -0.575667
     30      -0.422739   0.264119   0.041681  -0.407979  -0.214228   0.246022
     31       0.098345  -0.024946   0.007846   0.016972   0.021639  -0.129232
     32       0.178713  -0.007998   0.014976  -0.037252  -0.004768  -0.101797
                 24         25         26         27         28         29    
      0      -0.019292  -0.003963   0.039360  -0.002147  -0.043592  -0.000663
      1      -0.030551  -0.004590   0.061642  -0.001177  -0.013551  -0.004416
      2       0.025960   0.001489   0.012879  -0.001703  -0.024343   0.010146
      3       0.036760   0.010176  -0.141183  -0.001807   0.001298   0.000097
      4      -0.007400  -0.003873  -0.716988   0.002158   0.000144   0.000097
      5       0.015535  -0.000367  -0.190417   0.000699  -0.000394  -0.000086
      6      -0.004356  -0.003337   0.061091  -0.000075  -0.000040  -0.000023
      7      -0.003902   0.006309   0.456970  -0.000897   0.000410   0.000020
      8      -0.003766   0.001837   0.121105  -0.000238   0.000136  -0.000138
      9      -0.017296  -0.002062   0.001978   0.003017  -0.000016  -0.000013
     10       0.002265  -0.017978   0.046117   0.000409  -0.000108   0.000104
     11       0.008023  -0.004521   0.012713  -0.000101  -0.000009  -0.000350
     12      -0.021246  -0.006427  -0.021623   0.033286  -0.002114   0.007412
     13      -0.010243  -0.052086  -0.019528   0.027624  -0.001557  -0.024411
     14       0.034497  -0.012095  -0.003952   0.003751  -0.000204   0.090479
     15       0.340213   0.038962   0.191671  -0.004145  -0.057666  -0.006688
     16      -0.010982  -0.000782   0.069859   0.030242   0.475706   0.059251
     17      -0.309842  -0.016016   0.101707  -0.002890  -0.043085  -0.002545
     18      -0.057907  -0.008485  -0.134602   0.015335   0.290740   0.043918
     19       0.441460   0.038290  -0.127185  -0.007961  -0.160587  -0.024627
     20      -0.247157  -0.024180  -0.085620  -0.016694  -0.329621  -0.045537
     21      -0.237660  -0.020598  -0.025009   0.016365   0.272256  -0.030688
     22      -0.017013   0.011834   0.066860  -0.009850  -0.161732   0.017086
     23       0.108114   0.011220   0.038072   0.039529   0.665670  -0.071925
     24      -0.146521   0.099997   0.127435  -0.094078   0.005352  -0.101327
     25       0.098327   0.619324  -0.043902  -0.209701   0.012240  -0.255091
     26       0.000358  -0.268362  -0.042226  -0.573123   0.033484  -0.642731
     27       0.104061  -0.182767   0.181365  -0.301591   0.017666  -0.013764
     28       0.240493  -0.177369   0.143918   0.334858  -0.020143   0.011972
     29      -0.411766  -0.040534   0.026397   0.105331  -0.006278   0.023690
     30       0.386481   0.161135   0.129054  -0.028087   0.001697   0.027531
     31      -0.152049   0.415384  -0.052974  -0.470705   0.028042   0.531772
     32      -0.112759   0.511231   0.000280   0.420493  -0.025000  -0.451206
                 30         31         32    
      0      -0.005307  -0.002795   0.042555
      1      -0.036349   0.005218  -0.077424
      2       0.080766   0.001871  -0.031642
      3       0.001204  -0.000853   0.001261
      4       0.000120  -0.001022  -0.002369
      5       0.001212  -0.000220  -0.000842
      6      -0.000022   0.000289  -0.000091
      7      -0.000134   0.000513   0.000786
      8      -0.000088   0.000119   0.000344
      9      -0.000066  -0.000233  -0.000350
     10       0.000053   0.000270   0.000395
     11       0.000158   0.000098   0.000029
     12      -0.000705   0.042526   0.002428
     13       0.002879  -0.080447  -0.005307
     14      -0.011030  -0.025309  -0.001566
     15      -0.054349   0.005323  -0.074682
     16       0.494010  -0.047249   0.710681
     17      -0.021988   0.003950  -0.059602
     18       0.357517   0.027522  -0.437017
     19      -0.199204  -0.014477   0.229046
     20      -0.368439  -0.030269   0.477370
     21      -0.253156   0.001017  -0.002841
     22       0.136947   0.000258  -0.008785
     23      -0.586583   0.004120  -0.036437
     24       0.012066   0.057290   0.004568
     25       0.030786   0.099397   0.007044
     26       0.078105   0.313117   0.022088
     27      -0.000306  -0.574439  -0.036048
     28       0.000549   0.641630   0.040362
     29      -0.002210   0.201894   0.012782
     30      -0.003085   0.019147   0.001983
     31      -0.064418   0.216603   0.016924
     32       0.054614  -0.214343  -0.016384


-----------
IR SPECTRUM
-----------

 Mode   freq       eps      Int      T**2         TX        TY        TZ
       cm**-1   L/(mol*cm) km/mol    a.u.
----------------------------------------------------------------------------
  6:     77.24   0.000164    0.83  0.000663  (-0.000387  0.004324  0.025383)
  7:    157.05   0.000194    0.98  0.000386  (-0.000575  0.004876 -0.019023)
  8:    192.36   0.001161    5.87  0.001883  (-0.001380  0.011634 -0.041786)
  9:    295.30   0.002392   12.09  0.002528  ( 0.037899 -0.031503 -0.009968)
 10:    432.65   0.001232    6.22  0.000888  (-0.028098 -0.009944 -0.000208)
 11:    609.48   0.000826    4.17  0.000423  ( 0.007936 -0.003010  0.018725)
 12:    644.75   0.000778    3.93  0.000377  (-0.015608 -0.008639  0.007632)
 13:    845.58   0.004152   20.98  0.001532  (-0.009626  0.036279  0.011111)
 14:    990.03   0.000971    4.90  0.000306  (-0.013913 -0.010500  0.001445)
 15:   1046.76   0.012152   61.41  0.003623  ( 0.059518 -0.000188 -0.008969)
 16:   1059.55   0.003450   17.43  0.001016  (-0.025929  0.001385 -0.018488)
 17:   1169.44   0.000142    0.72  0.000038  (-0.000421 -0.001141  0.006035)
 18:   1205.44   0.000285    1.44  0.000074  ( 0.002621 -0.007827 -0.002390)
 19:   1244.56   0.064410  325.50  0.016150  (-0.122890  0.029121  0.014153)
 20:   1384.35   0.007639   38.61  0.001722  (-0.041338 -0.000898 -0.003534)
 21:   1456.70   0.001011    5.11  0.000217  (-0.014084  0.004248 -0.000524)
 22:   1467.69   0.003202   16.18  0.000681  (-0.014574 -0.016688 -0.013779)
 23:   1475.09   0.000820    4.14  0.000173  (-0.011293 -0.002055 -0.006459)
 24:   1476.55   0.003669   18.54  0.000775  ( 0.011918  0.009571 -0.023275)
 25:   1488.85   0.001733    8.76  0.000363  (-0.012657  0.013912  0.003081)
 26:   1778.91   0.049342  249.35  0.008656  ( 0.007335 -0.088977 -0.026172)
 27:   3028.91   0.005492   27.75  0.000566  ( 0.023226  0.005075 -0.000765)
 28:   3034.36   0.000612    3.09  0.000063  (-0.007005 -0.003048 -0.002136)
 29:   3112.16   0.004286   21.66  0.000430  ( 0.000906 -0.005992  0.019826)
 30:   3112.54   0.000702    3.55  0.000070  (-0.004068 -0.005457  0.004906)
 31:   3145.29   0.002640   13.34  0.000262  ( 0.009013 -0.012776 -0.004185)
 32:   3147.69   0.001499    7.58  0.000149  ( 0.003263 -0.011203 -0.003536)

* The epsilon (eps) is given for a Dirac delta lineshape.
** The dipole moment derivative (T) already includes vibrational overlap.

The first frequency considered to be a vibration is 6
The total number of vibrations considered is 27


--------------------------
THERMOCHEMISTRY AT 298.15K
--------------------------

Temperature         ...   298.15 K
Pressure            ...     1.00 atm
Total Mass          ...    74.08 AMU
Quasi RRHO          ...     True
Cut-Off Frequency   ...     1.00 cm^-1

Throughout the following assumptions are being made:
  (1) The electronic state is orbitally nondegenerate
  (2) There are no thermally accessible electronically excited states
  (3) Hindered rotations indicated by low frequency modes are not
      treated as such but are treated as vibrations and this may
      cause some error
  (4) All equations used are the standard statistical mechanics
      equations for an ideal gas
  (5) All vibrations are strictly harmonic

freq.      77.24  E(vib)   ...       0.49 
freq.     157.05  E(vib)   ...       0.40 
freq.     192.36  E(vib)   ...       0.36 
freq.     295.30  E(vib)   ...       0.27 
freq.     432.65  E(vib)   ...       0.18 
freq.     609.48  E(vib)   ...       0.10 
freq.     644.75  E(vib)   ...       0.09 
freq.     845.58  E(vib)   ...       0.04 
freq.     990.03  E(vib)   ...       0.02 
freq.    1046.76  E(vib)   ...       0.02 
freq.    1059.55  E(vib)   ...       0.02 
freq.    1169.44  E(vib)   ...       0.01 
freq.    1205.44  E(vib)   ...       0.01 
freq.    1244.56  E(vib)   ...       0.01 
freq.    1384.35  E(vib)   ...       0.00 
freq.    1456.70  E(vib)   ...       0.00 
freq.    1467.69  E(vib)   ...       0.00 
freq.    1475.09  E(vib)   ...       0.00 
freq.    1476.55  E(vib)   ...       0.00 
freq.    1488.85  E(vib)   ...       0.00 
freq.    1778.91  E(vib)   ...       0.00 
freq.    3028.91  E(vib)   ...       0.00 
freq.    3034.36  E(vib)   ...       0.00 
freq.    3112.16  E(vib)   ...       0.00 
freq.    3112.54  E(vib)   ...       0.00 
freq.    3145.29  E(vib)   ...       0.00 
freq.    3147.69  E(vib)   ...       0.00 

------------
INNER ENERGY
------------

The inner energy is: U= E(el) + E(ZPE) + E(vib) + E(rot) + E(trans)
    E(el)   - is the total energy from the electronic structure calculation
              = E(kin-el) + E(nuc-el) + E(el-el) + E(nuc-nuc)
    E(ZPE)  - the the zero temperature vibrational energy from the frequency calculation
    E(vib)  - the the finite temperature correction to E(ZPE) due to population
              of excited vibrational states
    E(rot)  - is the rotational thermal energy
    E(trans)- is the translational thermal energy

Summary of contributions to the inner energy U:
Electronic energy                ...   -268.35167607 Eh
Zero point energy                ...      0.08902916 Eh      55.87 kcal/mol
Thermal vibrational correction   ...      0.00323081 Eh       2.03 kcal/mol
Thermal rotational correction    ...      0.00141627 Eh       0.89 kcal/mol
Thermal translational correction ...      0.00141627 Eh       0.89 kcal/mol
-----------------------------------------------------------------------
Total thermal energy                   -268.25658357 Eh


Summary of corrections to the electronic energy:
(perhaps to be used in another calculation)
Total thermal correction                  0.00606335 Eh       3.80 kcal/mol
Non-thermal (ZPE) correction              0.08902916 Eh      55.87 kcal/mol
-----------------------------------------------------------------------
Total correction                          0.09509251 Eh      59.67 kcal/mol


--------
ENTHALPY
--------

The enthalpy is H = U + kB*T
                kB is Boltzmann's constant
Total thermal energy              ...   -268.25658357 Eh 
Thermal Enthalpy correction       ...      0.00094421 Eh       0.59 kcal/mol
-----------------------------------------------------------------------
Total Enthalpy                    ...   -268.25563936 Eh


Note: Only C1 symmetry has been detected, increase convergence thresholds 
      if your molecule has a higher symmetry. Symmetry factor of 1.0 is   
      used for the rotational entropy correction. 
 

Note: Rotational entropy computed according to Herzberg 
Infrared and Raman Spectra, Chapter V,1, Van Nostrand Reinhold, 1945 
Point Group:  C1, Symmetry Number:   1  
Rotational constants in cm-1:     0.341937     0.138151     0.102178 

Vibrational entropy computed according to the QRRHO of S. Grimme
Chem.Eur.J. 2012 18 9955 using a reference frequency of 100.0 cm-1


-------
ENTROPY
-------

The entropy contributions are T*S = T*(S(el)+S(vib)+S(rot)+S(trans))
     S(el)   - electronic entropy
     S(vib)  - vibrational entropy
     S(rot)  - rotational entropy
     S(trans)- translational entropy
The entropies will be listed as multiplied by the temperature to get
units of energy

Electronic entropy                ...      0.00000000 Eh      0.00 kcal/mol
Vibrational entropy               ...      0.00562698 Eh      3.53 kcal/mol
Rotational entropy                ...      0.01202874 Eh      7.55 kcal/mol
Translational entropy             ...      0.01844631 Eh     11.58 kcal/mol
-----------------------------------------------------------------------
Final entropy term                ...      0.03610202 Eh     22.65 kcal/mol

In case the symmetry of your molecule has not been determined correctly
or in case you have a reason to use a different symmetry number we print 
out the resulting rotational entropy values for sn=1,12:

 non-linear molecules -----------------------------------
|  sn= 1 | S(rot)=       0.01202874 Eh      7.55 kcal/mol|
|  sn= 2 | S(rot)=       0.01137429 Eh      7.14 kcal/mol|
|  sn= 3 | S(rot)=       0.01099145 Eh      6.90 kcal/mol|
|  sn= 4 | S(rot)=       0.01071983 Eh      6.73 kcal/mol|
|  sn= 5 | S(rot)=       0.01050914 Eh      6.59 kcal/mol|
|  sn= 6 | S(rot)=       0.01033700 Eh      6.49 kcal/mol|
|  sn= 7 | S(rot)=       0.01019145 Eh      6.40 kcal/mol|
|  sn= 8 | S(rot)=       0.01006537 Eh      6.32 kcal/mol|
|  sn= 9 | S(rot)=       0.00995416 Eh      6.25 kcal/mol|
|  sn=10 | S(rot)=       0.00985468 Eh      6.18 kcal/mol|
|  sn=11 | S(rot)=       0.00976469 Eh      6.13 kcal/mol|
|  sn=12 | S(rot)=       0.00968254 Eh      6.08 kcal/mol|
 linear molecules ---------------------------------------
|  Dinfh | S(rot)=       0.00747952 Eh      4.69 kcal/mol|
|  Cinfv | S(rot)=       0.00813398 Eh      5.10 kcal/mol|
 --------------------------------------------------------


-------------------
GIBBS FREE ENERGY
-------------------

The Gibbs free energy is G = H - T*S

Total enthalpy                    ...   -268.25563936 Eh 
Total entropy correction          ...     -0.03610202 Eh    -22.65 kcal/mol
-----------------------------------------------------------------------
Final Gibbs free energy         ...   -268.29174138 Eh

For completeness - the Gibbs free energy minus the electronic energy
G-E(el)                           ...      0.05993469 Eh     37.61 kcal/mol


Maximum memory used throughout the entire PROP-calculation: 37.7 MB

--------------------------------
SUGGESTED CITATIONS FOR THIS RUN
--------------------------------

Below you find a list of papers that are relevant to this ORCA run
We neither can nor want to force you to cite these papers, but we appreciate if you do
You receive ORCA, which is the product of decades of hard work by many enthusiastic individuals, for free
The only thing we kindly ask in return is that you cite our papers,
We deeply appreciate it, if you show your appreciation for ORCA by not just citing the generic ORCA reference.

Please note that relegating all ORCA citations to the supporting information does *not* help us.
SI sections are not indexed - citations you put there will not count into any citation statistics
But we need these citations in order to attract the funding resources that allow us to do what we are doing

Therefore, if you are a happy ORCA user, please consider citing a few of the papers listed below in the main body of your paper

In addition to the list printed below, the program has created the file vacuum_censo.bibtex that contains the list in bibtex format
You can import this file easily into all common literature databanks and citation aid programs


List of essential papers. We consider these as the minimum necessary citations

  1. Neese,F.
     Software update: the ORCA program system, version 5.0
     WIRES Comput. Molec. Sci., 2022 12(1)e1606
     doi.org/10.1002/wcms.1606
  2. Grimme,S.; Hansen,A.; Ehlert,S.; Mewes,J.
     r2SCAN-3c: A 'Swiss army knife' composite electronic-structure method
     J. Chem. Phys., 2021 154 064103
     doi.org/10.1063/5.0040021

List of papers to cite with high priority. The work reported in these papers was absolutely
necessary for this run to complete.
Our perspective: the developers of density functionals and basis sets usually get cited in chemistry papers
Good! But without the algorithms to do something with them, the functionals or basis sets would not do anything.
Hence, in our opinion, the algorithm design and method developments papers are equally worthy of getting cited

  1. Neese,F.
     An improvement of the resolution of the identity approximation for the formation of the Coulomb matrix
     J. Comp. Chem., 2003 24(14)1740-1747
     doi.org/10.1002/jcc.10318
  2. Bykov,D.; Petrenko,T.; Izsak,R.; Kossmann,S.; Becker,U.; Valeev,E.; Neese,F.
     Efficient implementation of the analytic second derivatives of Hartree-Fock and hybrid DFT energies: a detailed analysis of different approximations
     Molec. Phys., 2015 113 1961-1977
     doi.org/10.1080/00268976.2015.1025114
  3. Neese,F.
     The SHARK Integral Generation and Digestion System
     J. Comp. Chem., 2022  1-16
     doi.org/10.1002/jcc.26942
  4. Lehtola,S.; Steigemann,C.; Oliveira,M.; Marques,M.
     Recent developments in Libxc - A comprehensive library of functionals for density functional theory
     Software X, 2018 7 
     doi.org/10.1016/j.softx.2017.11.002
  5. Caldeweyher,E.; Bannwarth,C.; Grimme,S.
     Extension of the D3 dispersion coefficient model
     J. Chem. Phys., 2017 147 034112-XXXX
     doi.org/10.1063/1.4993215
  6. Caldeweyher,E.; Ehlert,S.; Hansen,A.; Neugebauer,H.; Spicher,S.; Bannwarth,C.; Grimme,S.
     A generally applicable atomic-charge dependent London dispersion correction
     J. Chem. Phys., 2019 150 154122-XXXX
     doi.org/10.1063/1.5090222
  7. Caldeweyher,E.; Mewes,J.; Ehlert,S.; Grimme,S.
     Extension and evaluation of the D4 London-dispersion model for periodic systems
     Phys. Chem. Chem. Phys., 2020 22(16)8499-8512
     doi.org/10.1039/D0CP00502A

List of suggested additional citations. These are papers that are important in the 'surrounding' of 
of this run, or papers that preceded the highly important papers. If you like your results we are grateful for a citation.

  1. Neese,F.
     The ORCA program system
     WIRES Comput. Molec. Sci., 2012 2(1)73-78
     doi.org/10.1002/wcms.81
  2. Neese,F.
     Software update: the ORCA program system, version 4.0
     WIRES Comput. Molec. Sci., 2018 8(1)1-6
     doi.org/10.1002/wcms.1327
  3. Neese,F.; Wennmohs,F.; Becker,U.; Riplinger,C.
     The ORCA quantum chemistry program package
     J. Chem. Phys., 2020 152 Art. No. L224108
     doi.org/10.1063/5.0004608

List of optional additional citations

  1. Neese,F.
     Approximate second-order SCF convergence for spin unrestricted wavefunctions
     Chem. Phys. Lett., 2000 325(1-3)93-98
     doi.org/10.1016/s0009-2614(00)00662-x

Timings for individual modules:

Sum of individual times          ...      202.191 sec (=   3.370 min)
Startup calculation              ...        0.695 sec (=   0.012 min)   0.3 %
SCF iterations                   ...       16.999 sec (=   0.283 min)   8.4 %
Property integrals               ...      100.610 sec (=   1.677 min)  49.8 %
SCF Response                     ...       45.252 sec (=   0.754 min)  22.4 %
Property calculations            ...       38.636 sec (=   0.644 min)  19.1 %
                             ****ORCA TERMINATED NORMALLY****
TOTAL RUN TIME: 0 days 0 hours 3 minutes 22 seconds 936 msec
