      -----------------------------------------------------------      
     |                   =====================                   |     
     |                           x T B                           |     
     |                   =====================                   |     
     |                         S. Grimme                         |     
     |          Mulliken Center for Theoretical Chemistry        |     
     |                    University of Bonn                     |     
      -----------------------------------------------------------      

   * xtb version 6.7.1 (edcfbbe) compiled by 'albert@albert-system' on 2024-07-22

   xtb is free software: you can redistribute it and/or modify it under
   the terms of the GNU Lesser General Public License as published by
   the Free Software Foundation, either version 3 of the License, or
   (at your option) any later version.
   
   xtb is distributed in the hope that it will be useful,
   but WITHOUT ANY WARRANTY; without even the implied warranty of
   MERCHANTABILITY or FITNESS FOR A PARTICULAR PURPOSE.  See the
   GNU Lesser General Public License for more details.
   
   Cite this work as:
   * C. Bannwarth, E. Caldeweyher, S. Ehlert, A. Hansen, P. Pracht,
     J. Seibert, S. Spicher, S. Grimme, WIREs Comput. Mol. Sci., 2020, 11,
     e01493. DOI: 10.1002/wcms.1493
   
   for GFN2-xTB:
   * C. Bannwarth, S. Ehlert and S. Grimme., J. Chem. Theory Comput., 2019,
     15, 1652-1671. DOI: 10.1021/acs.jctc.8b01176
   for GFN1-xTB:
   * S. Grimme, C. Bannwarth, P. Shushkov, J. Chem. Theory Comput., 2017,
     13, 1989-2009. DOI: 10.1021/acs.jctc.7b00118
   for GFN0-xTB:
   * P. Pracht, E. Caldeweyher, S. Ehlert, S. Grimme, ChemRxiv, 2019, preprint.
     DOI: 10.26434/chemrxiv.8326202.v1
   for GFN-FF:
   * S. Spicher and S. Grimme, Angew. Chem. Int. Ed., 2020, 59, 15665-15673.
     DOI: 10.1002/anie.202004239
   
   for ALPB and GBSA implicit solvation:
   * S. Ehlert, M. Stahn, S. Spicher, S. Grimme, J. Chem. Theory Comput.,
     2021, 17, 4250-4261. DOI: 10.1021/acs.jctc.1c00471
   
   for ddCOSMO and CPCM-X implicit solvation:
   * M. Stahn, S. Ehlert, S. Grimme, J. Phys. Chem. A,
     2023, XX, XXXX-XXXX. DOI: 10.1021/acs.jpca.3c04382
   
   for DFT-D4:
   * E. Caldeweyher, C. Bannwarth and S. Grimme, J. Chem. Phys., 2017,
     147, 034112. DOI: 10.1063/1.4993215
   * E. Caldeweyher, S. Ehlert, A. Hansen, H. Neugebauer, S. Spicher,
     C. Bannwarth and S. Grimme, J. Chem. Phys., 2019, 150, 154122.
     DOI: 10.1063/1.5090222
   * E. Caldeweyher, J.-M. Mewes, S. Ehlert and S. Grimme, Phys. Chem. Chem. Phys.
     2020, 22, 8499-8512. DOI: 10.1039/D0CP00502A
   
   for sTDA-xTB:
   * S. Grimme and C. Bannwarth, J. Chem. Phys., 2016, 145, 054103.
     DOI: 10.1063/1.4959605
   
   in the mass-spec context:
   * V. Asgeirsson, C. Bauer and S. Grimme, Chem. Sci., 2017, 8, 4879.
     DOI: 10.1039/c7sc00601b
   * J. Koopman and S. Grimme, ACS Omega 2019, 4, 12, 15120-15133.
     DOI: 10.1021/acsomega.9b02011
   
   for metadynamics refer to:
   * S. Grimme, J. Chem. Theory Comput., 2019, 155, 2847-2862
     DOI: 10.1021/acs.jctc.9b00143
   
   for SPH calculations refer to:
   * S. Spicher and S. Grimme, J. Chem. Theory Comput., 2021, 17, 1701-1714
     DOI: 10.1021/acs.jctc.0c01306
   
   for ONIOM refer to:
   * C. Plett, A. Katbashev, S. Ehlert, S. Grimme, M. Bursch,
     Phys. Chem. Chem. Phys., 2023, 25, 17860-17868. DOI: 10.1039/D3CP02178E
   
   for DIPRO refer to:
   * J. Kohn, N. Gildemeister, S. Grimme, D. Fazzi, A. Hansen,
     J. Chem. Phys., 2023, just accepted.
   
   for PTB refer to:
   * S. Grimme, M. Mueller, A. Hansen, J. Chem. Phys., 2023, 158, 124111.
     DOI: 10.1063/5.0137838
   
   with help from (in alphabetical order)
   P. Atkinson, C. Bannwarth, F. Bohle, G. Brandenburg, E. Caldeweyher
   M. Checinski, S. Dohm, S. Ehlert, S. Ehrlich, I. Gerasimov, C. Hölzer
   A. Katbashev, J. Kohn, J. Koopman, C. Lavigne, S. Lehtola, F. März, M. Müller,
   F. Musil, H. Neugebauer, J. Pisarek, C. Plett, P. Pracht, F. Pultar,
   J. Seibert, P. Shushkov, S. Spicher, M. Stahn, M. Steiner, T. Strunk,
   J. Stückrath, T. Rose, and J. Unsleber
   
 * started run on 2025/04/16 at 11:25:07.530     
   ID    Z sym.   atoms
    1    6 C      1, 2, 4, 6, 8, 10
    2    1 H      3, 5, 7, 9, 11, 18-24
    3    8 O      12-17

           -------------------------------------------------
          |                Calculation Setup                |
           -------------------------------------------------

          program call               : /software/projects/pawsey0265/mwang1/xtb/bin/xtb xtb_opt.coord --opt normal --orca -I xtb_opt-xcontrol-inp
          hostname                   : nid002811
          coordinate file            : xtb_opt.coord
          omp threads                :                   128

           -------------------------------------------------
          |                   Orca driver                   |
           -------------------------------------------------
orca executable           : /software/projects/pawsey0265/mwang1/orca_avx2/orca
orca input file           : xtb_opt.inp
orca input line           : 
orca parallel             : true
orca number of threads    : 128
                         * ORCA takes the control...
  ------------------------------------------------------------------------

                                 *****************
                                 * O   R   C   A *
                                 *****************

                                            #,                                       
                                            ###                                      
                                            ####                                     
                                            #####                                    
                                            ######                                   
                                           ########,                                 
                                     ,,################,,,,,                         
                               ,,#################################,,                 
                          ,,##########################################,,             
                       ,#########################################, ''#####,          
                    ,#############################################,,   '####,        
                  ,##################################################,,,,####,       
                ,###########''''           ''''###############################       
              ,#####''   ,,,,##########,,,,          '''####'''          '####       
            ,##' ,,,,###########################,,,                        '##       
           ' ,,###''''                  '''############,,,                           
         ,,##''                                '''############,,,,        ,,,,,,###''
      ,#''                                            '''#######################'''  
     '                                                          ''''####''''         
             ,#######,   #######,   ,#######,      ##                                
            ,#'     '#,  ##    ##  ,#'     '#,    #''#        ,####,   ,####,        
            ##       ##  ##   ,#'  ##            #'  '#       #'       #'  '#        
            ##       ##  #######   ##           ,######,      #####,   #    #        
            '#,     ,#'  ##    ##  '#,     ,#' ,#      #,     #,   #   #,  ,#        
             '#######'   ##     ##  '#######'  #'      '#     '####' # '####'        



                #########################################################
                #                        -***-                          #
                #          Department of theory and spectroscopy        #
                #                                                       #
                #                      Frank Neese                      #
                #                                                       #
                #     Directorship, Architecture, Infrastructure        #
                #                    SHARK, DRIVERS                     #
                #        Core code/Algorithms in most modules           #
                #                                                       #
                #        Max Planck Institute fuer Kohlenforschung      #
                #                Kaiser Wilhelm Platz 1                 #
                #                 D-45470 Muelheim/Ruhr                 #
                #                      Germany                          #
                #                                                       #
                #                  All rights reserved                  #
                #                        -***-                          #
                #########################################################


                         Program Version 6.0.1  -  RELEASE   -


 With contributions from (in alphabetic order):
[Max-Planck-Institut fuer Kohlenforschung]                               
  Daniel Aravena         : Magnetic Suceptibility                        
  Michael Atanasov       : Ab Initio Ligand Field Theory (pilot matlab implementation)
  Alexander A. Auer      : GIAO ZORA, VPT2 properties, NMR spectrum      
  Ute Becker             : All parallelization in ORCA, NUMFREQ, NUMCALC 
  Giovanni Bistoni       : ED, misc. LED, open-shell LED, HFLD           
  Martin Brehm           : Molecular dynamics                            
  Dmytro Bykov           : pre 5.0 version of the SCF Hessian            
  Marcos Casanova-Páez   : Triplet and SCS-CIS(D). UHF-(DLPNO)-IP/EA/STEOM-CCSD. UHF-CVS-IP/STEOM-CCSD   
  Vijay G. Chilkuri      : MRCI spin determinant printing, contributions to CSF-ICE 
  Pauline Colinet        : FMM embedding                                 
  Dipayan Datta          : RHF DLPNO-CCSD density                        
  Achintya Kumar Dutta   : EOM-CC, STEOM-CC                              
  Nicolas Foglia         : Exact transition moments, OPA infrastructure, MCD improvements    
  Dmitry Ganyushin       : Spin-Orbit,Spin-Spin,Magnetic field MRCI      
  Miquel Garcia-Rates    : C-PCM and meta-GGA Hessian, CCSD/C-PCM, Gaussian charge scheme 
  Tiago L. C. Gouveia    : GS-ROHF, GS-ROCIS                             
  Yang Guo               : DLPNO-NEVPT2, F12-NEVPT2, CIM, IAO-localization        
  Andreas Hansen         : Spin unrestricted coupled pair/coupled cluster methods 
  Ingolf Harden          : AUTO-CI MPn and infrastructure                
  Benjamin Helmich-Paris : MC-RPA, TRAH-(SCF,CASSCF), AVAS, COSX integrals, SCF dyn. polar. 
  Lee Huntington         : MR-EOM, pCC                                   
  Robert Izsak           : Overlap fitted RIJCOSX, COSX-SCS-MP3, EOM     
  Riya Kayal             : Wick's Theorem for AUTO-CI, AUTO-CI UHF-CCSDT 
  Emily Kempfer          : AUTO-CI, RHF CISDT and CCSDT                  
  Christian Kollmar      : KDIIS, OOCD, Brueckner-CCSD(T), CCSD density, CASPT2, CASPT2-K, improved NEVPT2 
  Axel Koslowski         : Symmetry handling                             
  Simone Kossmann        : meta-GGA functionals, TD-DFT gradient, OOMP2, (MP2 Hessian; deprecated post 5.0) 
  Lucas Lang             : DCDCAS                                        
  Marvin Lechner         : AUTO-CI (C++ implementation), FIC-MRCC        
  Spencer Leger          : CASSCF response                               
  Dagmar Lenk            : GEPOL surface, SMD, ORCA-2-JSON               
  Dimitrios Liakos       : Extrapolation schemes; Compound Job, initial MDCI parallelization 
  Dimitrios Manganas     : Further ROCIS development; embedding schemes. LFT, Crystal Embedding 
  Dimitrios Pantazis     : SARC Basis sets                               
  Anastasios Papadopoulos: AUTO-CI, single reference methods and gradients 
  Taras Petrenko         : pre 6.0 DFT Hessian and TD-DFT gradient, (ASA, deprecated), ECA, 1-Electron XAS/XES, NRVS 
  Peter Pinski           : DLPNO-MP2, DLPNO-MP2 Gradient                 
  Christoph Reimann      : Effective Core Potentials                     
  Marius Retegan         : Local ZFS, SOC                                
  Christoph Riplinger    : Optimizer, TS searches, QM/MM, DLPNO-CCSD(T), (RO)-DLPNO pert. Triples 
  Michael Roemelt        : Original ROCIS implementation                 
  Masaaki Saitow         : Open-shell DLPNO-CCSD energy and density      
  Barbara Sandhoefer     : DKH picture change effects                    
  Kantharuban Sivalingam : CASSCF convergence/infrastructure, NEVPT2 and variants, FIC-MRCI 
  Bernardo de Souza      : ESD, SOC TD-DFT                               
  Georgi L. Stoychev     : AutoAux, RI-MP2 NMR, DLPNO-MP2 response, X2C  
  Van Anh Tran           : RI-MP2 g-tensors                              
  Willem Van den Heuvel  : Paramagnetic NMR                              
  Zikuan Wang            : NOTCH, Electric field optimization            
  Frank Wennmohs         : Technical directorship and infrastructure     
  Hang Xu                : AUTO-CI-Response properties                   
                                                                         
[FACCTs GmbH]                                                            
  Markus Bursch, Miquel Garcia-Rates, Christoph Riplinger, Bernardo de Souza, Georgi L. Stoychev 
                                                                 
  APM, Basis sets (HGBS, AHGBS, def-TZVP (Ac-Lr), def2-XVPD (La-Lu)), CI-OPT, improved COSX, DLPNO-Multilevel,           
  DOCKER, DRACO, updates on ESD, GOAT, IRC, LR-CPCM, MBIS, meta-GGA TD-DFT gradient, ML-optimized integration grids, 
  MM, NACMEs, nearIR, NEB, NEB-TS, NL-DFT gradient (VV10), 2- and 3-layer-ONIOM, interface openCOSMO-RS, QMMM,   
  Crystal-QMMM, SF, symmetry and pop. for TD-DFT, r2SCAN hybrids, SOLVATOR                                   
                                                                         
[Other institutions]                                                     
  V. Asgeirsson          : NEB                                           
  Christoph Bannwarth    : sTDA-DFT, sTD-DFT, PBEh-3c, B97-3c, D3        
  Sebastian Ehlert       : rSCAN, r2SCAN, r2SCAN-3c, D4, dhf basis sets  
  Marvin Friede          : D4 for Fr, Ra, Ac-Lr                          
  Lars Goerigk           : TD-DFT with DH, B97 family of functionals     
  Stefan Grimme          : VdW corrections, initial TS optimization, DFT functionals, gCP, sTDA/sTD-DF 
  Waldemar Hujo          : DFT-NL                                        
  H. Jonsson             : NEB                                           
  Holger Kruse           : gCP                                           
  Marcel Mueller         : wB97X-3c, vDZP basis set                      
  Hagen Neugebauer       : wr2SCAN                                       
  Tobias Risthaus        : range-separated hybrid DFT                    
  Lukas Wittmann         : regularized MP2, r2SCAN double-hybrids, wr2SCAN        
                                                                         
We gratefully acknowledge several colleagues who have allowed us to      
interface, adapt or use parts of their codes:                            
  Ed Valeev, F. Pavosevic, A. Kumar             : LibInt (2-el integral package), F12 methods 
  Garnet Chan, S. Sharma, J. Yang, R. Olivares  : DMRG                   
  Ulf Ekstrom                                   : XCFun DFT Library      
  Mihaly Kallay                                 : mrcc  (arbitrary order and MRCC methods)
  Frank Weinhold                                : gennbo (NPA and NBO analysis)           
  Simon Mueller                                 : openCOSMO-RS                            
  Christopher J. Cramer and Donald G. Truhlar   : smd solvation model                     
  S Lehtola, MJT Oliveira, MAL Marques          : LibXC Library                           
  Liviu Ungur et al                             : ANISO software                          


 Your calculation uses the libint2 library for the computation of 2-el integrals
 For citations please refer to: http://libint.valeyev.net

 Your ORCA version has been built with support for libXC version: 6.2.2
 For citations please refer to: https://libxc.gitlab.io

 This ORCA versions uses:
   CBLAS   interface :  Fast vector & matrix operations
   LAPACKE interface :  Fast linear algebra routines
   SCALAPACK package :  Parallel linear algebra routines
   Shared memory     :  Shared parallel matrices
   BLAS/LAPACK       :  OpenBLAS 0.3.27  USE64BITINT DYNAMIC_ARCH NO_AFFINITY Zen SINGLE_THREADED
        Core in use  :  Zen
   Copyright (c) 2011-2014, The OpenBLAS Project




***************************************
The coordinates will be read from file: xtb_opt.xyz
***************************************


Your calculation utilizes the geometrical counterpoise correction gCP
Please cite in your paper:
H.Kruse, S. Grimme J.Chem.Phys., 136, (2012), 154101 
   

Your calculation utilizes the atom-pairwise dispersion correction
based on EEQ partial charges (D4)


================================================================================

----- Orbital basis set information -----
Your calculation utilizes the basis: def2-mTZVPP
   Stefan Grimme, Andreas Hansen, Sebastian Ehlert, and Jan-Michael Mewes 
   J. Chem. Phys. 154, 064103 (2021). DOI: 10.1063/5.0040021

----- AuxJ basis set information -----
Your calculation utilizes the auxiliary basis: def2/J
   F. Weigend, Phys. Chem. Chem. Phys. 8, 1057 (2006).

================================================================================
                                        WARNINGS
                       Please study these warnings very carefully!
================================================================================

WARNING: Old DensityContainer found on disk!
         Will remove this file - 
         If you want to keep old densities, please start your calculation with a different basename. 



WARNING: SCAN, rSCAN, or r2SCAN functional requested.
  ===> : libXC variant has now been activated.



================================================================================
                                       INPUT FILE
================================================================================
NAME = xtb_opt.inp
|  1> ! r2scan-3c def2/J RI DEFGRID2 scfconv7 ENGRAD tightSCF miniprint
|  2> * xyzfile 0 1 xtb_opt.xyz
|  3> 
|  4>                          ****END OF INPUT****
================================================================================

                     *******************************
                     * Energy+Gradient Calculation *
                     *******************************

---------------------------------
CARTESIAN COORDINATES (ANGSTROEM)
---------------------------------
  C     -2.139584   -0.916727   -0.293718
  C     -1.202163   -0.325842    0.757201
  H     -1.770173   -0.345439    1.695788
  C     -0.762409    1.132564    0.568277
  H     -1.619328    1.716511    0.211020
  C      0.388776    1.300082   -0.442620
  H      0.796517    2.307939   -0.277170
  C      1.524173    0.300368   -0.133982
  H      2.195267    0.245148   -1.001049
  C      1.053413   -1.120404    0.199076
  H      1.849847   -1.614703    0.768045
  O     -0.064867   -1.179859    1.045823
  O      0.850629   -1.829503   -1.034817
  O      2.235914    0.702366    1.052553
  O     -0.017709    1.258155   -1.792348
  O     -0.397705    1.686071    1.832657
  O     -1.666854   -0.913635   -1.640344
  H     -3.062761   -0.325972   -0.289328
  H     -2.393733   -1.940375    0.018920
  H      0.812437   -2.768615   -0.813478
  H      2.571119    1.594300    0.903197
  H     -0.687636    0.552681   -1.897416
  H      0.424289    1.249959    2.102274
  H     -0.841122   -1.435741   -1.646257

----------------------------
CARTESIAN COORDINATES (A.U.)
----------------------------
  NO LB      ZA    FRAG     MASS         X           Y           Z
   0 C     6.0000    0    12.011   -4.043227   -1.732363   -0.555047
   1 C     6.0000    0    12.011   -2.271758   -0.615753    1.430903
   2 H     1.0000    0     1.008   -3.345143   -0.652785    3.204575
   3 C     6.0000    0    12.011   -1.440743    2.140236    1.073889
   4 H     1.0000    0     1.008   -3.060086    3.243736    0.398769
   5 C     6.0000    0    12.011    0.734680    2.456799   -0.836430
   6 H     1.0000    0     1.008    1.505199    4.361373   -0.523775
   7 C     6.0000    0    12.011    2.880269    0.567613   -0.253189
   8 H     1.0000    0     1.008    4.148453    0.463263   -1.891708
   9 C     6.0000    0    12.011    1.990662   -2.117258    0.376200
  10 H     1.0000    0     1.008    3.495705   -3.051346    1.451395
  11 O     8.0000    0    15.999   -0.122580   -2.229611    1.976319
  12 O     8.0000    0    15.999    1.607456   -3.457260   -1.955521
  13 O     8.0000    0    15.999    4.225265    1.327280    1.989037
  14 O     8.0000    0    15.999   -0.033464    2.377568   -3.387047
  15 O     8.0000    0    15.999   -0.751553    3.186213    3.463220
  16 O     8.0000    0    15.999   -3.149897   -1.726520   -3.099801
  17 H     1.0000    0     1.008   -5.787780   -0.615997   -0.546751
  18 H     1.0000    0     1.008   -4.523499   -3.666778    0.035753
  19 H     1.0000    0     1.008    1.535283   -5.231924   -1.537250
  20 H     1.0000    0     1.008    4.858710    3.012790    1.706795
  21 H     1.0000    0     1.008   -1.299444    1.044415   -3.585596
  22 H     1.0000    0     1.008    0.801789    2.362080    3.972723
  23 H     1.0000    0     1.008   -1.589491   -2.713158   -3.110976

------------------------------------------------------------------------------
                   ___                                                        
                  /   \      - P O W E R E D   B Y -                         
                 /     \                                                     
                 |  |  |   _    _      __       _____    __    __             
                 |  |  |  | |  | |    /  \     |  _  \  |  |  /  |          
                  \  \/   | |  | |   /    \    | | | |  |  | /  /          
                 / \  \   | |__| |  /  /\  \   | |_| |  |  |/  /          
                |  |  |   |  __  | /  /__\  \  |    /   |      \           
                |  |  |   | |  | | |   __   |  |    \   |  |\   \          
                \     /   | |  | | |  |  |  |  | |\  \  |  | \   \       
                 \___/    |_|  |_| |__|  |__|  |_| \__\ |__|  \__/        
                                                                              
                      - O R C A' S   B I G   F R I E N D -                    
                                      &                                       
                       - I N T E G R A L  F E E D E R -                       
                                                                              
 v1 FN, 2020, v2 2021, v3 2022-2024                                           
------------------------------------------------------------------------------


----------------------
SHARK INTEGRAL PACKAGE
----------------------

Number of atoms                             ...     24
Number of basis functions                   ...    318
Number of shells                            ...    150
Maximum angular momentum                    ...      2
Integral batch strategy                     ... SHARK/LIBINT Hybrid
RI-J (if used) integral strategy            ... SPLIT-RIJ (Revised 2003 algorithm where possible)
Printlevel                                  ...      1
Contraction scheme used                     ... SEGMENTED contraction
Prescreening option                         ... SCHWARTZ
   Thresh                                   ... 3.000e-11
   Tcut                                     ... 1.000e-12
   Tpresel                                  ... 1.000e-12 
Coulomb Range Separation                    ... NOT USED
Exchange Range Separation                   ... NOT USED
Multipole approximations                    ... NOT USED
Finite Nucleus Model                        ... NOT USED
CABS basis                                  ... NOT available
Auxiliary Coulomb fitting basis             ... AVAILABLE
   # of basis functions in Aux-J            ...    720
   # of shells in Aux-J                     ...    240
   Maximum angular momentum in Aux-J        ...      4
Auxiliary J/K fitting basis                 ... NOT available
Auxiliary Correlation fitting basis         ... NOT available
Auxiliary 'external' fitting basis          ... NOT available

Checking pre-screening integrals            ... done (  0.0 sec) Dimension = 150
Check shell pair data                       ... done (  0.0 sec)
Shell pair information
Shell pair cut-off parameter TPreSel        ...   1.0e-12
Total number of shell pairs                 ...     11325
Shell pairs after pre-screening             ...     10188
Total number of primitive shell pairs       ...     40203
Primitive shell pairs kept                  ...     24948
          la=0 lb=0:   3077 shell pairs
          la=1 lb=0:   3623 shell pairs
          la=1 lb=1:   1096 shell pairs
          la=2 lb=0:   1399 shell pairs
          la=2 lb=1:    826 shell pairs
          la=2 lb=2:    167 shell pairs

Calculating one electron integrals          ... done (  0.1 sec)
Calculating RI/J V-Matrix + Cholesky decomp.... done (  0.1 sec)
Calculating Nuclear repulsion               ... done (  0.0 sec) ENN=    867.926552285911 Eh

Diagonalization of the overlap matrix:
Smallest eigenvalue                        ... 4.087e-05
Time for diagonalization                   ...    0.016 sec
Threshold for overlap eigenvalues          ... 1.000e-07
Number of eigenvalues below threshold      ... 0
Time for construction of square roots      ...    0.009 sec
Total time needed                          ...    0.026 sec

-------------------
DFT GRID GENERATION
-------------------

General Integration Accuracy     IntAcc      ... 4.388
Radial Grid Type                 RadialGrid  ... OptM3 with GC (2021)
Angular Grid (max. ang.)         AngularGrid ... 4 (Lebedev-302)
Angular grid pruning method      GridPruning ... 4 (adaptive)
Weight generation scheme         WeightScheme... mBecke (2022)
Basis function cutoff            BFCut       ... 1.0000e-11
Integration weight cutoff        WCut        ... 1.0000e-14
Partially contracted basis set               ... off
Rotationally invariant grid construction     ... off
Angular grids for H and He will be reduced by one unit
Diffuse basis detected: some atoms will have their outermost
                        angular grid increased by 1.

Total number of grid points                  ...   111767
Total number of batches                      ...     1757
Average number of points per batch           ...       63
Average number of grid points per atom       ...     4657
Initializing property integral containers    ... done (  0.0 sec)

SHARK setup successfully completed in   1.9 seconds

Maximum memory used throughout the entire STARTUP-calculation: 57.6 MB
Occupation numbers will be reassigned to an Aufbau configuration
             **** ENERGY FILE WAS UPDATED (xtb_opt.en.tmp) ****
Finished Guess after   0.1 sec
Maximum memory used throughout the entire GUESS-calculation: 28.3 MB
----------------------------------------D-I-I-S--------------------------------------------
Iteration    Energy (Eh)           Delta-E    RMSDP     MaxDP     DIISErr   Damp  Time(sec)
-------------------------------------------------------------------------------------------
               ***  Starting incremental Fock matrix formation  ***
                              *** Initializing SOSCF ***
---------------------------------------S-O-S-C-F--------------------------------------
Iteration    Energy (Eh)           Delta-E    RMSDP     MaxDP     MaxGrad    Time(sec)
--------------------------------------------------------------------------------------
    1    -687.0915552963881510     0.00e+00  6.94e-06  2.29e-04  1.29e-05     4.6
               *** Restarting incremental Fock matrix formation ***
    2    -687.0915552056305842     9.08e-08  1.12e-05  3.09e-04  4.41e-05     4.7
    3    -687.0915542829839069     9.23e-07  8.12e-06  2.23e-04  9.61e-05     3.3
    4    -687.0915554863850048    -1.20e-06  1.84e-06  5.10e-05  8.03e-06     3.1
                  *** Gradient check signals convergence ***

               *****************************************************
               *                     SUCCESS                       *
               *           SCF CONVERGED AFTER   4 CYCLES          *
               *****************************************************

             **** ENERGY FILE WAS UPDATED (xtb_opt.en.tmp) ****

----------------
TOTAL SCF ENERGY
----------------

Total Energy       :       -687.09155548638500 Eh          -18696.71175 eV

Components:
Nuclear Repulsion  :        867.92655228591116 Eh           23617.48218 eV
Electronic Energy  :      -1555.01810777229616 Eh          -42314.19392 eV
One Electron Energy:      -2665.77374726395283 Eh          -72539.39149 eV
Two Electron Energy:       1110.75563949165667 Eh           30225.19757 eV

Virial components:
Potential Energy   :      -1371.33098430850487 Eh          -37315.81318 eV
Kinetic Energy     :        684.23942882211998 Eh           18619.10144 eV
Virial Ratio       :          2.00416831673845

DFT components:
N(Alpha)           :       48.000185138507 electrons
N(Beta)            :       48.000185138507 electrons
N(Total)           :       96.000370277013 electrons
E(X)               :      -85.229992982222 Eh       
E(C)               :       -3.198167594621 Eh       
E(XC)              :      -88.428160576842 Eh       

---------------
SCF CONVERGENCE
---------------

  Last Energy change         ...    1.2034e-06  Tolerance :   1.0000e-07
  Last MAX-Density change    ...    5.0966e-05  Tolerance :   1.0000e-07
  Last RMS-Density change    ...    1.8388e-06  Tolerance :   5.0000e-09
  Last DIIS Error            ...    2.5509e-04  Tolerance :   1.0000e-07
  Last Orbital Gradient      ...    8.0290e-06  Tolerance :   1.0000e-04
  Last Orbital Rotation      ...    1.1201e-05  Tolerance :   1.0000e-04


----------------
ORBITAL ENERGIES
----------------

  NO   OCC          E(Eh)            E(eV) 
   0   2.0000     -18.993848      -516.8489 
   1   2.0000     -18.981716      -516.5188 
   2   2.0000     -18.978453      -516.4300 
   3   2.0000     -18.965432      -516.0756 
   4   2.0000     -18.949418      -515.6399 
   5   2.0000     -18.939750      -515.3768 
   6   2.0000     -10.155673      -276.3499 
   7   2.0000     -10.102120      -274.8926 
   8   2.0000     -10.099738      -274.8278 
   9   2.0000     -10.094812      -274.6938 
  10   2.0000     -10.094708      -274.6910 
  11   2.0000     -10.093350      -274.6540 
  12   2.0000      -1.056817       -28.7575 
  13   2.0000      -1.012489       -27.5512 
  14   2.0000      -1.001822       -27.2610 
  15   2.0000      -0.995849       -27.0984 
  16   2.0000      -0.983838       -26.7716 
  17   2.0000      -0.974899       -26.5284 
  18   2.0000      -0.756070       -20.5737 
  19   2.0000      -0.742518       -20.2049 
  20   2.0000      -0.672757       -18.3067 
  21   2.0000      -0.627797       -17.0832 
  22   2.0000      -0.616935       -16.7877 
  23   2.0000      -0.553254       -15.0548 
  24   2.0000      -0.518071       -14.0974 
  25   2.0000      -0.514641       -14.0041 
  26   2.0000      -0.493679       -13.4337 
  27   2.0000      -0.489392       -13.3170 
  28   2.0000      -0.463503       -12.6125 
  29   2.0000      -0.452320       -12.3083 
  30   2.0000      -0.448732       -12.2106 
  31   2.0000      -0.435445       -11.8491 
  32   2.0000      -0.412735       -11.2311 
  33   2.0000      -0.398463       -10.8427 
  34   2.0000      -0.386226       -10.5097 
  35   2.0000      -0.379619       -10.3300 
  36   2.0000      -0.362331        -9.8595 
  37   2.0000      -0.353114        -9.6087 
  38   2.0000      -0.336717        -9.1625 
  39   2.0000      -0.331439        -9.0189 
  40   2.0000      -0.306244        -8.3333 
  41   2.0000      -0.303889        -8.2692 
  42   2.0000      -0.291117        -7.9217 
  43   2.0000      -0.276076        -7.5124 
  44   2.0000      -0.271254        -7.3812 
  45   2.0000      -0.253109        -6.8874 
  46   2.0000      -0.240651        -6.5484 
  47   2.0000      -0.221833        -6.0364 
  48   0.0000       0.014478         0.3940 
  49   0.0000       0.043883         1.1941 
  50   0.0000       0.054336         1.4786 
  51   0.0000       0.071770         1.9530 
  52   0.0000       0.075687         2.0595 
  53   0.0000       0.088916         2.4195 
  54   0.0000       0.103380         2.8131 
  55   0.0000       0.109984         2.9928 
  56   0.0000       0.117574         3.1994 
  57   0.0000       0.135911         3.6983 
  58   0.0000       0.139604         3.7988 
*Only the first 10 virtual orbitals were printed.
Total SCF time: 0 days 0 hours 0 min 16 sec 
Finished LeanSCF after  16.5 sec

Maximum memory used throughout the entire LEANSCF-calculation: 41.2 MB


-------------------------------------------------------------------------------
                          DFT DISPERSION CORRECTION                            
                                                                               
                                DFTD4 V3.4.0                                   
-------------------------------------------------------------------------------
-------------------------   ----------------
Dispersion correction           -0.008821883
-------------------------   ----------------

------------------   -----------------
gCP correction             0.022181256
------------------   -----------------

-------------------------   --------------------
FINAL SINGLE POINT ENERGY      -687.078196113240
-------------------------   --------------------

------------------------------------------------------------------------------
                         ORCA SCF GRADIENT CALCULATION
------------------------------------------------------------------------------

Nuc. rep. gradient        (SHARK) ... done (  0.0 sec)
HCore & Overlap gradient  (SHARK) ... done (  0.6 sec)
Split-RIJ-J gradient      (SHARK) ... done (  3.7 sec)
XC gradient                       ... done ( 13.5 sec)
Dispersion correction             ... done (  0.0 sec)

-------------------
DISPERSION GRADIENT
-------------------

   1   C   :   -0.000124553   -0.000051146   -0.000004597
   2   C   :   -0.000062684   -0.000019642    0.000039156
   3   H   :   -0.000039881   -0.000007891    0.000043785
   4   C   :   -0.000038076    0.000065692    0.000031929
   5   H   :   -0.000031160    0.000046068    0.000013090
   6   C   :    0.000032475    0.000077250   -0.000013712
   7   H   :    0.000015142    0.000050116   -0.000012728
   8   C   :    0.000088152    0.000015637   -0.000001942
   9   H   :    0.000053146    0.000006183   -0.000018869
  10   C   :    0.000066631   -0.000059817    0.000010553
  11   H   :    0.000038006   -0.000037126    0.000010130
  12   O   :    0.000001560   -0.000072005    0.000060156
  13   O   :    0.000061483   -0.000124333   -0.000040050
  14   O   :    0.000118781    0.000049003    0.000038296
  15   O   :   -0.000017513    0.000065550   -0.000114299
  16   O   :   -0.000001947    0.000077032    0.000103133
  17   O   :   -0.000065982   -0.000061260   -0.000085179
  18   H   :   -0.000056671   -0.000015773   -0.000009983
  19   H   :   -0.000048972   -0.000031265   -0.000003434
  20   H   :    0.000025161   -0.000041927   -0.000019617
  21   H   :    0.000043382    0.000008177    0.000019834
  22   H   :    0.000005271    0.000038217   -0.000046612
  23   H   :   -0.000017946    0.000040947    0.000035041
  24   H   :   -0.000043805   -0.000017687   -0.000034079

Difference to translation invariance:
           :    0.0000000000    0.0000000000   -0.0000000000

Difference to rotation invariance:
           :   -0.0000000000   -0.0000000000    0.0000000000

Norm of the Dispersion gradient    ...    0.0004354298
RMS gradient                       ...    0.0000513159
MAX gradient                       ...    0.0001245534
gCP correction                   ... done

------------------
CARTESIAN GRADIENT
------------------

   1   C   :    0.000033918    0.000028243   -0.000464029
   2   C   :    0.000075223   -0.000131161    0.000232082
   3   H   :   -0.000026077    0.000043104   -0.000047865
   4   C   :    0.000002698    0.000340807    0.000362663
   5   H   :   -0.000085715    0.000003061   -0.000024590
   6   C   :   -0.000047056    0.000124539   -0.000399233
   7   H   :    0.000030043   -0.000038125    0.000037008
   8   C   :    0.000371648    0.000262213   -0.000064397
   9   H   :   -0.000052685   -0.000060863    0.000016751
  10   C   :   -0.000360157   -0.000279705    0.000256211
  11   H   :    0.000051558    0.000017629   -0.000008322
  12   O   :    0.000131148    0.000037316   -0.000290189
  13   O   :    0.000103266    0.000018013    0.000076768
  14   O   :    0.000045299    0.000055298   -0.000132276
  15   O   :    0.000084689    0.000019314    0.000285137
  16   O   :    0.000157529   -0.000319805   -0.000100842
  17   O   :    0.000043463    0.000029996    0.000200786
  18   H   :   -0.000063193   -0.000013095    0.000063749
  19   H   :   -0.000035444   -0.000039908    0.000098577
  20   H   :   -0.000045715   -0.000012239   -0.000069298
  21   H   :   -0.000170796   -0.000153881    0.000040227
  22   H   :   -0.000104285   -0.000106839   -0.000022411
  23   H   :   -0.000091473    0.000170489   -0.000021464
  24   H   :   -0.000047887    0.000005599   -0.000025044

Difference to translation invariance:
           :   -0.0000000000    0.0000000000    0.0000000000

Difference to rotation invariance:
           :    0.0004418854    0.0006364666   -0.0004436105

Norm of the Cartesian gradient     ...    0.0013368487
RMS gradient                       ...    0.0001575491
MAX gradient                       ...    0.0004640288

-------
TIMINGS
-------

Total SCF gradient time     ....       17.913 sec

Densities                   ....       0.001 sec  (  0.0%)
One electron gradient       ....       0.635 sec  (  3.5%)
RI-J Coulomb gradient       ....       3.696 sec  ( 20.6%)
XC gradient                 ....      13.544 sec  ( 75.6%)

Maximum memory used throughout the entire SCFGRAD-calculation: 49.2 MB

------------------------------------------------------------------------------
                              ORCA PROPERTY CALCULATIONS
------------------------------------------------------------------------------

GBWName                                 ... xtb_opt.gbw
Number of atoms                         ...     24
Number of basis functions               ...    318
Max core memory                         ...   1024 MB

Electric properties:
Dipole moment                           ... YES
Quadrupole moment                       ...  NO
Static polarizability (Dipole/Dipole)   ...  NO
Static polarizability (Dipole/Quad.)    ...  NO
Static polarizability (Quad./Quad.)     ...  NO
Static polarizability (Velocity)        ...  NO

Atomic electric properties:
Dipole moment                           ...  NO
Quadrupole moment                       ...  NO
Static polarizability                   ...  NO

Choice of electric origin               ... Center of mass
Position of electric origin             ...    -0.003939    -0.007847    -0.009989

General magnetic properties:
Magnetizability                         ...  NO

EPR properties:
g-Tensor (aka g-matrix)                 ...  NO
Zero-Field splitting spin-orbit         ...  NO
Zero-field splitting spin-spin          ...  NO
Hyperfine couplings                     ...  NO (   0 nuclei)
Quadrupole couplings                    ...  NO (   0 nuclei)
Contact density                         ...  NO (   0 nuclei)

NMR properties:
Chemical shifts                         ...  NO (   0 nuclei)
Spin-rotation constants                 ...  NO (   0 nuclei)
Spin-spin couplings                     ...  NO (   0 nuclei,    0 pairs)

Choice of magnetic origin               ... GIAO
Position of magnetic origin             ...     0.000000     0.000000     0.000000

Properties with geometric perturbations:
SCF Hessian                             ...  NO
IR spectrum                             ...  NO
VCD spectrum                            ...  NO
X-ray spectroscopy properties:
SCF XES/XAS/RIXS spectra                ...  NO


-------------
DIPOLE MOMENT
-------------

Method             : SCF
Type of density    : Electron Density
Multiplicity       :   1
Irrep              :   0
Energy             :  -687.0915554863850048 Eh
Relativity type    : 
Basis              : AO
                                X                 Y                 Z
Electronic contribution:      1.964180185      -0.198704286       0.452387811
Nuclear contribution   :     -1.581072145      -0.674026141      -0.159468859
                        -----------------------------------------
Total Dipole Moment    :      0.383108040      -0.872730427       0.292918953
                        -----------------------------------------
Magnitude (a.u.)       :      0.997111669
Magnitude (Debye)      :      2.534456447



--------------------
Rotational spectrum 
--------------------
 
Rotational constants in cm-1:             0.039267             0.031040             0.027521 
Rotational constants in MHz :          1177.205428           930.547096           825.060450 

Dipole components along the rotational axes: 
x,y,z [a.u.] :    -0.069915     0.724701     0.681287 
x,y,z [Debye]:    -0.177710     1.842044     1.731693 

 

Dipole moment calculation done in   0.1 sec 

Maximum memory used throughout the entire PROP-calculation: 26.9 MB

--------------------------------
SUGGESTED CITATIONS FOR THIS RUN
--------------------------------

Below you find a list of papers that are relevant to this ORCA run
We neither can nor want to force you to cite these papers, but we appreciate if you do
You receive ORCA, which is the product of decades of hard work by many enthusiastic individuals, for free
The only thing we kindly ask in return is that you cite our papers,
We deeply appreciate it, if you show your appreciation for ORCA by not just citing the generic ORCA reference.

Please note that relegating all ORCA citations to the supporting information does *not* help us.
SI sections are not indexed - citations you put there will not count into any citation statistics
But we need these citations in order to attract the funding resources that allow us to do what we are doing

Therefore, if you are a happy ORCA user, please consider citing a few of the papers listed below in the main body of your paper

In addition to the list printed below, the program has created the file xtb_opt.bibtex that contains the list in bibtex format
You can import this file easily into all common literature databanks and citation aid programs


List of essential papers. We consider these as the minimum necessary citations

  1. Neese,F.
     Software update: the ORCA program system, version 5.0
     WIRES Comput. Molec. Sci., 2022 12(1)e1606
     doi.org/10.1002/wcms.1606
  2. Grimme,S.; Hansen,A.; Ehlert,S.; Mewes,J.
     r2SCAN-3c: A 'Swiss army knife' composite electronic-structure method
     J. Chem. Phys., 2021 154 064103
     doi.org/10.1063/5.0040021

List of papers to cite with high priority. The work reported in these papers was absolutely
necessary for this run to complete.
Our perspective: the developers of density functionals and basis sets usually get cited in chemistry papers
Good! But without the algorithms to do something with them, the functionals or basis sets would not do anything.
Hence, in our opinion, the algorithm design and method developments papers are equally worthy of getting cited

  1. Neese,F.
     An improvement of the resolution of the identity approximation for the formation of the Coulomb matrix
     J. Comp. Chem., 2003 24(14)1740-1747
     doi.org/10.1002/jcc.10318
  2. Neese,F.
     The SHARK Integral Generation and Digestion System
     J. Comp. Chem., 2022  1-16
     doi.org/10.1002/jcc.26942
  3. Lehtola,S.; Steigemann,C.; Oliveira,M.; Marques,M.
     Recent developments in Libxc - A comprehensive library of functionals for density functional theory
     Software X, 2018 7 
     doi.org/10.1016/j.softx.2017.11.002
  4. Caldeweyher,E.; Bannwarth,C.; Grimme,S.
     Extension of the D3 dispersion coefficient model
     J. Chem. Phys., 2017 147 034112
     doi.org/10.1063/1.4993215
  5. Caldeweyher,E.; Ehlert,S.; Hansen,A.; Neugebauer,H.; Spicher,S.; Bannwarth,C.; Grimme,S.
     A generally applicable atomic-charge dependent London dispersion correction
     J. Chem. Phys., 2019 150 154122
     doi.org/10.1063/1.5090222
  6. Caldeweyher,E.; Mewes,J.; Ehlert,S.; Grimme,S.
     Extension and evaluation of the D4 London-dispersion model for periodic systems
     Phys. Chem. Chem. Phys., 2020 22(16)8499-8512
     doi.org/10.1039/D0CP00502A
  7. Wittmann,L.; Gordiy,I.; Friede,M.; Helmich-Paris,B.; Grimme,S.; Hansen,A.; Bursch,M.
     Extension of the D3 and D4 London Dispersion Corrections to the full Actinides Series
     Phys. Chem. Chem. Phys., 2024 26(32)21379-21394
     doi.org/https://doi.org/10.1039/D4CP01514B 

List of suggested additional citations. These are papers that are important in the 'surrounding' of 
of this run, or papers that preceded the highly important papers. If you like your results we are grateful for a citation.

  1. Neese,F.
     The ORCA program system
     WIRES Comput. Molec. Sci., 2012 2(1)73-78
     doi.org/10.1002/wcms.81
  2. Neese,F.
     Software update: the ORCA program system, version 4.0
     WIRES Comput. Molec. Sci., 2018 8(1)1-6
     doi.org/10.1002/wcms.1327
  3. Neese,F.; Wennmohs,F.; Becker,U.; Riplinger,C.
     The ORCA quantum chemistry program package
     J. Chem. Phys., 2020 152 Art. No. L224108
     doi.org/10.1063/5.0004608

List of optional additional citations

  1. Neese,F.
     Approximate second-order SCF convergence for spin unrestricted wavefunctions
     Chem. Phys. Lett., 2000 325(1-3)93-98
     doi.org/10.1016/s0009-2614(00)00662-x

Timings for individual modules:

Sum of individual times          ...       37.029 sec (=   0.617 min)
Startup calculation              ...        1.922 sec (=   0.032 min)   5.2 %
SCF iterations                   ...       16.663 sec (=   0.278 min)  45.0 %
Property calculations            ...        0.228 sec (=   0.004 min)   0.6 %
SCF Gradient evaluation          ...       18.216 sec (=   0.304 min)  49.2 %
                             ****ORCA TERMINATED NORMALLY****
TOTAL RUN TIME: 0 days 0 hours 0 minutes 37 seconds 833 msec
  ------------------------------------------------------------------------
          * successful ORCA run, taking over control again...

         :::::::::::::::::::::::::::::::::::::::::::::::::::::
         ::                  ORCA SUMMARY                   ::
         :::::::::::::::::::::::::::::::::::::::::::::::::::::
         :: total energy            -687.078196113240 Eh    ::
         :: gradient norm              0.001336848738 Eh/a0 ::
         :: HOMO-LUMO gap              0.000000000000 eV    ::
         :::::::::::::::::::::::::::::::::::::::::::::::::::::

      ----------------------------------------------------------- 
     |                       L-ANC optimizer                     |
      ----------------------------------------------------------- 
          low memory version by Sebastian Ehlert

          ...................................................
          :                      SETUP                      :
          :.................................................:
          :   energy convergence        0.5000000E-05 Eh    :
          :   grad. convergence         0.1000000E-02 Eh/a0 :
          :   optimization log               true           :
          :   writing optlog all                1     steps :
          :   Hessian reset                     8     steps :
          :   maximium step len.        1.0000000     a0    :
          :   LBFGS images                      8           :
          ...................................................
 * calculating model hessian...
Using Lindh-Hessian (1995)
 Shifting diagonal of input Hessian by   1.000000000000000E-002
 Lowest  eigenvalues of input Hessian
    0.000000    0.000000    0.000000    0.000000    0.000000    0.000000
    0.014301    0.015675    0.017640    0.021248    0.023091    0.024522
    0.025315    0.029396    0.031435    0.033523    0.034793    0.041693
 Highest eigenvalues
    1.389921    1.410136    1.428191    1.453946    1.531120    1.590690
 

........................................................................
.............................. CYCLE    1 ..............................
........................................................................
                         * ORCA takes the control...
  ------------------------------------------------------------------------

                                 *****************
                                 * O   R   C   A *
                                 *****************

                                            #,                                       
                                            ###                                      
                                            ####                                     
                                            #####                                    
                                            ######                                   
                                           ########,                                 
                                     ,,################,,,,,                         
                               ,,#################################,,                 
                          ,,##########################################,,             
                       ,#########################################, ''#####,          
                    ,#############################################,,   '####,        
                  ,##################################################,,,,####,       
                ,###########''''           ''''###############################       
              ,#####''   ,,,,##########,,,,          '''####'''          '####       
            ,##' ,,,,###########################,,,                        '##       
           ' ,,###''''                  '''############,,,                           
         ,,##''                                '''############,,,,        ,,,,,,###''
      ,#''                                            '''#######################'''  
     '                                                          ''''####''''         
             ,#######,   #######,   ,#######,      ##                                
            ,#'     '#,  ##    ##  ,#'     '#,    #''#        ,####,   ,####,        
            ##       ##  ##   ,#'  ##            #'  '#       #'       #'  '#        
            ##       ##  #######   ##           ,######,      #####,   #    #        
            '#,     ,#'  ##    ##  '#,     ,#' ,#      #,     #,   #   #,  ,#        
             '#######'   ##     ##  '#######'  #'      '#     '####' # '####'        



                #########################################################
                #                        -***-                          #
                #          Department of theory and spectroscopy        #
                #                                                       #
                #                      Frank Neese                      #
                #                                                       #
                #     Directorship, Architecture, Infrastructure        #
                #                    SHARK, DRIVERS                     #
                #        Core code/Algorithms in most modules           #
                #                                                       #
                #        Max Planck Institute fuer Kohlenforschung      #
                #                Kaiser Wilhelm Platz 1                 #
                #                 D-45470 Muelheim/Ruhr                 #
                #                      Germany                          #
                #                                                       #
                #                  All rights reserved                  #
                #                        -***-                          #
                #########################################################


                         Program Version 6.0.1  -  RELEASE   -


 With contributions from (in alphabetic order):
[Max-Planck-Institut fuer Kohlenforschung]                               
  Daniel Aravena         : Magnetic Suceptibility                        
  Michael Atanasov       : Ab Initio Ligand Field Theory (pilot matlab implementation)
  Alexander A. Auer      : GIAO ZORA, VPT2 properties, NMR spectrum      
  Ute Becker             : All parallelization in ORCA, NUMFREQ, NUMCALC 
  Giovanni Bistoni       : ED, misc. LED, open-shell LED, HFLD           
  Martin Brehm           : Molecular dynamics                            
  Dmytro Bykov           : pre 5.0 version of the SCF Hessian            
  Marcos Casanova-Páez   : Triplet and SCS-CIS(D). UHF-(DLPNO)-IP/EA/STEOM-CCSD. UHF-CVS-IP/STEOM-CCSD   
  Vijay G. Chilkuri      : MRCI spin determinant printing, contributions to CSF-ICE 
  Pauline Colinet        : FMM embedding                                 
  Dipayan Datta          : RHF DLPNO-CCSD density                        
  Achintya Kumar Dutta   : EOM-CC, STEOM-CC                              
  Nicolas Foglia         : Exact transition moments, OPA infrastructure, MCD improvements    
  Dmitry Ganyushin       : Spin-Orbit,Spin-Spin,Magnetic field MRCI      
  Miquel Garcia-Rates    : C-PCM and meta-GGA Hessian, CCSD/C-PCM, Gaussian charge scheme 
  Tiago L. C. Gouveia    : GS-ROHF, GS-ROCIS                             
  Yang Guo               : DLPNO-NEVPT2, F12-NEVPT2, CIM, IAO-localization        
  Andreas Hansen         : Spin unrestricted coupled pair/coupled cluster methods 
  Ingolf Harden          : AUTO-CI MPn and infrastructure                
  Benjamin Helmich-Paris : MC-RPA, TRAH-(SCF,CASSCF), AVAS, COSX integrals, SCF dyn. polar. 
  Lee Huntington         : MR-EOM, pCC                                   
  Robert Izsak           : Overlap fitted RIJCOSX, COSX-SCS-MP3, EOM     
  Riya Kayal             : Wick's Theorem for AUTO-CI, AUTO-CI UHF-CCSDT 
  Emily Kempfer          : AUTO-CI, RHF CISDT and CCSDT                  
  Christian Kollmar      : KDIIS, OOCD, Brueckner-CCSD(T), CCSD density, CASPT2, CASPT2-K, improved NEVPT2 
  Axel Koslowski         : Symmetry handling                             
  Simone Kossmann        : meta-GGA functionals, TD-DFT gradient, OOMP2, (MP2 Hessian; deprecated post 5.0) 
  Lucas Lang             : DCDCAS                                        
  Marvin Lechner         : AUTO-CI (C++ implementation), FIC-MRCC        
  Spencer Leger          : CASSCF response                               
  Dagmar Lenk            : GEPOL surface, SMD, ORCA-2-JSON               
  Dimitrios Liakos       : Extrapolation schemes; Compound Job, initial MDCI parallelization 
  Dimitrios Manganas     : Further ROCIS development; embedding schemes. LFT, Crystal Embedding 
  Dimitrios Pantazis     : SARC Basis sets                               
  Anastasios Papadopoulos: AUTO-CI, single reference methods and gradients 
  Taras Petrenko         : pre 6.0 DFT Hessian and TD-DFT gradient, (ASA, deprecated), ECA, 1-Electron XAS/XES, NRVS 
  Peter Pinski           : DLPNO-MP2, DLPNO-MP2 Gradient                 
  Christoph Reimann      : Effective Core Potentials                     
  Marius Retegan         : Local ZFS, SOC                                
  Christoph Riplinger    : Optimizer, TS searches, QM/MM, DLPNO-CCSD(T), (RO)-DLPNO pert. Triples 
  Michael Roemelt        : Original ROCIS implementation                 
  Masaaki Saitow         : Open-shell DLPNO-CCSD energy and density      
  Barbara Sandhoefer     : DKH picture change effects                    
  Kantharuban Sivalingam : CASSCF convergence/infrastructure, NEVPT2 and variants, FIC-MRCI 
  Bernardo de Souza      : ESD, SOC TD-DFT                               
  Georgi L. Stoychev     : AutoAux, RI-MP2 NMR, DLPNO-MP2 response, X2C  
  Van Anh Tran           : RI-MP2 g-tensors                              
  Willem Van den Heuvel  : Paramagnetic NMR                              
  Zikuan Wang            : NOTCH, Electric field optimization            
  Frank Wennmohs         : Technical directorship and infrastructure     
  Hang Xu                : AUTO-CI-Response properties                   
                                                                         
[FACCTs GmbH]                                                            
  Markus Bursch, Miquel Garcia-Rates, Christoph Riplinger, Bernardo de Souza, Georgi L. Stoychev 
                                                                 
  APM, Basis sets (HGBS, AHGBS, def-TZVP (Ac-Lr), def2-XVPD (La-Lu)), CI-OPT, improved COSX, DLPNO-Multilevel,           
  DOCKER, DRACO, updates on ESD, GOAT, IRC, LR-CPCM, MBIS, meta-GGA TD-DFT gradient, ML-optimized integration grids, 
  MM, NACMEs, nearIR, NEB, NEB-TS, NL-DFT gradient (VV10), 2- and 3-layer-ONIOM, interface openCOSMO-RS, QMMM,   
  Crystal-QMMM, SF, symmetry and pop. for TD-DFT, r2SCAN hybrids, SOLVATOR                                   
                                                                         
[Other institutions]                                                     
  V. Asgeirsson          : NEB                                           
  Christoph Bannwarth    : sTDA-DFT, sTD-DFT, PBEh-3c, B97-3c, D3        
  Sebastian Ehlert       : rSCAN, r2SCAN, r2SCAN-3c, D4, dhf basis sets  
  Marvin Friede          : D4 for Fr, Ra, Ac-Lr                          
  Lars Goerigk           : TD-DFT with DH, B97 family of functionals     
  Stefan Grimme          : VdW corrections, initial TS optimization, DFT functionals, gCP, sTDA/sTD-DF 
  Waldemar Hujo          : DFT-NL                                        
  H. Jonsson             : NEB                                           
  Holger Kruse           : gCP                                           
  Marcel Mueller         : wB97X-3c, vDZP basis set                      
  Hagen Neugebauer       : wr2SCAN                                       
  Tobias Risthaus        : range-separated hybrid DFT                    
  Lukas Wittmann         : regularized MP2, r2SCAN double-hybrids, wr2SCAN        
                                                                         
We gratefully acknowledge several colleagues who have allowed us to      
interface, adapt or use parts of their codes:                            
  Ed Valeev, F. Pavosevic, A. Kumar             : LibInt (2-el integral package), F12 methods 
  Garnet Chan, S. Sharma, J. Yang, R. Olivares  : DMRG                   
  Ulf Ekstrom                                   : XCFun DFT Library      
  Mihaly Kallay                                 : mrcc  (arbitrary order and MRCC methods)
  Frank Weinhold                                : gennbo (NPA and NBO analysis)           
  Simon Mueller                                 : openCOSMO-RS                            
  Christopher J. Cramer and Donald G. Truhlar   : smd solvation model                     
  S Lehtola, MJT Oliveira, MAL Marques          : LibXC Library                           
  Liviu Ungur et al                             : ANISO software                          


 Your calculation uses the libint2 library for the computation of 2-el integrals
 For citations please refer to: http://libint.valeyev.net

 Your ORCA version has been built with support for libXC version: 6.2.2
 For citations please refer to: https://libxc.gitlab.io

 This ORCA versions uses:
   CBLAS   interface :  Fast vector & matrix operations
   LAPACKE interface :  Fast linear algebra routines
   SCALAPACK package :  Parallel linear algebra routines
   Shared memory     :  Shared parallel matrices
   BLAS/LAPACK       :  OpenBLAS 0.3.27  USE64BITINT DYNAMIC_ARCH NO_AFFINITY Zen SINGLE_THREADED
        Core in use  :  Zen
   Copyright (c) 2011-2014, The OpenBLAS Project




***************************************
The coordinates will be read from file: xtb_opt.xyz
***************************************


Your calculation utilizes the geometrical counterpoise correction gCP
Please cite in your paper:
H.Kruse, S. Grimme J.Chem.Phys., 136, (2012), 154101 
   

Your calculation utilizes the atom-pairwise dispersion correction
based on EEQ partial charges (D4)


================================================================================

----- Orbital basis set information -----
Your calculation utilizes the basis: def2-mTZVPP
   Stefan Grimme, Andreas Hansen, Sebastian Ehlert, and Jan-Michael Mewes 
   J. Chem. Phys. 154, 064103 (2021). DOI: 10.1063/5.0040021

----- AuxJ basis set information -----
Your calculation utilizes the auxiliary basis: def2/J
   F. Weigend, Phys. Chem. Chem. Phys. 8, 1057 (2006).

================================================================================
                                        WARNINGS
                       Please study these warnings very carefully!
================================================================================

WARNING: Old DensityContainer found on disk!
         Will remove this file - 
         If you want to keep old densities, please start your calculation with a different basename. 



WARNING: SCAN, rSCAN, or r2SCAN functional requested.
  ===> : libXC variant has now been activated.



================================================================================
                                       INPUT FILE
================================================================================
NAME = xtb_opt.inp
|  1> ! r2scan-3c def2/J RI DEFGRID2 scfconv7 ENGRAD tightSCF miniprint
|  2> * xyzfile 0 1 xtb_opt.xyz
|  3> 
|  4>                          ****END OF INPUT****
================================================================================

                     *******************************
                     * Energy+Gradient Calculation *
                     *******************************

---------------------------------
CARTESIAN COORDINATES (ANGSTROEM)
---------------------------------
  C     -2.139681   -0.917037   -0.292974
  C     -1.202083   -0.326111    0.757324
  H     -1.769613   -0.345741    1.696271
  C     -0.762573    1.131948    0.567530
  H     -1.619015    1.716076    0.209867
  C      0.388843    1.299995   -0.442465
  H      0.796103    2.308073   -0.276908
  C      1.523858    0.300399   -0.133531
  H      2.195173    0.245779   -1.000595
  C      1.053530   -1.120104    0.198895
  H      1.849884   -1.614865    0.767483
  O     -0.064505   -1.179706    1.046527
  O      0.849651   -1.829265   -1.034857
  O      2.236009    0.702696    1.052904
  O     -0.017001    1.258531   -1.792748
  O     -0.398563    1.686714    1.831870
  O     -1.667505   -0.913566   -1.640090
  H     -3.062549   -0.325917   -0.288800
  H     -2.393755   -1.940811    0.018776
  H      0.812476   -2.768323   -0.813095
  H      2.573794    1.593718    0.902325
  H     -0.686972    0.553308   -1.898023
  H      0.422342    1.248860    2.102860
  H     -0.841509   -1.435319   -1.646242

----------------------------
CARTESIAN COORDINATES (A.U.)
----------------------------
  NO LB      ZA    FRAG     MASS         X           Y           Z
   0 C     6.0000    0    12.011   -4.043412   -1.732948   -0.553641
   1 C     6.0000    0    12.011   -2.271607   -0.616260    1.431135
   2 H     1.0000    0     1.008   -3.344084   -0.653357    3.205487
   3 C     6.0000    0    12.011   -1.441054    2.139071    1.072476
   4 H     1.0000    0     1.008   -3.059494    3.242913    0.396592
   5 C     6.0000    0    12.011    0.734807    2.456634   -0.836138
   6 H     1.0000    0     1.008    1.504416    4.361625   -0.523281
   7 C     6.0000    0    12.011    2.879674    0.567671   -0.252338
   8 H     1.0000    0     1.008    4.148275    0.464455   -1.890850
   9 C     6.0000    0    12.011    1.990882   -2.116690    0.375858
  10 H     1.0000    0     1.008    3.495775   -3.051652    1.450333
  11 O     8.0000    0    15.999   -0.121898   -2.229322    1.977650
  12 O     8.0000    0    15.999    1.605608   -3.456810   -1.955595
  13 O     8.0000    0    15.999    4.225444    1.327903    1.989700
  14 O     8.0000    0    15.999   -0.032128    2.378278   -3.387803
  15 O     8.0000    0    15.999   -0.753175    3.187427    3.461733
  16 O     8.0000    0    15.999   -3.151128   -1.726390   -3.099321
  17 H     1.0000    0     1.008   -5.787379   -0.615895   -0.545753
  18 H     1.0000    0     1.008   -4.523541   -3.667601    0.035482
  19 H     1.0000    0     1.008    1.535357   -5.231373   -1.536526
  20 H     1.0000    0     1.008    4.863767    3.011690    1.705148
  21 H     1.0000    0     1.008   -1.298189    1.045600   -3.586744
  22 H     1.0000    0     1.008    0.798111    2.360004    3.973830
  23 H     1.0000    0     1.008   -1.590222   -2.712360   -3.110946

------------------------------------------------------------------------------
                   ___                                                        
                  /   \      - P O W E R E D   B Y -                         
                 /     \                                                     
                 |  |  |   _    _      __       _____    __    __             
                 |  |  |  | |  | |    /  \     |  _  \  |  |  /  |          
                  \  \/   | |  | |   /    \    | | | |  |  | /  /          
                 / \  \   | |__| |  /  /\  \   | |_| |  |  |/  /          
                |  |  |   |  __  | /  /__\  \  |    /   |      \           
                |  |  |   | |  | | |   __   |  |    \   |  |\   \          
                \     /   | |  | | |  |  |  |  | |\  \  |  | \   \       
                 \___/    |_|  |_| |__|  |__|  |_| \__\ |__|  \__/        
                                                                              
                      - O R C A' S   B I G   F R I E N D -                    
                                      &                                       
                       - I N T E G R A L  F E E D E R -                       
                                                                              
 v1 FN, 2020, v2 2021, v3 2022-2024                                           
------------------------------------------------------------------------------


----------------------
SHARK INTEGRAL PACKAGE
----------------------

Number of atoms                             ...     24
Number of basis functions                   ...    318
Number of shells                            ...    150
Maximum angular momentum                    ...      2
Integral batch strategy                     ... SHARK/LIBINT Hybrid
RI-J (if used) integral strategy            ... SPLIT-RIJ (Revised 2003 algorithm where possible)
Printlevel                                  ...      1
Contraction scheme used                     ... SEGMENTED contraction
Prescreening option                         ... SCHWARTZ
   Thresh                                   ... 3.000e-11
   Tcut                                     ... 1.000e-12
   Tpresel                                  ... 1.000e-12 
Coulomb Range Separation                    ... NOT USED
Exchange Range Separation                   ... NOT USED
Multipole approximations                    ... NOT USED
Finite Nucleus Model                        ... NOT USED
CABS basis                                  ... NOT available
Auxiliary Coulomb fitting basis             ... AVAILABLE
   # of basis functions in Aux-J            ...    720
   # of shells in Aux-J                     ...    240
   Maximum angular momentum in Aux-J        ...      4
Auxiliary J/K fitting basis                 ... NOT available
Auxiliary Correlation fitting basis         ... NOT available
Auxiliary 'external' fitting basis          ... NOT available

Checking pre-screening integrals            ... done (  0.0 sec) Dimension = 150
Check shell pair data                       ... done (  0.0 sec)
Shell pair information
Shell pair cut-off parameter TPreSel        ...   1.0e-12
Total number of shell pairs                 ...     11325
Shell pairs after pre-screening             ...     10187
Total number of primitive shell pairs       ...     40203
Primitive shell pairs kept                  ...     24947
          la=0 lb=0:   3077 shell pairs
          la=1 lb=0:   3622 shell pairs
          la=1 lb=1:   1096 shell pairs
          la=2 lb=0:   1399 shell pairs
          la=2 lb=1:    826 shell pairs
          la=2 lb=2:    167 shell pairs

Calculating one electron integrals          ... done (  0.0 sec)
Calculating RI/J V-Matrix + Cholesky decomp.... done (  0.0 sec)
Calculating Nuclear repulsion               ... done (  0.0 sec) ENN=    867.914104458419 Eh

Diagonalization of the overlap matrix:
Smallest eigenvalue                        ... 4.081e-05
Time for diagonalization                   ...    0.010 sec
Threshold for overlap eigenvalues          ... 1.000e-07
Number of eigenvalues below threshold      ... 0
Time for construction of square roots      ...    0.007 sec
Total time needed                          ...    0.018 sec

-------------------
DFT GRID GENERATION
-------------------

General Integration Accuracy     IntAcc      ... 4.388
Radial Grid Type                 RadialGrid  ... OptM3 with GC (2021)
Angular Grid (max. ang.)         AngularGrid ... 4 (Lebedev-302)
Angular grid pruning method      GridPruning ... 4 (adaptive)
Weight generation scheme         WeightScheme... mBecke (2022)
Basis function cutoff            BFCut       ... 1.0000e-11
Integration weight cutoff        WCut        ... 1.0000e-14
Partially contracted basis set               ... off
Rotationally invariant grid construction     ... off
Angular grids for H and He will be reduced by one unit
Diffuse basis detected: some atoms will have their outermost
                        angular grid increased by 1.

Total number of grid points                  ...   111767
Total number of batches                      ...     1757
Average number of points per batch           ...       63
Average number of grid points per atom       ...     4657
Initializing property integral containers    ... done (  0.0 sec)

SHARK setup successfully completed in   1.4 seconds

Maximum memory used throughout the entire STARTUP-calculation: 57.6 MB
Occupation numbers will be reassigned to an Aufbau configuration
             **** ENERGY FILE WAS UPDATED (xtb_opt.en.tmp) ****
Finished Guess after   0.1 sec
Maximum memory used throughout the entire GUESS-calculation: 28.3 MB
----------------------------------------D-I-I-S--------------------------------------------
Iteration    Energy (Eh)           Delta-E    RMSDP     MaxDP     DIISErr   Damp  Time(sec)
-------------------------------------------------------------------------------------------
               ***  Starting incremental Fock matrix formation  ***
                              *** Initializing SOSCF ***
---------------------------------------S-O-S-C-F--------------------------------------
Iteration    Energy (Eh)           Delta-E    RMSDP     MaxDP     MaxGrad    Time(sec)
--------------------------------------------------------------------------------------
    1    -687.0915526664890649     0.00e+00  2.96e-05  1.18e-03  3.06e-05     4.6
               *** Restarting incremental Fock matrix formation ***
    2    -687.0915566535765038    -3.99e-06  1.06e-05  4.21e-04  2.84e-05     4.5
    3    -687.0915567005921503    -4.70e-08  6.43e-06  4.26e-04  5.29e-05     3.3
                 **** Energy Check signals convergence ****

               *****************************************************
               *                     SUCCESS                       *
               *           SCF CONVERGED AFTER   3 CYCLES          *
               *****************************************************

             **** ENERGY FILE WAS UPDATED (xtb_opt.en.tmp) ****

----------------
TOTAL SCF ENERGY
----------------

Total Energy       :       -687.09155670059215 Eh          -18696.71178 eV

Components:
Nuclear Repulsion  :        867.91410445841927 Eh           23617.14345 eV
Electronic Energy  :      -1555.00566115901142 Eh          -42313.85523 eV
One Electron Energy:      -2665.74823439580223 Eh          -72538.69725 eV
Two Electron Energy:       1110.74257323679080 Eh           30224.84202 eV

Virial components:
Potential Energy   :      -1371.33086806985443 Eh          -37315.81002 eV
Kinetic Energy     :        684.23931136926228 Eh           18619.09824 eV
Virial Ratio       :          2.00416849088314

DFT components:
N(Alpha)           :       48.000184132195 electrons
N(Beta)            :       48.000184132195 electrons
N(Total)           :       96.000368264391 electrons
E(X)               :      -85.230247870724 Eh       
E(C)               :       -3.198133676273 Eh       
E(XC)              :      -88.428381546997 Eh       

---------------
SCF CONVERGENCE
---------------

  Last Energy change         ...    4.7016e-08  Tolerance :   1.0000e-07
  Last MAX-Density change    ...    4.2570e-04  Tolerance :   1.0000e-07
  Last RMS-Density change    ...    6.4331e-06  Tolerance :   5.0000e-09
  Last DIIS Error            ...    6.4658e-04  Tolerance :   1.0000e-07
  Last Orbital Gradient      ...    5.2899e-05  Tolerance :   1.0000e-04
  Last Orbital Rotation      ...    3.6290e-05  Tolerance :   1.0000e-04


----------------
ORBITAL ENERGIES
----------------

  NO   OCC          E(Eh)            E(eV) 
   0   2.0000     -18.994015      -516.8534 
   1   2.0000     -18.981701      -516.5183 
   2   2.0000     -18.978140      -516.4214 
   3   2.0000     -18.964958      -516.0627 
   4   2.0000     -18.949070      -515.6304 
   5   2.0000     -18.939780      -515.3776 
   6   2.0000     -10.155997      -276.3587 
   7   2.0000     -10.102372      -274.8995 
   8   2.0000     -10.099944      -274.8335 
   9   2.0000     -10.094881      -274.6957 
  10   2.0000     -10.094800      -274.6935 
  11   2.0000     -10.093455      -274.6569 
  12   2.0000      -1.056886       -28.7593 
  13   2.0000      -1.012334       -27.5470 
  14   2.0000      -1.001633       -27.2558 
  15   2.0000      -0.995780       -27.0965 
  16   2.0000      -0.983735       -26.7688 
  17   2.0000      -0.974825       -26.5263 
  18   2.0000      -0.756189       -20.5769 
  19   2.0000      -0.742742       -20.2110 
  20   2.0000      -0.672863       -18.3095 
  21   2.0000      -0.627852       -17.0847 
  22   2.0000      -0.616959       -16.7883 
  23   2.0000      -0.553276       -15.0554 
  24   2.0000      -0.518132       -14.0991 
  25   2.0000      -0.514602       -14.0030 
  26   2.0000      -0.493630       -13.4324 
  27   2.0000      -0.489422       -13.3178 
  28   2.0000      -0.463509       -12.6127 
  29   2.0000      -0.452326       -12.3084 
  30   2.0000      -0.448833       -12.2134 
  31   2.0000      -0.435446       -11.8491 
  32   2.0000      -0.412795       -11.2327 
  33   2.0000      -0.398515       -10.8442 
  34   2.0000      -0.386229       -10.5098 
  35   2.0000      -0.379561       -10.3284 
  36   2.0000      -0.362288        -9.8584 
  37   2.0000      -0.353066        -9.6074 
  38   2.0000      -0.336627        -9.1601 
  39   2.0000      -0.331414        -9.0182 
  40   2.0000      -0.306300        -8.3348 
  41   2.0000      -0.303972        -8.2715 
  42   2.0000      -0.291118        -7.9217 
  43   2.0000      -0.276034        -7.5113 
  44   2.0000      -0.271243        -7.3809 
  45   2.0000      -0.253143        -6.8884 
  46   2.0000      -0.240678        -6.5492 
  47   2.0000      -0.221824        -6.0361 
  48   0.0000       0.014340         0.3902 
  49   0.0000       0.043745         1.1904 
  50   0.0000       0.054222         1.4754 
  51   0.0000       0.071669         1.9502 
  52   0.0000       0.075625         2.0579 
  53   0.0000       0.088914         2.4195 
  54   0.0000       0.103336         2.8119 
  55   0.0000       0.109938         2.9916 
  56   0.0000       0.117511         3.1976 
  57   0.0000       0.135845         3.6965 
  58   0.0000       0.139519         3.7965 
*Only the first 10 virtual orbitals were printed.
Total SCF time: 0 days 0 hours 0 min 12 sec 
Finished LeanSCF after  12.8 sec

Maximum memory used throughout the entire LEANSCF-calculation: 41.4 MB


-------------------------------------------------------------------------------
                          DFT DISPERSION CORRECTION                            
                                                                               
                                DFTD4 V3.4.0                                   
-------------------------------------------------------------------------------
-------------------------   ----------------
Dispersion correction           -0.008821794
-------------------------   ----------------

------------------   -----------------
gCP correction             0.022179837
------------------   -----------------

-------------------------   --------------------
FINAL SINGLE POINT ENERGY      -687.078198657517
-------------------------   --------------------

------------------------------------------------------------------------------
                         ORCA SCF GRADIENT CALCULATION
------------------------------------------------------------------------------

Nuc. rep. gradient        (SHARK) ... done (  0.0 sec)
HCore & Overlap gradient  (SHARK) ... done (  0.7 sec)
Split-RIJ-J gradient      (SHARK) ... done (  3.7 sec)
XC gradient                       ... done ( 12.7 sec)
Dispersion correction             ... done (  0.0 sec)

-------------------
DISPERSION GRADIENT
-------------------

   1   C   :   -0.000124542   -0.000051156   -0.000004617
   2   C   :   -0.000062638   -0.000019677    0.000039198
   3   H   :   -0.000039863   -0.000007894    0.000043784
   4   C   :   -0.000038075    0.000065662    0.000031925
   5   H   :   -0.000031164    0.000046073    0.000013058
   6   C   :    0.000032476    0.000077256   -0.000013761
   7   H   :    0.000015134    0.000050110   -0.000012715
   8   C   :    0.000088186    0.000015709   -0.000001927
   9   H   :    0.000053137    0.000006202   -0.000018857
  10   C   :    0.000066533   -0.000059885    0.000010583
  11   H   :    0.000038014   -0.000037130    0.000010134
  12   O   :    0.000001620   -0.000071977    0.000060168
  13   O   :    0.000061461   -0.000124324   -0.000040051
  14   O   :    0.000118842    0.000048974    0.000038260
  15   O   :   -0.000017456    0.000065583   -0.000114294
  16   O   :   -0.000002029    0.000076978    0.000103123
[...]
  19   2.0000      -0.742669       -20.2091 
  20   2.0000      -0.672816       -18.3082 
  21   2.0000      -0.627800       -17.0833 
  22   2.0000      -0.616918       -16.7872 
  23   2.0000      -0.553247       -15.0546 
  24   2.0000      -0.518086       -14.0978 
  25   2.0000      -0.514586       -14.0026 
  26   2.0000      -0.493632       -13.4324 
  27   2.0000      -0.489383       -13.3168 
  28   2.0000      -0.463473       -12.6117 
  29   2.0000      -0.452294       -12.3075 
  30   2.0000      -0.448797       -12.2124 
  31   2.0000      -0.435425       -11.8485 
  32   2.0000      -0.412770       -11.2321 
  33   2.0000      -0.398486       -10.8434 
  34   2.0000      -0.386214       -10.5094 
  35   2.0000      -0.379543       -10.3279 
  36   2.0000      -0.362262        -9.8577 
  37   2.0000      -0.353087        -9.6080 
  38   2.0000      -0.336643        -9.1605 
  39   2.0000      -0.331427        -9.0186 
  40   2.0000      -0.306300        -8.3349 
  41   2.0000      -0.303956        -8.2711 
  42   2.0000      -0.291106        -7.9214 
  43   2.0000      -0.276048        -7.5116 
  44   2.0000      -0.271267        -7.3815 
  45   2.0000      -0.253155        -6.8887 
  46   2.0000      -0.240676        -6.5491 
  47   2.0000      -0.221833        -6.0364 
  48   0.0000       0.014369         0.3910 
  49   0.0000       0.043758         1.1907 
  50   0.0000       0.054252         1.4763 
  51   0.0000       0.071697         1.9510 
  52   0.0000       0.075650         2.0585 
  53   0.0000       0.088931         2.4199 
  54   0.0000       0.103370         2.8128 
  55   0.0000       0.109963         2.9922 
  56   0.0000       0.117545         3.1986 
  57   0.0000       0.135873         3.6973 
  58   0.0000       0.139557         3.7975 
*Only the first 10 virtual orbitals were printed.
Total SCF time: 0 days 0 hours 0 min 11 sec 
Finished LeanSCF after  11.3 sec

Maximum memory used throughout the entire LEANSCF-calculation: 41.4 MB


-------------------------------------------------------------------------------
                          DFT DISPERSION CORRECTION                            
                                                                               
                                DFTD4 V3.4.0                                   
-------------------------------------------------------------------------------
-------------------------   ----------------
Dispersion correction           -0.008821794
-------------------------   ----------------

------------------   -----------------
gCP correction             0.022179837
------------------   -----------------

-------------------------   --------------------
FINAL SINGLE POINT ENERGY      -687.078198885051
-------------------------   --------------------

------------------------------------------------------------------------------
                         ORCA SCF GRADIENT CALCULATION
------------------------------------------------------------------------------

Nuc. rep. gradient        (SHARK) ... done (  0.0 sec)
HCore & Overlap gradient  (SHARK) ... done (  0.7 sec)
Split-RIJ-J gradient      (SHARK) ... done (  3.7 sec)
XC gradient                       ... done ( 12.4 sec)
Dispersion correction             ... done (  0.0 sec)

-------------------
DISPERSION GRADIENT
-------------------

   1   C   :   -0.000124542   -0.000051156   -0.000004617
   2   C   :   -0.000062638   -0.000019677    0.000039198
   3   H   :   -0.000039863   -0.000007894    0.000043784
   4   C   :   -0.000038075    0.000065662    0.000031925
   5   H   :   -0.000031164    0.000046073    0.000013058
   6   C   :    0.000032476    0.000077256   -0.000013761
   7   H   :    0.000015134    0.000050110   -0.000012715
   8   C   :    0.000088186    0.000015709   -0.000001927
   9   H   :    0.000053137    0.000006202   -0.000018857
  10   C   :    0.000066533   -0.000059885    0.000010583
  11   H   :    0.000038014   -0.000037130    0.000010134
  12   O   :    0.000001620   -0.000071977    0.000060168
  13   O   :    0.000061461   -0.000124324   -0.000040051
  14   O   :    0.000118842    0.000048974    0.000038260
  15   O   :   -0.000017456    0.000065583   -0.000114294
  16   O   :   -0.000002029    0.000076978    0.000103123
  17   O   :   -0.000066013   -0.000061263   -0.000085138
  18   H   :   -0.000056683   -0.000015774   -0.000009973
  19   H   :   -0.000048972   -0.000031283   -0.000003430
  20   H   :    0.000025144   -0.000041931   -0.000019624
  21   H   :    0.000043367    0.000008188    0.000019838
  22   H   :    0.000005304    0.000038240   -0.000046628
  23   H   :   -0.000017961    0.000041010    0.000035011
  24   H   :   -0.000043821   -0.000017693   -0.000034069

Difference to translation invariance:
           :   -0.0000000000    0.0000000000   -0.0000000000

Difference to rotation invariance:
           :    0.0000000000    0.0000000000    0.0000000000

Norm of the Dispersion gradient    ...    0.0004354245
RMS gradient                       ...    0.0000513153
MAX gradient                       ...    0.0001245416
gCP correction                   ... done

------------------
CARTESIAN GRADIENT
------------------

   1   C   :   -0.000005774    0.000015222   -0.000093973
   2   C   :    0.000030820   -0.000040457    0.000042827
   3   H   :    0.000003343   -0.000019441    0.000011010
   4   C   :    0.000063474    0.000011003    0.000127378
   5   H   :    0.000036171    0.000029349    0.000027038
   6   C   :   -0.000001536    0.000046972   -0.000209257
   7   H   :    0.000023674    0.000040150   -0.000005762
   8   C   :   -0.000027198    0.000003210    0.000115415
   9   H   :   -0.000007461   -0.000006192   -0.000009145
  10   C   :   -0.000144272   -0.000032422    0.000051078
  11   H   :    0.000004106   -0.000001786   -0.000001903
  12   O   :    0.000047076    0.000008083   -0.000107761
  13   O   :    0.000018169   -0.000031048    0.000007932
  14   O   :    0.000048430   -0.000040473   -0.000072585
  15   O   :    0.000005856    0.000039609    0.000151112
  16   O   :   -0.000053399   -0.000065695   -0.000098152
  17   O   :   -0.000018291    0.000006058    0.000114339
  18   H   :   -0.000008534    0.000008899   -0.000019878
  19   H   :   -0.000000176    0.000002415   -0.000003980
  20   H   :   -0.000024593   -0.000015541   -0.000027917
  21   H   :   -0.000022386    0.000079166    0.000021117
  22   H   :   -0.000029695   -0.000041513   -0.000003540
  23   H   :    0.000068352    0.000001199    0.000005172
  24   H   :   -0.000006156    0.000003233   -0.000020568

Difference to translation invariance:
           :    0.0000000000    0.0000000000    0.0000000000

Difference to rotation invariance:
           :    0.0004313926    0.0006406320   -0.0004481575

Norm of the Cartesian gradient     ...    0.0004697205
RMS gradient                       ...    0.0000553571
MAX gradient                       ...    0.0002092575

-------
TIMINGS
-------

Total SCF gradient time     ....       16.741 sec

Densities                   ....       0.001 sec  (  0.0%)
One electron gradient       ....       0.655 sec  (  3.9%)
RI-J Coulomb gradient       ....       3.685 sec  ( 22.0%)
XC gradient                 ....      12.363 sec  ( 73.8%)

Maximum memory used throughout the entire SCFGRAD-calculation: 49.3 MB

------------------------------------------------------------------------------
                              ORCA PROPERTY CALCULATIONS
------------------------------------------------------------------------------

GBWName                                 ... xtb_opt.gbw
Number of atoms                         ...     24
Number of basis functions               ...    318
Max core memory                         ...   1024 MB

Electric properties:
Dipole moment                           ... YES
Quadrupole moment                       ...  NO
Static polarizability (Dipole/Dipole)   ...  NO
Static polarizability (Dipole/Quad.)    ...  NO
Static polarizability (Quad./Quad.)     ...  NO
Static polarizability (Velocity)        ...  NO

Atomic electric properties:
Dipole moment                           ...  NO
Quadrupole moment                       ...  NO
Static polarizability                   ...  NO

Choice of electric origin               ... Center of mass
Position of electric origin             ...    -0.004183    -0.007672    -0.009913

General magnetic properties:
Magnetizability                         ...  NO

EPR properties:
g-Tensor (aka g-matrix)                 ...  NO
Zero-Field splitting spin-orbit         ...  NO
Zero-field splitting spin-spin          ...  NO
Hyperfine couplings                     ...  NO (   0 nuclei)
Quadrupole couplings                    ...  NO (   0 nuclei)
Contact density                         ...  NO (   0 nuclei)

NMR properties:
Chemical shifts                         ...  NO (   0 nuclei)
Spin-rotation constants                 ...  NO (   0 nuclei)
Spin-spin couplings                     ...  NO (   0 nuclei,    0 pairs)

Choice of magnetic origin               ... GIAO
Position of magnetic origin             ...     0.000000     0.000000     0.000000

Properties with geometric perturbations:
SCF Hessian                             ...  NO
IR spectrum                             ...  NO
VCD spectrum                            ...  NO
X-ray spectroscopy properties:
SCF XES/XAS/RIXS spectra                ...  NO


-------------
DIPOLE MOMENT
-------------

Method             : SCF
Type of density    : Electron Density
Multiplicity       :   1
Irrep              :   0
Energy             :  -687.0915569281261241 Eh
Relativity type    : 
Basis              : AO
                                X                 Y                 Z
Electronic contribution:      1.963441553      -0.198195291       0.453869406
Nuclear contribution   :     -1.578087974      -0.675851313      -0.160510519
                        -----------------------------------------
Total Dipole Moment    :      0.385353579      -0.874046604       0.293358887
                        -----------------------------------------
Magnitude (a.u.)       :      0.999256866
Magnitude (Debye)      :      2.539909103



--------------------
Rotational spectrum 
--------------------
 
Rotational constants in cm-1:             0.039267             0.031035             0.027522 
Rotational constants in MHz :          1177.184431           930.419539           825.100982 

Dipole components along the rotational axes: 
x,y,z [a.u.] :    -0.068837     0.727057     0.682029 
x,y,z [Debye]:    -0.174970     1.848033     1.733580 

 

Dipole moment calculation done in   0.0 sec 

Maximum memory used throughout the entire PROP-calculation: 26.9 MB

--------------------------------
SUGGESTED CITATIONS FOR THIS RUN
--------------------------------

Below you find a list of papers that are relevant to this ORCA run
We neither can nor want to force you to cite these papers, but we appreciate if you do
You receive ORCA, which is the product of decades of hard work by many enthusiastic individuals, for free
The only thing we kindly ask in return is that you cite our papers,
We deeply appreciate it, if you show your appreciation for ORCA by not just citing the generic ORCA reference.

Please note that relegating all ORCA citations to the supporting information does *not* help us.
SI sections are not indexed - citations you put there will not count into any citation statistics
But we need these citations in order to attract the funding resources that allow us to do what we are doing

Therefore, if you are a happy ORCA user, please consider citing a few of the papers listed below in the main body of your paper

In addition to the list printed below, the program has created the file xtb_opt.bibtex that contains the list in bibtex format
You can import this file easily into all common literature databanks and citation aid programs


List of essential papers. We consider these as the minimum necessary citations

  1. Neese,F.
     Software update: the ORCA program system, version 5.0
     WIRES Comput. Molec. Sci., 2022 12(1)e1606
     doi.org/10.1002/wcms.1606
  2. Grimme,S.; Hansen,A.; Ehlert,S.; Mewes,J.
     r2SCAN-3c: A 'Swiss army knife' composite electronic-structure method
     J. Chem. Phys., 2021 154 064103
     doi.org/10.1063/5.0040021

List of papers to cite with high priority. The work reported in these papers was absolutely
necessary for this run to complete.
Our perspective: the developers of density functionals and basis sets usually get cited in chemistry papers
Good! But without the algorithms to do something with them, the functionals or basis sets would not do anything.
Hence, in our opinion, the algorithm design and method developments papers are equally worthy of getting cited

  1. Neese,F.
     An improvement of the resolution of the identity approximation for the formation of the Coulomb matrix
     J. Comp. Chem., 2003 24(14)1740-1747
     doi.org/10.1002/jcc.10318
  2. Neese,F.
     The SHARK Integral Generation and Digestion System
     J. Comp. Chem., 2022  1-16
     doi.org/10.1002/jcc.26942
  3. Lehtola,S.; Steigemann,C.; Oliveira,M.; Marques,M.
     Recent developments in Libxc - A comprehensive library of functionals for density functional theory
     Software X, 2018 7 
     doi.org/10.1016/j.softx.2017.11.002
  4. Caldeweyher,E.; Bannwarth,C.; Grimme,S.
     Extension of the D3 dispersion coefficient model
     J. Chem. Phys., 2017 147 034112
     doi.org/10.1063/1.4993215
  5. Caldeweyher,E.; Ehlert,S.; Hansen,A.; Neugebauer,H.; Spicher,S.; Bannwarth,C.; Grimme,S.
     A generally applicable atomic-charge dependent London dispersion correction
     J. Chem. Phys., 2019 150 154122
     doi.org/10.1063/1.5090222
  6. Caldeweyher,E.; Mewes,J.; Ehlert,S.; Grimme,S.
     Extension and evaluation of the D4 London-dispersion model for periodic systems
     Phys. Chem. Chem. Phys., 2020 22(16)8499-8512
     doi.org/10.1039/D0CP00502A
  7. Wittmann,L.; Gordiy,I.; Friede,M.; Helmich-Paris,B.; Grimme,S.; Hansen,A.; Bursch,M.
     Extension of the D3 and D4 London Dispersion Corrections to the full Actinides Series
     Phys. Chem. Chem. Phys., 2024 26(32)21379-21394
     doi.org/https://doi.org/10.1039/D4CP01514B 

List of suggested additional citations. These are papers that are important in the 'surrounding' of 
of this run, or papers that preceded the highly important papers. If you like your results we are grateful for a citation.

  1. Neese,F.
     The ORCA program system
     WIRES Comput. Molec. Sci., 2012 2(1)73-78
     doi.org/10.1002/wcms.81
  2. Neese,F.
     Software update: the ORCA program system, version 4.0
     WIRES Comput. Molec. Sci., 2018 8(1)1-6
     doi.org/10.1002/wcms.1327
  3. Neese,F.; Wennmohs,F.; Becker,U.; Riplinger,C.
     The ORCA quantum chemistry program package
     J. Chem. Phys., 2020 152 Art. No. L224108
     doi.org/10.1063/5.0004608

List of optional additional citations

  1. Neese,F.
     Approximate second-order SCF convergence for spin unrestricted wavefunctions
     Chem. Phys. Lett., 2000 325(1-3)93-98
     doi.org/10.1016/s0009-2614(00)00662-x

Timings for individual modules:

Sum of individual times          ...       30.174 sec (=   0.503 min)
Startup calculation              ...        1.604 sec (=   0.027 min)   5.3 %
SCF iterations                   ...       11.433 sec (=   0.191 min)  37.9 %
Property calculations            ...        0.085 sec (=   0.001 min)   0.3 %
SCF Gradient evaluation          ...       17.052 sec (=   0.284 min)  56.5 %
                             ****ORCA TERMINATED NORMALLY****
TOTAL RUN TIME: 0 days 0 hours 0 minutes 30 seconds 480 msec
  ------------------------------------------------------------------------
          * successful ORCA run, taking over control again...

         :::::::::::::::::::::::::::::::::::::::::::::::::::::
         ::                  ORCA SUMMARY                   ::
         :::::::::::::::::::::::::::::::::::::::::::::::::::::
         :: total energy            -687.078198885051 Eh    ::
         :: gradient norm              0.000469720519 Eh/a0 ::
         :: HOMO-LUMO gap              0.000000000000 eV    ::
         :::::::::::::::::::::::::::::::::::::::::::::::::::::

           -------------------------------------------------
          |                Property Printout                |
           -------------------------------------------------
           -------------------------------------------------
          |                Geometry Summary                 |
           -------------------------------------------------

      molecular mass/u    :      180.1561339
   center of mass at/Å    :       -0.0022093      -0.0040609      -0.0052480
  moments of inertia/u·Å² :        0.4293135E+03   0.5431772E+03   0.6125085E+03
rotational constants/cm⁻¹ :        0.3926649E-01   0.3103524E-01   0.2752228E-01

 * 21 selected distances

     #   Z          #   Z                                           value/Å
     1   6 C        2   6 C                                       1.5268961
     2   6 C        3   1 H                                       1.0973135
     2   6 C        4   6 C                                       1.5346418 (max)
     4   6 C        5   1 H                                       1.0966407
     6   6 C        7   1 H                                       1.0997687
     8   6 C        9   1 H                                       1.0979280
     8   6 C       10   6 C                                       1.5328225
    10   6 C       11   1 H                                       1.0964768
    10   6 C       12   8 O                                       1.4042915
    10   6 C       13   8 O                                       1.4375743
     8   6 C       14   8 O                                       1.4410520
     6   6 C       15   8 O                                       1.4105651
     4   6 C       16   8 O                                       1.4278748
     1   6 C       17   8 O                                       1.4274746
     1   6 C       18   1 H                                       1.0959582
     1   6 C       19   1 H                                       1.0999341
    13   8 O       20   1 H                                       0.9656042
    14   8 O       21   1 H                                       0.9647245 (min)
    15   8 O       22   1 H                                       0.9784087
    16   8 O       23   1 H                                       0.9690388
    17   8 O       24   1 H                                       0.9770022

 * 4 distinct bonds (by element types)

   Z      Z             #   av. dist./Å        max./Å        min./Å
   1 H    6 C           7     1.0977171     1.0999341     1.0959582
   6 C    6 C           3     1.5314535     1.5346418     1.5268961
   1 H    8 O           5     0.9709557     0.9784087     0.9647245
   6 C    8 O           6     1.4248054     1.4410520     1.4042915


optimized geometry written to: xtbopt.coord


           -------------------------------------------------
          | TOTAL ENERGY             -687.078198885051 Eh   |
          | GRADIENT NORM               0.000469720519 Eh/α |
           -------------------------------------------------

------------------------------------------------------------------------
 * finished run on 2025/04/16 at 11:26:50.350     
------------------------------------------------------------------------
 total:
 * wall-time:     0 d,  0 h,  1 min, 42.818 sec
 *  cpu-time:     0 d,  0 h,  0 min, 35.350 sec
 * ratio c/w:     0.344 speedup
 SCF:
 * wall-time:     0 d,  0 h,  0 min, 37.876 sec
 *  cpu-time:     0 d,  0 h,  0 min,  0.971 sec
 * ratio c/w:     0.026 speedup
 ANC optimizer:
 * wall-time:     0 d,  0 h,  1 min,  3.353 sec
 *  cpu-time:     0 d,  0 h,  0 min, 23.837 sec
 * ratio c/w:     0.376 speedup

