 Entering Gaussian System
 *********************************************
 Gaussian 98:
 frequency output generated by the xtb code
 *********************************************
                         Standard orientation:
 --------------------------------------------------------------------
  Center     Atomic     Atomic              Coordinates (Angstroms)
  Number     Number      Type              X           Y           Z
 --------------------------------------------------------------------
    1          6             0        2.701446   -0.164568   -0.639403
    2          6             0        1.917760   -0.044192    0.668781
    3          6             0        0.442463   -0.016202    0.394323
    4          6             0       -0.194691    1.152241   -0.017705
    5          6             0       -1.550034    1.114847   -0.291314
    6          6             0       -2.227869   -0.086185   -0.146291
    7          6             0       -1.505371   -1.192736    0.269611
    8          7             0       -0.211006   -1.161859    0.532258
    9          1             0        2.493491    0.682013   -1.290549
   10          1             0        2.419704   -1.076670   -1.159766
   11          1             0        3.769727   -0.193916   -0.438613
   12          1             0        2.214367    0.868436    1.189883
   13          1             0        2.136522   -0.903441    1.302824
   14          1             0        0.365605    2.070224   -0.116022
   15          1             0       -2.071283    2.006425   -0.610750
   16          1             0       -3.285243   -0.159783   -0.347980
   17          1             0       -1.982610   -2.155614    0.402208
 --------------------------------------------------------------------
     1 basis functions        1 primitive gaussians
     1 alpha electrons        1 beta electrons
 
 Harmonic frequencies (cm**-1), IR intensities (km*mol⁻¹),
 Raman scattering activities (A**4/amu), Raman depolarization ratios,
 reduced masses (AMU), force constants (mDyne/A) and normal coordinates:
                      1                      2                      3
                        a                      a                      a 
 Frequencies --    41.1788               123.9417               202.0578
 Red. masses --     8.3551                 9.6081                 2.0121
 Frc consts  --     0.0000                 0.0000                 0.0000
 IR Inten    --     0.3520                 1.1954                 0.3242
 Raman Activ --     0.0000                 0.0000                 0.0000
 Depolar     --     0.0000                 0.0000                 0.0000
 Atom AN      X      Y      Z        X      Y      Z        X      Y      Z
   1   6     0.07   0.51  -0.03    -0.44   0.03  -0.27    -0.03   0.08  -0.02
   2   6    -0.01  -0.29  -0.01     0.05  -0.03   0.04     0.00   0.03   0.00
   3   6    -0.00  -0.17  -0.02     0.01   0.03   0.32    -0.00  -0.14   0.02
   4   6     0.13  -0.16  -0.19     0.06   0.04   0.27     0.08  -0.09   0.03
   5   6     0.13  -0.03  -0.17     0.14  -0.02  -0.14     0.09   0.04   0.01
   6   6    -0.02   0.08   0.04     0.17  -0.07  -0.38     0.01   0.09  -0.01
   7   6    -0.16   0.06   0.21     0.07  -0.01  -0.03    -0.08   0.02  -0.02
   8   7    -0.16  -0.07   0.19     0.00   0.04   0.30    -0.08  -0.11   0.00
   9   1     0.02   0.25   0.13    -0.18   0.03  -0.03    -0.43  -0.24  -0.22
  10   1     0.04   0.23  -0.17    -0.21   0.03  -0.07     0.38  -0.24   0.24
  11   1     0.02   0.13   0.01    -0.11  -0.03  -0.20     0.02   0.57  -0.06
  12   1    -0.02  -0.17   0.15     0.07  -0.02   0.00    -0.05   0.05  -0.04
  13   1    -0.00  -0.18  -0.14     0.06  -0.03  -0.03     0.06   0.05   0.03
  14   1     0.07  -0.07  -0.10     0.01   0.02   0.13     0.05  -0.04   0.02
  15   1     0.07  -0.01  -0.09     0.06  -0.02  -0.09     0.05   0.03   0.01
  16   1    -0.01   0.05   0.02     0.07  -0.04  -0.23     0.00   0.05  -0.01
  17   1    -0.08   0.04   0.11     0.01  -0.00  -0.02    -0.05   0.02  -0.01
                      4                      5                      6
                        a                      a                      a 
 Frequencies --   270.9415               341.6485               372.1056
 Red. masses --     9.3503                 7.7733                10.2099
 Frc consts  --     0.0000                 0.0000                 0.0000
 IR Inten    --     0.1825                 1.2312                 3.2531
 Raman Activ --     0.0000                 0.0000                 0.0000
 Depolar     --     0.0000                 0.0000                 0.0000
 Atom AN      X      Y      Z        X      Y      Z        X      Y      Z
   1   6     0.45  -0.06  -0.08    -0.10  -0.07   0.05    -0.05  -0.01   0.03
   2   6     0.05  -0.13  -0.30    -0.02  -0.43   0.12    -0.02  -0.04   0.04
   3   6    -0.03   0.05  -0.06     0.03   0.32  -0.01     0.01   0.04  -0.02
   4   6    -0.18   0.11   0.32    -0.08   0.22  -0.17    -0.08   0.12   0.36
   5   6    -0.14  -0.01   0.05    -0.13  -0.04   0.01     0.08  -0.10  -0.42
   6   6    -0.05  -0.10  -0.33     0.01  -0.11   0.08    -0.01   0.02   0.15
   7   6    -0.09   0.05   0.17     0.19  -0.03  -0.05    -0.04   0.07   0.33
   8   7    -0.11   0.13   0.23     0.15   0.29  -0.01     0.13  -0.09  -0.51
   9   1     0.15  -0.04  -0.06    -0.20  -0.06   0.01    -0.04  -0.01   0.01
  10   1     0.25  -0.05  -0.04     0.10  -0.07   0.04    -0.01  -0.01   0.02
  11   1     0.11   0.06   0.10    -0.02   0.16  -0.03    -0.01   0.02  -0.01
  12   1     0.03  -0.07  -0.04     0.13  -0.27   0.21     0.00  -0.03   0.03
  13   1    -0.02  -0.06  -0.10    -0.17  -0.28  -0.13    -0.02  -0.03  -0.01
  14   1    -0.09   0.06   0.18    -0.07   0.09  -0.10    -0.05   0.07   0.22
  15   1    -0.05  -0.00   0.02    -0.09  -0.04   0.01     0.05  -0.08  -0.30
  16   1     0.01  -0.07  -0.22    -0.00  -0.07   0.05    -0.01   0.01   0.07
  17   1    -0.03   0.02   0.12     0.12  -0.04  -0.04    -0.03   0.05   0.23
                      7                      8                      9
                        a                      a                      a 
 Frequencies --   484.4068               547.2430               602.1171
 Red. masses --     9.6760                10.0547                11.6028
 Frc consts  --     0.0000                 0.0000                 0.0000
 IR Inten    --     1.2044                 1.0345                 2.0770
 Raman Activ --     0.0000                 0.0000                 0.0000
 Depolar     --     0.0000                 0.0000                 0.0000
 Atom AN      X      Y      Z        X      Y      Z        X      Y      Z
   1   6     0.21  -0.01  -0.14     0.05  -0.01  -0.04    -0.00   0.01  -0.01
   2   6     0.28   0.00  -0.01    -0.39  -0.01  -0.27    -0.07   0.05  -0.05
   3   6     0.05   0.09   0.50    -0.34   0.04   0.17    -0.04   0.14  -0.03
   4   6    -0.08  -0.11   0.09    -0.02   0.19   0.07     0.35   0.29   0.02
   5   6    -0.06  -0.15  -0.21     0.09   0.18  -0.17     0.37  -0.33   0.14
   6   6    -0.33   0.07   0.24     0.33   0.07   0.26    -0.01  -0.19   0.07
   7   6    -0.07   0.04  -0.29     0.14  -0.20  -0.10    -0.29  -0.32  -0.01
   8   7    -0.12   0.10   0.01     0.07  -0.20   0.18    -0.31   0.30  -0.11
   9   1     0.06  -0.01  -0.04     0.12  -0.01  -0.05     0.03   0.00  -0.01
  10   1     0.07  -0.01  -0.04     0.12  -0.01  -0.05     0.01   0.00  -0.00
  11   1     0.06  -0.00  -0.03    -0.02   0.01   0.18    -0.01   0.00   0.03
  12   1     0.14  -0.01  -0.02    -0.08  -0.02  -0.06    -0.03   0.04  -0.04
  13   1     0.13  -0.00  -0.02    -0.11  -0.02  -0.09    -0.01   0.04   0.01
  14   1    -0.04  -0.04  -0.12     0.09  -0.02  -0.05     0.05   0.11  -0.02
  15   1     0.06  -0.06  -0.22    -0.01  -0.02  -0.17     0.05  -0.13   0.02
  16   1    -0.10   0.03   0.09     0.10   0.00   0.06    -0.00   0.11  -0.03
  17   1     0.04  -0.05  -0.26     0.01  -0.06  -0.18     0.00  -0.13   0.01
                     10                     11                     12
                        a                      a                      a 
 Frequencies --   714.2523               766.8350               805.1826
 Red. masses --    10.3343                 4.5163                 9.5961
 Frc consts  --     0.0000                 0.0000                 0.0000
 IR Inten    --     1.1160                17.7242                 3.5577
 Raman Activ --     0.0000                 0.0000                 0.0000
 Depolar     --     0.0000                 0.0000                 0.0000
 Atom AN      X      Y      Z        X      Y      Z        X      Y      Z
   1   6     0.04  -0.00  -0.04    -0.06   0.01   0.08     0.16  -0.02  -0.04
   2   6    -0.02   0.02  -0.03    -0.02  -0.02  -0.01     0.37  -0.06   0.23
   3   6    -0.13   0.11   0.47     0.12  -0.09  -0.36    -0.08  -0.03  -0.11
   4   6     0.04  -0.03  -0.24    -0.03  -0.00   0.24    -0.13   0.26  -0.05
   5   6    -0.07   0.11   0.33    -0.00  -0.03   0.15    -0.17   0.31  -0.10
   6   6     0.09  -0.05  -0.22    -0.10   0.05   0.19     0.28  -0.00   0.10
   7   6    -0.10   0.04   0.35     0.03   0.10   0.07    -0.22  -0.36   0.05
   8   7     0.06  -0.13  -0.40     0.03   0.06   0.06    -0.17  -0.12   0.01
   9   1     0.05  -0.01  -0.04    -0.05   0.01   0.04    -0.12   0.03   0.09
  10   1     0.04  -0.01  -0.01    -0.05   0.01   0.02    -0.07   0.03  -0.02
  11   1    -0.00   0.00   0.05    -0.01   0.00  -0.03     0.09   0.00  -0.27
  12   1     0.05  -0.02   0.00    -0.08   0.02  -0.01     0.07   0.04  -0.01
  13   1     0.03  -0.01  -0.04    -0.04   0.02   0.04     0.12   0.05   0.14
  14   1     0.07  -0.06  -0.28     0.07  -0.09  -0.34     0.00   0.05  -0.04
  15   1     0.01  -0.02  -0.11     0.12  -0.10  -0.39    -0.17  -0.00  -0.08
  16   1     0.06  -0.05  -0.25     0.08  -0.12  -0.49     0.09  -0.00  -0.06
  17   1    -0.01  -0.01  -0.01     0.09  -0.06  -0.31    -0.11  -0.08  -0.04
                     13                     14                     15
                        a                      a                      a 
 Frequencies --   823.4836               891.7993               916.6450
 Red. masses --     2.8479                 3.6003                 4.0281
 Frc consts  --     0.0000                 0.0000                 0.0000
 IR Inten    --     5.2415                 0.1879                 0.1650
 Raman Activ --     0.0000                 0.0000                 0.0000
 Depolar     --     0.0000                 0.0000                 0.0000
 Atom AN      X      Y      Z        X      Y      Z        X      Y      Z
   1   6    -0.04  -0.12   0.02     0.00   0.00  -0.01     0.01   0.00   0.01
   2   6    -0.09  -0.32  -0.02    -0.01   0.01  -0.00     0.01  -0.00  -0.00
   3   6     0.00   0.02   0.08    -0.01   0.01   0.05     0.02  -0.02  -0.09
   4   6     0.01   0.02  -0.03     0.07  -0.08  -0.34    -0.02   0.02   0.08
   5   6    -0.01  -0.02   0.01     0.02  -0.02  -0.08     0.02  -0.02  -0.09
   6   6    -0.02  -0.02  -0.02    -0.05   0.06   0.26     0.05  -0.06  -0.26
   7   6     0.08   0.09   0.01    -0.03   0.03   0.14    -0.08   0.10   0.40
   8   7     0.05   0.09  -0.04     0.00  -0.01  -0.01     0.00   0.00   0.00
   9   1    -0.14   0.19   0.33     0.01  -0.00  -0.01    -0.01  -0.00   0.00
  10   1     0.21   0.12  -0.37     0.01  -0.00   0.00    -0.02   0.00   0.02
  11   1    -0.02   0.16   0.06    -0.00  -0.00   0.02     0.01  -0.01  -0.03
  12   1    -0.05   0.18  -0.45     0.02  -0.01   0.00    -0.02   0.00   0.01
  13   1     0.05   0.23   0.39     0.00  -0.00  -0.01    -0.01  -0.00   0.00
  14   1    -0.03   0.03   0.01    -0.13   0.15   0.63     0.01  -0.01  -0.02
  15   1    -0.01  -0.00   0.01    -0.02   0.03   0.11    -0.02   0.03   0.12
  16   1    -0.01  -0.03   0.03     0.09  -0.10  -0.44    -0.08   0.10   0.41
  17   1     0.05   0.01   0.00     0.06  -0.07  -0.31     0.15  -0.17  -0.69
                     16                     17                     18
                        a                      a                      a 
 Frequencies --   935.6351              1000.3154              1027.9298
 Red. masses --     3.5292                10.3906                 6.9945
 Frc consts  --     0.0000                 0.0000                 0.0000
 IR Inten    --     0.0660                18.1142                 4.7212
 Raman Activ --     0.0000                 0.0000                 0.0000
 Depolar     --     0.0000                 0.0000                 0.0000
 Atom AN      X      Y      Z        X      Y      Z        X      Y      Z
   1   6     0.01  -0.00   0.00     0.23  -0.03  -0.10     0.36  -0.06  -0.18
   2   6    -0.00   0.00  -0.00    -0.08   0.02   0.12    -0.28   0.07   0.13
   3   6     0.01  -0.01  -0.06    -0.20   0.02   0.00    -0.10   0.07   0.06
   4   6     0.04  -0.04  -0.18     0.17   0.42  -0.07    -0.09  -0.34   0.05
   5   6    -0.08   0.09   0.37     0.08  -0.20   0.06     0.06  -0.03   0.01
   6   6     0.03  -0.03  -0.15    -0.34  -0.01  -0.07     0.18   0.02   0.04
   7   6     0.02  -0.01  -0.07     0.08   0.21  -0.04     0.07   0.01   0.01
   8   7    -0.02   0.02   0.08     0.19  -0.45   0.14    -0.09   0.26  -0.09
   9   1    -0.01  -0.00   0.00    -0.10   0.00   0.03    -0.16   0.01   0.05
  10   1    -0.01   0.00   0.01    -0.08   0.02  -0.01    -0.11   0.04  -0.03
  11   1     0.01  -0.00  -0.02     0.11  -0.02  -0.28     0.16  -0.02  -0.43
  12   1    -0.01  -0.00   0.01    -0.07   0.00   0.06    -0.18   0.01   0.11
  13   1    -0.01  -0.00   0.00    -0.11   0.01   0.07    -0.33   0.01   0.12
  14   1    -0.08   0.09   0.37    -0.00   0.14  -0.04     0.04  -0.13   0.05
  15   1     0.14  -0.16  -0.68    -0.03  -0.08   0.02     0.10   0.05   0.03
  16   1    -0.06   0.07   0.31    -0.09  -0.01  -0.02     0.05   0.01   0.00
  17   1    -0.00   0.00   0.01    -0.09   0.10  -0.03     0.08  -0.02   0.04
                     19                     20                     21
                        a                      a                      a 
 Frequencies --  1052.7769              1079.3965              1096.0419
 Red. masses --     4.4533                 8.3553                 6.6540
 Frc consts  --     0.0000                 0.0000                 0.0000
 IR Inten    --     2.6120                 9.9557                 1.2064
 Raman Activ --     0.0000                 0.0000                 0.0000
 Depolar     --     0.0000                 0.0000                 0.0000
 Atom AN      X      Y      Z        X      Y      Z        X      Y      Z
   1   6     0.07   0.18  -0.05    -0.02  -0.04  -0.52    -0.02  -0.01   0.00
   2   6    -0.08  -0.36   0.04    -0.15   0.05   0.59     0.05   0.03   0.01
   3   6    -0.04  -0.15   0.09     0.05  -0.04  -0.12    -0.00   0.00  -0.01
   4   6     0.01   0.11  -0.04     0.00   0.02   0.02    -0.18  -0.08  -0.02
   5   6    -0.03   0.02  -0.01    -0.01   0.02   0.01     0.08  -0.36   0.10
   6   6     0.06  -0.09   0.03    -0.00  -0.01   0.00     0.44   0.09   0.07
   7   6     0.08   0.16  -0.03    -0.01   0.01   0.02    -0.01   0.30  -0.07
   8   7    -0.04   0.18  -0.05    -0.01   0.01   0.01    -0.14  -0.04  -0.02
   9   1     0.10  -0.10  -0.23     0.26  -0.01  -0.21     0.01   0.01   0.01
  10   1    -0.15  -0.05   0.24     0.26  -0.04  -0.21     0.02  -0.00  -0.01
  11   1     0.02  -0.13  -0.05    -0.07   0.02   0.25    -0.01   0.01   0.03
  12   1    -0.51   0.09  -0.02     0.03   0.01   0.12     0.05  -0.01   0.00
  13   1     0.43   0.06   0.06     0.01  -0.00   0.11     0.00  -0.01  -0.02
  14   1    -0.01   0.04  -0.00     0.02  -0.01  -0.02    -0.39   0.17  -0.12
  15   1    -0.11  -0.05  -0.00    -0.01  -0.01  -0.03    -0.19  -0.24   0.02
  16   1     0.02  -0.18   0.05     0.00  -0.03  -0.01     0.13   0.10   0.00
  17   1     0.07   0.03   0.02     0.01  -0.01  -0.02    -0.32   0.23  -0.12
                     22                     23                     24
                        a                      a                      a 
 Frequencies --  1131.0337              1166.5931              1225.2989
 Red. masses --     3.8720                 1.4393                 4.1836
 Frc consts  --     0.0000                 0.0000                 0.0000
 IR Inten    --     0.2103                 0.1125                 1.7400
 Raman Activ --     0.0000                 0.0000                 0.0000
 Depolar     --     0.0000                 0.0000                 0.0000
 Atom AN      X      Y      Z        X      Y      Z        X      Y      Z
   1   6     0.02   0.06  -0.04    -0.00  -0.00   0.01     0.01   0.34  -0.02
   2   6    -0.06  -0.14   0.03     0.01  -0.01   0.00     0.02  -0.28   0.04
   3   6     0.08   0.07   0.02    -0.04  -0.05   0.00    -0.05   0.23  -0.08
   4   6    -0.20  -0.04  -0.03    -0.00  -0.02   0.00     0.00  -0.07   0.02
   5   6     0.06   0.00   0.01    -0.09  -0.08   0.00    -0.06  -0.10   0.01
   6   6    -0.07   0.15  -0.05    -0.01   0.04  -0.01     0.01   0.04  -0.01
   7   6    -0.03  -0.25   0.05     0.05   0.09  -0.01     0.06  -0.05   0.03
   8   7     0.24  -0.06   0.06     0.07   0.05   0.00    -0.02  -0.06   0.01
   9   1     0.03  -0.03  -0.07     0.00  -0.00  -0.00     0.13  -0.10  -0.27
  10   1    -0.03  -0.02   0.06     0.00   0.00  -0.00    -0.12  -0.05   0.29
  11   1     0.00  -0.04  -0.00    -0.00   0.00  -0.00    -0.01  -0.12   0.02
  12   1    -0.17   0.03  -0.02     0.01  -0.00   0.00     0.34   0.02  -0.33
  13   1     0.07   0.02   0.05     0.02   0.01   0.00    -0.26   0.08   0.30
  14   1    -0.37   0.17  -0.12     0.38  -0.23   0.14     0.16  -0.11   0.06
  15   1     0.23   0.13   0.02    -0.54  -0.34  -0.03     0.09   0.04   0.01
  16   1    -0.04   0.63  -0.16    -0.01   0.53  -0.13     0.00   0.01  -0.00
  17   1     0.10  -0.12   0.05     0.16  -0.04   0.04    -0.20   0.08  -0.06
                     25                     26                     27
                        a                      a                      a 
 Frequencies --  1241.8775              1261.1463              1290.8146
 Red. masses --     7.1455                 3.6336                11.1747
 Frc consts  --     0.0000                 0.0000                 0.0000
 IR Inten    --     5.3541                 0.6072                 5.2326
 Raman Activ --     0.0000                 0.0000                 0.0000
 Depolar     --     0.0000                 0.0000                 0.0000
 Atom AN      X      Y      Z        X      Y      Z        X      Y      Z
   1   6    -0.00  -0.05   0.05    -0.02  -0.09  -0.01    -0.01  -0.07   0.00
   2   6     0.13   0.01   0.11     0.02  -0.01  -0.03     0.01  -0.01   0.01
   3   6    -0.56   0.02  -0.17     0.11   0.17   0.01    -0.01   0.40  -0.10
   4   6    -0.26   0.02  -0.06    -0.09   0.00  -0.02     0.30  -0.12   0.09
   5   6     0.13  -0.18   0.07    -0.04  -0.04  -0.00    -0.32  -0.19  -0.02
   6   6     0.07  -0.07   0.03    -0.04  -0.14   0.02     0.01   0.34  -0.08
   7   6     0.13   0.15  -0.01    -0.12  -0.12   0.00     0.37  -0.18   0.12
   8   7    -0.02   0.06  -0.02     0.29   0.13   0.03    -0.35  -0.19  -0.02
   9   1     0.00   0.01   0.03    -0.02   0.03   0.06    -0.01   0.02   0.05
  10   1     0.04   0.01  -0.05     0.04   0.01  -0.08     0.03   0.01  -0.06
  11   1     0.01   0.02  -0.03    -0.01   0.03   0.02    -0.00   0.02   0.01
  12   1     0.20  -0.03  -0.01    -0.30   0.02   0.13    -0.19   0.02   0.08
  13   1     0.39  -0.01  -0.12     0.10   0.00  -0.04     0.22   0.01  -0.07
  14   1     0.17  -0.14   0.07     0.28  -0.18   0.10     0.02   0.00   0.00
  15   1     0.35   0.14   0.04     0.12   0.07   0.01     0.03   0.02   0.00
  16   1     0.02   0.11  -0.02    -0.02   0.09  -0.02     0.00   0.01  -0.00
  17   1     0.12   0.01   0.02    -0.63   0.24  -0.19    -0.03   0.00  -0.01
                     28                     29                     30
                        a                      a                      a 
 Frequencies --  1317.6273              1405.2971              1416.1428
 Red. masses --     5.5802                 3.3231                 9.0296
 Frc consts  --     0.0000                 0.0000                 0.0000
 IR Inten    --     2.2046                 1.6677                17.7435
 Raman Activ --     0.0000                 0.0000                 0.0000
 Depolar     --     0.0000                 0.0000                 0.0000
 Atom AN      X      Y      Z        X      Y      Z        X      Y      Z
   1   6     0.16  -0.00   0.09    -0.23   0.04   0.34    -0.03   0.01   0.08
   2   6    -0.53   0.03   0.15     0.06  -0.01   0.00    -0.06   0.06  -0.02
   3   6     0.19  -0.02  -0.03    -0.07   0.04  -0.01     0.24  -0.25   0.11
   4   6     0.08  -0.05   0.03     0.01  -0.07   0.02     0.09   0.24  -0.04
   5   6    -0.04   0.07  -0.02     0.07   0.02   0.01    -0.34  -0.01  -0.07
   6   6    -0.05   0.00  -0.01    -0.04   0.08  -0.03     0.12  -0.39   0.12
   7   6    -0.03  -0.09   0.02    -0.03  -0.05   0.00     0.23   0.18   0.00
   8   7     0.08   0.06   0.01     0.08   0.02   0.01    -0.32  -0.03  -0.06
   9   1    -0.08  -0.04   0.00     0.33  -0.19  -0.33     0.05  -0.05  -0.08
  10   1    -0.07   0.05  -0.01     0.36   0.10  -0.35     0.06   0.04  -0.08
  11   1     0.07  -0.02  -0.19     0.07  -0.06  -0.49     0.02  -0.01  -0.11
  12   1     0.40  -0.01  -0.26    -0.07   0.03  -0.02     0.03   0.01  -0.04
  13   1     0.43  -0.07  -0.27    -0.05  -0.02  -0.01    -0.12  -0.03  -0.03
  14   1    -0.05   0.03  -0.02    -0.04   0.01  -0.01     0.07   0.05   0.00
  15   1    -0.10  -0.03  -0.02    -0.07  -0.05  -0.00     0.25   0.21   0.00
  16   1    -0.01  -0.01  -0.01    -0.01  -0.06   0.01     0.02   0.33  -0.07
  17   1    -0.15   0.04  -0.04    -0.01  -0.01   0.00    -0.02   0.09  -0.03
                     31                     32                     33
                        a                      a                      a 
 Frequencies --  1450.5876              1470.2691              1497.6619
 Red. masses --     8.6546                 2.9237                 1.5450
 Frc consts  --     0.0000                 0.0000                 0.0000
 IR Inten    --    13.2822                 1.9427                 2.8397
 Raman Activ --     0.0000                 0.0000                 0.0000
 Depolar     --     0.0000                 0.0000                 0.0000
 Atom AN      X      Y      Z        X      Y      Z        X      Y      Z
   1   6     0.01  -0.01   0.03    -0.00  -0.01  -0.04    -0.06  -0.21  -0.00
   2   6    -0.07  -0.03   0.07     0.20   0.02   0.24    -0.03  -0.04  -0.01
   3   6     0.38   0.25   0.03    -0.17  -0.05  -0.00     0.01   0.00   0.00
   4   6    -0.30   0.16  -0.10     0.07  -0.05   0.02     0.00   0.00  -0.00
   5   6    -0.01  -0.23   0.05     0.04   0.07  -0.01    -0.01   0.00  -0.00
   6   6     0.19   0.14   0.01    -0.07  -0.04  -0.01     0.00  -0.01   0.00
   7   6    -0.33   0.13  -0.10     0.11  -0.04   0.03    -0.00   0.00  -0.00
   8   7    -0.03  -0.28   0.06    -0.00   0.07  -0.02    -0.00  -0.00   0.00
   9   1    -0.01  -0.03  -0.03     0.02   0.07   0.08     0.54   0.14   0.02
  10   1    -0.02   0.03  -0.04     0.00  -0.05   0.09    -0.36   0.02   0.13
  11   1     0.01   0.01  -0.02    -0.00   0.02   0.02     0.04   0.69  -0.14
  12   1    -0.14   0.13  -0.16    -0.21   0.36  -0.47     0.03  -0.02  -0.01
  13   1    -0.01  -0.12  -0.16    -0.24  -0.40  -0.43     0.00   0.02   0.04
  14   1     0.24  -0.14   0.08    -0.05   0.03  -0.02    -0.00   0.00   0.00
  15   1     0.14   0.02   0.03    -0.05  -0.01  -0.01     0.00   0.00  -0.00
  16   1     0.06  -0.12   0.04    -0.02   0.03  -0.01     0.00   0.00  -0.00
  17   1     0.26  -0.12   0.08    -0.07   0.03  -0.02     0.00  -0.00   0.00
                     34                     35                     36
                        a                      a                      a 
 Frequencies --  1503.9760              1569.7300              1587.1056
 Red. masses --     1.6914                11.7850                11.6218
 Frc consts  --     0.0000                 0.0000                 0.0000
 IR Inten    --     3.1478                23.7472                60.9423
 Raman Activ --     0.0000                 0.0000                 0.0000
 Depolar     --     0.0000                 0.0000                 0.0000
 Atom AN      X      Y      Z        X      Y      Z        X      Y      Z
   1   6     0.17  -0.05   0.12    -0.00  -0.00   0.00    -0.01   0.00   0.01
   2   6     0.09  -0.01   0.03    -0.01  -0.04   0.00    -0.03   0.02  -0.02
   3   6    -0.06  -0.02  -0.01     0.08   0.46  -0.09     0.22  -0.20   0.09
   4   6     0.01  -0.01   0.00    -0.08  -0.21   0.03    -0.45   0.21  -0.14
   5   6     0.02   0.02   0.00     0.36   0.37  -0.01     0.36   0.01   0.07
   6   6    -0.02   0.01  -0.01    -0.11  -0.47   0.09    -0.19   0.21  -0.09
   7   6     0.04  -0.02   0.01     0.07   0.17  -0.02     0.44  -0.23   0.15
   8   7     0.00   0.02  -0.00    -0.25  -0.27   0.01    -0.28   0.03  -0.07
   9   1    -0.24  -0.36  -0.37    -0.00  -0.00  -0.00     0.01   0.00   0.00
  10   1    -0.42   0.37  -0.40     0.01   0.00  -0.01     0.01  -0.00   0.01
  11   1    -0.04   0.19   0.31    -0.00  -0.00  -0.00     0.00  -0.00  -0.02
  12   1    -0.04   0.04  -0.03    -0.05   0.00   0.02     0.02  -0.01   0.01
  13   1    -0.05  -0.03  -0.01     0.08   0.02   0.01    -0.03   0.00   0.01
  14   1    -0.02   0.01  -0.00    -0.07  -0.03  -0.01     0.09  -0.07   0.03
  15   1    -0.01  -0.01  -0.00    -0.13  -0.04  -0.02    -0.05  -0.08   0.01
  16   1    -0.01  -0.00  -0.00    -0.03   0.09  -0.03    -0.05  -0.08   0.01
  17   1    -0.02   0.01  -0.01     0.02   0.04  -0.00    -0.12   0.04  -0.03
                     37                     38                     39
                        a                      a                      a 
 Frequencies --  2975.8121              3007.7847              3032.0578
 Red. masses --     1.7597                 1.7033                 1.8713
 Frc consts  --     0.0000                 0.0000                 0.0000
 IR Inten    --    30.3755                 7.1240                49.2777
 Raman Activ --     0.0000                 0.0000                 0.0000
 Depolar     --     0.0000                 0.0000                 0.0000
 Atom AN      X      Y      Z        X      Y      Z        X      Y      Z
   1   6    -0.01  -0.02  -0.00     0.03  -0.06   0.03    -0.10   0.21  -0.14
   2   6     0.07   0.23   0.11    -0.05   0.18  -0.15    -0.02   0.07  -0.04
   3   6     0.00   0.01   0.00    -0.00   0.01  -0.00    -0.00   0.00  -0.00
   4   6    -0.00  -0.01  -0.00    -0.00  -0.00   0.00    -0.00  -0.01   0.00
   5   6     0.00   0.00  -0.00     0.00   0.00   0.00    -0.00   0.00  -0.00
   6   6    -0.00  -0.00   0.00     0.00  -0.00   0.00    -0.00  -0.00   0.00
   7   6    -0.00   0.00  -0.00    -0.00  -0.00   0.00    -0.00  -0.00   0.00
   8   7     0.00  -0.00   0.00     0.00  -0.00   0.00     0.00  -0.00   0.00
   9   1    -0.01   0.02  -0.02    -0.05   0.20  -0.15     0.17  -0.70   0.52
  10   1     0.02   0.08   0.05     0.02   0.02   0.02    -0.04  -0.05  -0.06
  11   1     0.03  -0.01   0.01    -0.08  -0.01  -0.01     0.22   0.02   0.03
  12   1    -0.26  -0.81  -0.45     0.01   0.08   0.01    -0.01  -0.01  -0.01
  13   1     0.02  -0.01   0.05     0.19  -0.74   0.53     0.06  -0.21   0.15
  14   1     0.01   0.02  -0.00     0.00   0.00  -0.00     0.02   0.02  -0.00
  15   1     0.00  -0.00   0.00     0.00  -0.00   0.00     0.00  -0.00   0.00
  16   1    -0.00  -0.00   0.00     0.00  -0.00  -0.00     0.00  -0.00   0.00
  17   1     0.00   0.00  -0.00     0.00   0.00  -0.00     0.00   0.01  -0.00
                     40                     41                     42
                        a                      a                      a 
 Frequencies --  3036.0625              3044.3867              3049.4482
 Red. masses --     1.7220                 1.5685                 1.7920
 Frc consts  --     0.0000                 0.0000                 0.0000
 IR Inten    --    41.8106                24.9813                35.0586
 Raman Activ --     0.0000                 0.0000                 0.0000
 Depolar     --     0.0000                 0.0000                 0.0000
 Atom AN      X      Y      Z        X      Y      Z        X      Y      Z
   1   6    -0.24  -0.08  -0.04    -0.03  -0.18  -0.13     0.00  -0.00   0.00
   2   6    -0.01  -0.01  -0.01    -0.00  -0.02  -0.01     0.00  -0.00   0.00
   3   6     0.00  -0.00   0.00    -0.00  -0.00  -0.00     0.00   0.00  -0.00
   4   6     0.00   0.00  -0.00     0.00   0.00  -0.00    -0.00  -0.00  -0.00
   5   6    -0.00   0.00  -0.00    -0.00  -0.00  -0.00     0.01  -0.01   0.00
   6   6    -0.00  -0.00  -0.00     0.00   0.00  -0.00     0.02  -0.00   0.00
   7   6    -0.00  -0.00   0.00     0.00   0.00  -0.00    -0.11  -0.24   0.03
   8   7    -0.00  -0.00   0.00     0.00   0.00   0.00    -0.01  -0.01   0.00
   9   1    -0.08   0.16  -0.14     0.02  -0.14   0.07     0.00   0.00  -0.00
  10   1     0.02   0.15   0.08     0.26   0.79   0.44     0.00   0.00   0.00
  11   1     0.90  -0.04   0.19    -0.16  -0.02  -0.05    -0.02   0.00  -0.00
  12   1     0.01   0.04   0.02     0.02   0.06   0.03    -0.00  -0.00   0.00
  13   1     0.00  -0.01   0.01    -0.00   0.01  -0.01    -0.00   0.00  -0.00
  14   1    -0.00  -0.00   0.00    -0.00  -0.01   0.00     0.00   0.01  -0.00
  15   1     0.00  -0.00   0.00    -0.00   0.00  -0.00    -0.01   0.02  -0.01
  16   1     0.00   0.00   0.00    -0.00   0.00  -0.00    -0.11  -0.01  -0.02
  17   1     0.01   0.01  -0.00    -0.00  -0.00   0.00     0.42   0.85  -0.12
                     43                     44                     45
                        a                      a                      a 
 Frequencies --  3064.9418              3082.2983              3093.5456
 Red. masses --     1.7827                 1.8599                 1.8828
 Frc consts  --     0.0000                 0.0000                 0.0000
 IR Inten    --    21.8643                52.6208                44.7371
 Raman Activ --     0.0000                 0.0000                 0.0000
 Depolar     --     0.0000                 0.0000                 0.0000
 Atom AN      X      Y      Z        X      Y      Z        X      Y      Z
   1   6    -0.00   0.00  -0.00     0.00  -0.01   0.00    -0.00  -0.00  -0.00
   2   6     0.00   0.00   0.00    -0.00  -0.01  -0.00    -0.00  -0.00  -0.00
   3   6     0.00   0.00  -0.00    -0.01   0.00  -0.00    -0.00   0.00  -0.00
   4   6     0.05   0.08  -0.01    -0.13  -0.22   0.02    -0.02  -0.03   0.00
   5   6     0.12  -0.20   0.07     0.05  -0.08   0.03     0.04  -0.07   0.02
   6   6    -0.05  -0.01  -0.01    -0.05  -0.00  -0.01     0.26   0.02   0.05
   7   6    -0.00  -0.00  -0.00    -0.00  -0.00   0.00     0.02   0.04  -0.01
   8   7    -0.00   0.00  -0.00     0.00   0.00   0.00    -0.00  -0.00   0.00
   9   1     0.00  -0.01   0.01    -0.00   0.02  -0.01    -0.00   0.00  -0.00
  10   1    -0.00  -0.00  -0.00     0.00   0.01   0.00    -0.00   0.00   0.00
  11   1     0.01   0.00   0.00    -0.00  -0.00  -0.00     0.00  -0.00   0.00
  12   1    -0.00  -0.01  -0.00     0.01   0.01   0.01     0.00   0.00   0.00
  13   1     0.00  -0.01   0.00    -0.00   0.01  -0.01    -0.00   0.00  -0.00
  14   1    -0.18  -0.30   0.03     0.46   0.76  -0.08     0.05   0.09  -0.01
  15   1    -0.42   0.72  -0.26    -0.15   0.26  -0.09    -0.12   0.20  -0.07
  16   1     0.20   0.02   0.04     0.18   0.01   0.03    -0.90  -0.06  -0.17
  17   1     0.00   0.00   0.00     0.00   0.01  -0.00    -0.05  -0.10   0.01
