 Entering Gaussian System
 *********************************************
 Gaussian 98:
 frequency output generated by the xtb code
 *********************************************
                         Standard orientation:
 --------------------------------------------------------------------
  Center     Atomic     Atomic              Coordinates (Angstroms)
  Number     Number      Type              X           Y           Z
 --------------------------------------------------------------------
    1          6             0       -1.360720   -0.889144    0.223746
    2         16             0        0.000012    0.180347   -0.432307
    3          8             0        0.000183    1.382028    0.399579
    4          6             0        1.360462   -0.889516    0.223725
    5          1             0       -2.301669   -0.403543   -0.013115
    6          1             0       -1.260170   -0.984683    1.298972
    7          1             0       -1.308454   -1.856126   -0.262553
    8          1             0        2.301541   -0.404191   -0.013184
    9          1             0        1.307901   -1.856497   -0.262545
   10          1             0        1.259922   -0.984994    1.298958
 --------------------------------------------------------------------
     1 basis functions        1 primitive gaussians
     1 alpha electrons        1 beta electrons
 
 Harmonic frequencies (cm**-1), IR intensities (km*mol⁻¹),
 Raman scattering activities (A**4/amu), Raman depolarization ratios,
 reduced masses (AMU), force constants (mDyne/A) and normal coordinates:
                      1                      2                      3
                        a                      a                      a 
 Frequencies --   117.7874               177.7524               269.5969
 Red. masses --     1.2783                 1.8780                10.6743
 Frc consts  --     0.0000                 0.0000                 0.0000
 IR Inten    --     0.0467                 0.6737                 0.1627
 Raman Activ --     0.0000                 0.0000                 0.0000
 Depolar     --     0.0000                 0.0000                 0.0000
 Atom AN      X      Y      Z        X      Y      Z        X      Y      Z
   1   6    -0.01   0.05   0.09    -0.01   0.01   0.07    -0.40   0.29  -0.06
   2  16    -0.02   0.00  -0.00    -0.00  -0.07   0.02    -0.00  -0.30   0.01
   3   8     0.04  -0.00   0.00     0.00   0.08  -0.18    -0.00  -0.28   0.11
   4   6    -0.01  -0.05  -0.09     0.01   0.01   0.07     0.40   0.29  -0.06
   5   1    -0.02  -0.18  -0.31     0.02   0.20   0.36    -0.03   0.23  -0.07
   6   1    -0.20   0.37   0.08     0.20  -0.33  -0.03    -0.17   0.11  -0.01
   7   1     0.22  -0.13   0.34    -0.23   0.14  -0.27    -0.24   0.06   0.02
   8   1    -0.02   0.18   0.31    -0.02   0.20   0.36     0.03   0.23  -0.07
   9   1     0.22   0.13  -0.34     0.23   0.14  -0.27     0.24   0.06   0.02
  10   1    -0.20  -0.37  -0.08    -0.20  -0.33  -0.03     0.17   0.11  -0.01
                      4                      5                      6
                        a                      a                      a 
 Frequencies --   305.5282               362.0171               653.9839
 Red. masses --    14.1796                15.9729                15.4482
 Frc consts  --     0.0000                 0.0000                 0.0000
 IR Inten    --     8.2631                12.6216                36.9922
 Raman Activ --     0.0000                 0.0000                 0.0000
 Depolar     --     0.0000                 0.0000                 0.0000
 Atom AN      X      Y      Z        X      Y      Z        X      Y      Z
   1   6    -0.11  -0.29  -0.10    -0.22  -0.14  -0.14    -0.43  -0.28   0.15
   2  16    -0.34   0.00  -0.00    -0.00  -0.07   0.52     0.00   0.39  -0.32
   3   8     0.70  -0.00  -0.00     0.00   0.43  -0.33     0.00   0.06   0.07
   4   6    -0.11   0.29   0.10     0.22  -0.14  -0.14     0.43  -0.28   0.15
   5   1    -0.07  -0.18  -0.06    -0.04  -0.05  -0.16    -0.15  -0.12   0.11
   6   1    -0.08  -0.15  -0.03    -0.23  -0.14  -0.04    -0.01  -0.03   0.04
   7   1     0.10  -0.04  -0.09     0.05   0.01  -0.12    -0.11  -0.10   0.08
   8   1    -0.07   0.18   0.06     0.04  -0.05  -0.16     0.15  -0.12   0.11
   9   1     0.10   0.04   0.09    -0.05   0.01  -0.12     0.11  -0.10   0.08
  10   1    -0.08   0.15   0.03     0.23  -0.14  -0.04     0.01  -0.03   0.04
                      7                      8                      9
                        a                      a                      a 
 Frequencies --   664.0000               818.0842               866.8626
 Red. masses --    16.6176                 3.0203                 4.9652
 Frc consts  --     0.0000                 0.0000                 0.0000
 IR Inten    --    71.8233                 6.9299                28.6570
 Raman Activ --     0.0000                 0.0000                 0.0000
 Depolar     --     0.0000                 0.0000                 0.0000
 Atom AN      X      Y      Z        X      Y      Z        X      Y      Z
   1   6    -0.35  -0.33   0.17    -0.18   0.08  -0.16    -0.11   0.18   0.23
   2  16     0.56  -0.00  -0.00     0.14  -0.00  -0.00     0.22  -0.00   0.00
   3   8    -0.03   0.00   0.00    -0.00  -0.00   0.00    -0.14   0.00  -0.00
   4   6    -0.35   0.33  -0.17    -0.18  -0.08   0.16    -0.11  -0.18  -0.23
   5   1    -0.04   0.01   0.03    -0.27  -0.29   0.25    -0.13  -0.19  -0.03
   6   1    -0.10  -0.04   0.05     0.39   0.16  -0.07    -0.19  -0.26   0.05
   7   1    -0.20  -0.12   0.10     0.12  -0.03   0.07     0.36   0.20  -0.20
   8   1    -0.04  -0.01  -0.03    -0.27   0.29  -0.25    -0.13   0.19   0.03
   9   1    -0.20   0.12  -0.10     0.12   0.03  -0.07     0.36  -0.20   0.20
  10   1    -0.10   0.04  -0.05     0.39  -0.16   0.07    -0.19   0.26  -0.05
                     10                     11                     12
                        a                      a                      a 
 Frequencies --   898.8649               937.9108              1144.1661
 Red. masses --     5.0895                 5.2638                21.3667
 Frc consts  --     0.0000                 0.0000                 0.0000
 IR Inten    --    20.9335                55.0133               323.4752
 Raman Activ --     0.0000                 0.0000                 0.0000
 Depolar     --     0.0000                 0.0000                 0.0000
 Atom AN      X      Y      Z        X      Y      Z        X      Y      Z
   1   6    -0.07   0.20   0.22    -0.17   0.17  -0.19    -0.02   0.01   0.04
   2  16     0.00   0.01  -0.18    -0.00  -0.18   0.20    -0.00  -0.47  -0.36
   3   8    -0.00  -0.26  -0.02     0.00   0.02  -0.03     0.00   0.65   0.47
   4   6     0.07   0.20   0.22     0.17   0.17  -0.19     0.02   0.01   0.04
   5   1    -0.11  -0.17  -0.05    -0.27  -0.27   0.22    -0.00  -0.01  -0.02
   6   1    -0.19  -0.25   0.04     0.35   0.13  -0.08    -0.01  -0.03   0.01
   7   1     0.35   0.20  -0.21     0.17   0.01   0.03     0.06   0.03  -0.04
   8   1     0.11  -0.17  -0.05     0.27  -0.28   0.22     0.00  -0.01  -0.02
   9   1    -0.35   0.20  -0.21    -0.17   0.01   0.03    -0.06   0.03  -0.04
  10   1     0.19  -0.25   0.04    -0.35   0.13  -0.08     0.01  -0.03   0.01
                     13                     14                     15
                        a                      a                      a 
 Frequencies --  1283.0328              1289.8263              1431.0419
 Red. masses --     2.8423                 2.8253                 1.6982
 Frc consts  --     0.0000                 0.0000                 0.0000
 IR Inten    --     1.2489                 6.9565                 6.7667
 Raman Activ --     0.0000                 0.0000                 0.0000
 Depolar     --     0.0000                 0.0000                 0.0000
 Atom AN      X      Y      Z        X      Y      Z        X      Y      Z
   1   6    -0.21  -0.17   0.10    -0.19  -0.18   0.10    -0.12   0.10  -0.08
   2  16    -0.02   0.00  -0.00     0.00   0.02   0.02    -0.02   0.00   0.00
   3   8     0.00   0.00   0.00    -0.00  -0.04  -0.03     0.00   0.00   0.00
   4   6    -0.21   0.17  -0.10     0.19  -0.18   0.10    -0.12  -0.10   0.08
   5   1     0.18   0.28  -0.16     0.18   0.28  -0.15     0.10   0.21  -0.05
   6   1     0.29   0.23   0.00     0.28   0.24   0.00     0.14  -0.40  -0.06
   7   1     0.29   0.11  -0.21     0.29   0.12  -0.22     0.22  -0.17   0.39
   8   1     0.18  -0.28   0.16    -0.18   0.28  -0.15     0.10  -0.21   0.05
   9   1     0.29  -0.11   0.21    -0.29   0.12  -0.22     0.22   0.17  -0.39
  10   1     0.29  -0.23  -0.00    -0.28   0.24   0.00     0.14   0.40   0.06
                     16                     17                     18
                        a                      a                      a 
 Frequencies --  1442.8553              1452.0664              1463.1318
 Red. masses --     1.6453                 1.6792                 1.6520
 Frc consts  --     0.0000                 0.0000                 0.0000
 IR Inten    --     1.3947                 0.1829                11.7492
 Raman Activ --     0.0000                 0.0000                 0.0000
 Depolar     --     0.0000                 0.0000                 0.0000
 Atom AN      X      Y      Z        X      Y      Z        X      Y      Z
   1   6    -0.12   0.09  -0.08     0.01  -0.10  -0.15     0.02  -0.09  -0.14
   2  16     0.00   0.01  -0.01     0.00  -0.00  -0.00    -0.00  -0.01  -0.02
   3   8     0.00  -0.00   0.00     0.00   0.00   0.00    -0.00  -0.00   0.00
   4   6     0.12   0.09  -0.08     0.01   0.10   0.15    -0.02  -0.09  -0.14
   5   1     0.11   0.22  -0.05     0.00   0.23   0.46    -0.00   0.21   0.46
   6   1     0.14  -0.39  -0.06    -0.32   0.15   0.03    -0.33   0.16   0.03
   7   1     0.24  -0.17   0.38     0.27  -0.03   0.05     0.27  -0.02   0.04
   8   1    -0.11   0.22  -0.05     0.00  -0.23  -0.46     0.00   0.21   0.46
   9   1    -0.24  -0.17   0.38     0.27   0.03  -0.05    -0.27  -0.02   0.04
  10   1    -0.14  -0.39  -0.06    -0.32  -0.15  -0.03     0.33   0.16   0.03
                     19                     20                     21
                        a                      a                      a 
 Frequencies --  3054.4866              3055.4092              3064.8723
 Red. masses --     1.2866                 1.2132                 1.9141
 Frc consts  --     0.0000                 0.0000                 0.0000
 IR Inten    --     0.0233                 0.7853                 4.8733
 Raman Activ --     0.0000                 0.0000                 0.0000
 Depolar     --     0.0000                 0.0000                 0.0000
 Atom AN      X      Y      Z        X      Y      Z        X      Y      Z
   1   6    -0.02  -0.08   0.07     0.07   0.04  -0.06    -0.15   0.09  -0.10
   2  16    -0.00   0.00   0.00     0.00   0.00  -0.00    -0.00   0.00   0.00
   3   8    -0.00   0.00   0.00    -0.00  -0.00  -0.00     0.00  -0.00  -0.00
   4   6    -0.02   0.08  -0.07    -0.07   0.04  -0.06    -0.15  -0.09   0.10
   5   1     0.18  -0.10   0.06    -0.33   0.18  -0.09     0.55  -0.29   0.13
   6   1    -0.06   0.03  -0.52     0.06  -0.03   0.46     0.01  -0.01   0.24
   7   1    -0.03   0.36   0.20     0.03  -0.31  -0.17    -0.02   0.00  -0.02
   8   1     0.18   0.10  -0.06     0.33   0.18  -0.09     0.55   0.29  -0.14
   9   1    -0.03  -0.36  -0.20    -0.03  -0.31  -0.17    -0.02  -0.00   0.02
  10   1    -0.06  -0.03   0.52    -0.06  -0.03   0.46     0.01   0.01  -0.24
                     22                     23                     24
                        a                      a                      a 
 Frequencies --  3068.8109              3073.5891              3077.1732
 Red. masses --     1.9758                 2.0121                 1.9925
 Frc consts  --     0.0000                 0.0000                 0.0000
 IR Inten    --     7.7119                 0.4903                25.9539
 Raman Activ --     0.0000                 0.0000                 0.0000
 Depolar     --     0.0000                 0.0000                 0.0000
 Atom AN      X      Y      Z        X      Y      Z        X      Y      Z
   1   6     0.14  -0.09   0.13    -0.03   0.14   0.16    -0.04   0.15   0.14
   2  16    -0.00  -0.00   0.00    -0.00   0.00   0.00     0.00   0.00   0.00
   3   8     0.00   0.00  -0.00     0.00  -0.00  -0.00    -0.00  -0.00  -0.00
   4   6    -0.14  -0.09   0.13    -0.03  -0.14  -0.16     0.04   0.15   0.14
   5   1    -0.47   0.25  -0.11     0.12  -0.05   0.05     0.14  -0.06   0.06
   6   1    -0.03   0.02  -0.40    -0.05   0.05  -0.37    -0.04   0.04  -0.29
   7   1     0.01   0.04   0.04     0.03  -0.49  -0.24     0.03  -0.52  -0.26
   8   1     0.47   0.24  -0.11     0.12   0.05  -0.05    -0.14  -0.06   0.06
   9   1    -0.01   0.04   0.04     0.03   0.49   0.24    -0.03  -0.52  -0.26
  10   1     0.03   0.02  -0.40    -0.05  -0.05   0.37     0.04   0.04  -0.29
