 Entering Gaussian System
 *********************************************
 Gaussian 98:
 frequency output generated by the xtb code
 *********************************************
                         Standard orientation:
 --------------------------------------------------------------------
  Center     Atomic     Atomic              Coordinates (Angstroms)
  Number     Number      Type              X           Y           Z
 --------------------------------------------------------------------
    1          6             0       -2.772594    0.403262    0.000288
    2          8             0       -1.790253   -0.602560    0.000130
    3          6             0       -0.477776   -0.232644    0.000075
    4          6             0       -0.019434    1.079550   -0.000010
    5          6             0        1.343137    1.332366   -0.000045
    6          6             0        2.256141    0.295339    0.000001
    7          6             0        1.799265   -1.013957    0.000069
    8          6             0        0.446195   -1.278848    0.000104
    9          1             0       -2.705331    1.032654   -0.893324
   10          1             0       -2.704999    1.032689    0.893850
   11          1             0       -3.728614   -0.118198    0.000475
   12          1             0       -0.708066    1.910069   -0.000054
   13          1             0        1.687433    2.356418   -0.000107
   14          1             0        3.315426    0.502617   -0.000018
   15          1             0        2.503302   -1.832893    0.000101
   16          1             0        0.072404   -2.290679    0.000160
 --------------------------------------------------------------------
     1 basis functions        1 primitive gaussians
     1 alpha electrons        1 beta electrons
 
 Harmonic frequencies (cm**-1), IR intensities (km*mol⁻¹),
 Raman scattering activities (A**4/amu), Raman depolarization ratios,
 reduced masses (AMU), force constants (mDyne/A) and normal coordinates:
                      1                      2                      3
                        a                      a                      a 
 Frequencies --    94.7643               199.8518               246.3611
 Red. masses --     9.8048                 7.0641                 9.1953
 Frc consts  --     0.0000                 0.0000                 0.0000
 IR Inten    --     4.5293                 1.8069                 1.5088
 Raman Activ --     0.0000                 0.0000                 0.0000
 Depolar     --     0.0000                 0.0000                 0.0000
 Atom AN      X      Y      Z        X      Y      Z        X      Y      Z
   1   6    -0.00   0.00  -0.51     0.00   0.00  -0.05    -0.42  -0.43  -0.00
   2   8     0.00  -0.00   0.43     0.00  -0.00   0.42     0.10   0.09  -0.00
   3   6     0.00   0.00   0.26    -0.00  -0.00  -0.14     0.02   0.31   0.00
   4   6     0.00   0.00   0.32    -0.00  -0.00  -0.24     0.19   0.25   0.00
   5   6     0.00   0.00   0.08    -0.00   0.00   0.09     0.27  -0.02   0.00
   6   6     0.00  -0.00  -0.24    -0.00   0.00   0.32     0.12  -0.16  -0.00
   7   6     0.00  -0.00  -0.23     0.00   0.00  -0.09    -0.08  -0.09  -0.00
   8   6     0.00   0.00   0.04     0.00  -0.00  -0.33    -0.11   0.18   0.00
   9   1     0.15  -0.09  -0.20    -0.17  -0.28  -0.23    -0.22  -0.11   0.00
  10   1    -0.15   0.09  -0.20     0.17   0.28  -0.23    -0.22  -0.11  -0.00
  11   1    -0.00   0.00  -0.26     0.00   0.00   0.33    -0.04  -0.28   0.00
  12   1     0.00   0.00   0.16    -0.00  -0.00  -0.13     0.08   0.09   0.00
  13   1     0.00   0.00   0.03    -0.00   0.00   0.06     0.13  -0.02   0.00
  14   1     0.00  -0.00  -0.14    -0.00   0.00   0.20     0.04  -0.09  -0.00
  15   1     0.00  -0.00  -0.13     0.00   0.00  -0.04    -0.06  -0.06  -0.00
  16   1     0.00   0.00   0.01     0.00  -0.00  -0.14    -0.09   0.07   0.00
                      4                      5                      6
                        a                      a                      a 
 Frequencies --   256.4837               379.7196               423.9021
 Red. masses --     5.9703                 8.9713                11.1512
 Frc consts  --     0.0000                 0.0000                 0.0000
 IR Inten    --     1.9519                 0.0002                 0.0254
 Raman Activ --     0.0000                 0.0000                 0.0000
 Depolar     --     0.0000                 0.0000                 0.0000
 Atom AN      X      Y      Z        X      Y      Z        X      Y      Z
   1   6    -0.00  -0.00   0.04     0.00   0.00  -0.01     0.47  -0.16  -0.00
   2   8     0.00   0.00   0.39    -0.00  -0.00  -0.00     0.34  -0.23   0.00
   3   6     0.00   0.00  -0.10    -0.00  -0.00   0.00     0.08   0.24  -0.00
   4   6     0.00   0.00  -0.27     0.00   0.00   0.44    -0.14   0.32   0.00
   5   6     0.00  -0.00  -0.11    -0.00  -0.00  -0.41    -0.10   0.07   0.00
   6   6     0.00  -0.00   0.26     0.00   0.00  -0.01    -0.31  -0.12  -0.00
   7   6    -0.00  -0.00   0.02     0.00   0.00   0.42    -0.24  -0.15   0.00
   8   6    -0.00   0.00  -0.27    -0.00  -0.00  -0.43    -0.21   0.07   0.00
   9   1     0.30   0.22   0.19    -0.03  -0.04  -0.03     0.18  -0.05   0.00
  10   1    -0.30  -0.22   0.19     0.03   0.04  -0.03     0.18  -0.05  -0.00
  11   1    -0.00  -0.00  -0.45     0.00   0.00   0.06     0.10   0.02   0.00
  12   1     0.00   0.00  -0.08     0.00   0.00   0.26    -0.03   0.10   0.00
  13   1     0.00  -0.00  -0.04    -0.00  -0.00  -0.26     0.05  -0.00   0.00
  14   1     0.00  -0.00   0.18    -0.00   0.00  -0.01    -0.08  -0.06  -0.00
  15   1    -0.00  -0.00   0.03     0.00   0.00   0.26    -0.07  -0.04   0.00
  16   1    -0.00   0.00  -0.11     0.00  -0.00  -0.25    -0.17   0.06   0.00
                      7                      8                      9
                        a                      a                      a 
 Frequencies --   483.1904               531.1319               588.6567
 Red. masses --     9.5291                11.7728                11.2335
 Frc consts  --     0.0000                 0.0000                 0.0000
 IR Inten    --     0.0256                 6.5838                 0.1759
 Raman Activ --     0.0000                 0.0000                 0.0000
 Depolar     --     0.0000                 0.0000                 0.0000
 Atom AN      X      Y      Z        X      Y      Z        X      Y      Z
   1   6     0.00  -0.00  -0.02    -0.12   0.03   0.00    -0.07   0.07   0.00
   2   8     0.00   0.00  -0.23     0.33   0.47   0.00     0.04   0.12  -0.00
   3   6     0.00   0.00   0.62     0.34  -0.10  -0.00     0.02   0.13  -0.00
   4   6    -0.00   0.00   0.03    -0.02  -0.02  -0.00    -0.38   0.20  -0.00
   5   6    -0.00   0.00  -0.29    -0.14   0.19   0.00    -0.31  -0.38   0.00
   6   6    -0.00   0.00   0.39    -0.36   0.00  -0.00    -0.01  -0.17   0.00
   7   6    -0.00  -0.00  -0.28    -0.02  -0.15   0.00     0.43  -0.29   0.00
   8   6    -0.00  -0.00   0.04     0.05  -0.41  -0.00     0.30   0.27  -0.00
   9   1    -0.03   0.01   0.00    -0.16   0.02  -0.00    -0.04   0.02  -0.00
  10   1     0.03  -0.01   0.00    -0.16   0.02   0.00    -0.04   0.02   0.00
  11   1     0.00  -0.00   0.02     0.06  -0.18  -0.00     0.00  -0.02  -0.00
  12   1    -0.00  -0.00  -0.17    -0.12  -0.10   0.00    -0.07   0.08  -0.00
  13   1    -0.00  -0.00  -0.29    -0.01   0.04   0.00    -0.03  -0.12   0.00
  14   1    -0.00   0.00   0.13    -0.10   0.00  -0.00    -0.04   0.12  -0.00
  15   1     0.00  -0.00  -0.28     0.08   0.03   0.00     0.09  -0.11   0.00
  16   1    -0.00  -0.00  -0.18    -0.02  -0.11   0.00     0.03   0.09  -0.00
                     10                     11                     12
                        a                      a                      a 
 Frequencies --   656.0174               756.6646               793.3794
 Red. masses --    10.0056                 4.2795                11.4588
 Frc consts  --     0.0000                 0.0000                 0.0000
 IR Inten    --     0.0004                50.5911                30.5310
 Raman Activ --     0.0000                 0.0000                 0.0000
 Depolar     --     0.0000                 0.0000                 0.0000
 Atom AN      X      Y      Z        X      Y      Z        X      Y      Z
   1   6     0.00  -0.00  -0.00    -0.00   0.00   0.01    -0.19   0.08   0.00
   2   8    -0.00  -0.00  -0.05    -0.00  -0.00   0.09    -0.35  -0.32  -0.00
   3   6     0.00   0.00   0.48    -0.00  -0.00  -0.38     0.07   0.02   0.00
   4   6    -0.00  -0.00  -0.32     0.00   0.00   0.22     0.12   0.26  -0.00
   5   6     0.00   0.00   0.37     0.00   0.00   0.13     0.17   0.42  -0.00
   6   6     0.00  -0.00  -0.33    -0.00   0.00   0.16    -0.30  -0.07   0.00
   7   6     0.00   0.00   0.37     0.00  -0.00   0.12     0.27  -0.31   0.00
   8   6    -0.00   0.00  -0.31     0.00  -0.00   0.18     0.18  -0.12  -0.00
   9   1    -0.00   0.01   0.01     0.01   0.00   0.01     0.05   0.01   0.00
  10   1     0.00  -0.01   0.01    -0.01  -0.00   0.01     0.05   0.01  -0.00
  11   1    -0.00   0.00  -0.01    -0.00  -0.00  -0.02    -0.14   0.18   0.00
  12   1    -0.00  -0.00  -0.26    -0.00  -0.00  -0.38     0.01   0.06  -0.00
  13   1     0.00  -0.00   0.01     0.00  -0.00  -0.37     0.17   0.08   0.00
  14   1     0.00  -0.00  -0.23    -0.00  -0.00  -0.47    -0.08  -0.03   0.00
  15   1    -0.00  -0.00   0.01     0.00  -0.00  -0.34     0.16  -0.01   0.00
  16   1    -0.00  -0.00  -0.25    -0.00  -0.00  -0.29    -0.00  -0.02   0.00
                     13                     14                     15
                        a                      a                      a 
 Frequencies --   861.3016               881.0611               921.2138
 Red. masses --     3.3460                 3.6343                 3.8517
 Frc consts  --     0.0000                 0.0000                 0.0000
 IR Inten    --     0.0001                 1.9768                 0.0528
 Raman Activ --     0.0000                 0.0000                 0.0000
 Depolar     --     0.0000                 0.0000                 0.0000
 Atom AN      X      Y      Z        X      Y      Z        X      Y      Z
   1   6     0.00   0.00   0.00     0.00  -0.00   0.00     0.00   0.00   0.00
   2   8    -0.00  -0.00  -0.01     0.00   0.00   0.02     0.00  -0.00   0.00
   3   6    -0.00   0.00  -0.00    -0.00  -0.00  -0.08    -0.00  -0.00  -0.05
   4   6    -0.00  -0.00  -0.35    -0.00   0.00   0.14    -0.00  -0.00  -0.17
   5   6    -0.00  -0.00  -0.10     0.00  -0.00  -0.14     0.00   0.00   0.36
   6   6    -0.00   0.00   0.14     0.00  -0.00  -0.30    -0.00  -0.00  -0.13
   7   6     0.00   0.00   0.17    -0.00   0.00   0.08    -0.00  -0.00  -0.20
   8   6     0.00   0.00   0.18     0.00   0.00   0.31     0.00   0.00   0.20
   9   1     0.00  -0.01  -0.01     0.00   0.00   0.00     0.01  -0.01  -0.00
  10   1    -0.00   0.01  -0.01    -0.00  -0.00   0.00    -0.01   0.01  -0.00
  11   1     0.00   0.00   0.02     0.00  -0.00  -0.01     0.00   0.00   0.01
  12   1     0.00   0.00   0.66    -0.00  -0.00  -0.24     0.00   0.00   0.30
  13   1     0.00   0.00   0.18     0.00   0.00   0.33    -0.00  -0.00  -0.65
  14   1    -0.00  -0.00  -0.24     0.00   0.00   0.48     0.00   0.00   0.26
  15   1    -0.00  -0.00  -0.39    -0.00  -0.00  -0.07     0.00   0.00   0.30
  16   1    -0.00  -0.00  -0.33    -0.00  -0.00  -0.60    -0.00  -0.00  -0.28
                     16                     17                     18
                        a                      a                      a 
 Frequencies --   926.3911               978.5455              1063.6133
 Red. masses --     2.9671                10.8083                12.3392
 Frc consts  --     0.0000                 0.0000                 0.0000
 IR Inten    --     0.0423                 3.1020                38.7291
 Raman Activ --     0.0000                 0.0000                 0.0000
 Depolar     --     0.0000                 0.0000                 0.0000
 Atom AN      X      Y      Z        X      Y      Z        X      Y      Z
   1   6     0.00   0.00  -0.00     0.14  -0.06  -0.00    -0.47   0.35   0.00
   2   8    -0.00  -0.00  -0.00     0.01   0.12   0.00     0.45  -0.39  -0.00
   3   6    -0.00  -0.00  -0.07    -0.18  -0.04   0.00     0.24   0.03  -0.00
   4   6    -0.00   0.00   0.04     0.27  -0.48   0.00     0.09  -0.13   0.00
   5   6     0.00   0.00   0.09     0.01   0.19  -0.00    -0.05  -0.14   0.00
   6   6    -0.00  -0.00  -0.22    -0.37  -0.08   0.00    -0.13  -0.03   0.00
   7   6     0.00   0.00   0.31     0.10  -0.17   0.00    -0.15   0.13  -0.00
   8   6    -0.00  -0.00  -0.13     0.07   0.54  -0.00     0.05   0.18  -0.00
   9   1    -0.00   0.00   0.00    -0.03  -0.01  -0.00     0.02   0.05  -0.00
  10   1     0.00  -0.00   0.00    -0.03  -0.01   0.00     0.02   0.05   0.00
  11   1     0.00  -0.00   0.00     0.08  -0.10  -0.00    -0.17   0.20   0.00
  12   1     0.00   0.00   0.07     0.01  -0.19   0.00    -0.00  -0.07   0.00
  13   1    -0.00  -0.00  -0.27    -0.07   0.07  -0.00    -0.04  -0.03   0.00
  14   1     0.00   0.00   0.46    -0.10  -0.01   0.00    -0.03  -0.05   0.00
  15   1    -0.00  -0.00  -0.64    -0.04  -0.10   0.00    -0.07   0.01  -0.00
  16   1     0.00   0.00   0.35    -0.03   0.17  -0.00    -0.06   0.08  -0.00
                     19                     20                     21
                        a                      a                      a 
 Frequencies --  1081.5820              1114.8715              1123.0783
 Red. masses --     6.1174                 4.4428                 3.7504
 Frc consts  --     0.0000                 0.0000                 0.0000
 IR Inten    --     0.4878                 0.6994                 2.1838
 Raman Activ --     0.0000                 0.0000                 0.0000
 Depolar     --     0.0000                 0.0000                 0.0000
 Atom AN      X      Y      Z        X      Y      Z        X      Y      Z
   1   6     0.05  -0.06  -0.00     0.06   0.17  -0.00     0.00  -0.00   0.43
   2   8    -0.06   0.07   0.00     0.02  -0.11   0.00    -0.00   0.00  -0.22
   3   6    -0.05  -0.03   0.00     0.01  -0.15   0.00    -0.00  -0.00  -0.00
   4   6     0.12   0.07  -0.00    -0.26   0.12  -0.00    -0.00   0.00   0.00
   5   6     0.03  -0.29   0.00     0.06   0.24  -0.00     0.00   0.00  -0.00
   6   6    -0.42  -0.14   0.00     0.12  -0.17   0.00     0.00  -0.00   0.00
   7   6    -0.12   0.32  -0.00    -0.10   0.04  -0.00     0.00  -0.00   0.00
   8   6     0.16   0.06  -0.00     0.12   0.15  -0.00     0.00   0.00  -0.00
   9   1     0.01  -0.00   0.01    -0.14   0.02  -0.02     0.39  -0.42  -0.17
  10   1     0.01  -0.00  -0.01    -0.14   0.02   0.02    -0.39   0.42  -0.17
  11   1     0.02  -0.03  -0.00     0.12  -0.16  -0.00    -0.00   0.00  -0.22
  12   1     0.20   0.16  -0.00    -0.33  -0.18   0.00    -0.00  -0.00  -0.02
  13   1     0.31  -0.19   0.00     0.16   0.03  -0.00     0.00   0.00   0.00
  14   1    -0.11  -0.09   0.00     0.11  -0.40   0.00     0.00  -0.00  -0.00
  15   1     0.14   0.25  -0.00    -0.27  -0.20   0.00    -0.00  -0.00  -0.00
  16   1     0.47  -0.13  -0.00     0.38  -0.08  -0.00     0.00  -0.00   0.01
                     22                     23                     24
                        a                      a                      a 
 Frequencies --  1158.7503              1178.5357              1193.8755
 Red. masses --     4.8017                 1.7097                 2.8010
 Frc consts  --     0.0000                 0.0000                 0.0000
 IR Inten    --     4.8967                 3.7819                36.7667
 Raman Activ --     0.0000                 0.0000                 0.0000
 Depolar     --     0.0000                 0.0000                 0.0000
 Atom AN      X      Y      Z        X      Y      Z        X      Y      Z
   1   6    -0.16  -0.38  -0.00     0.01  -0.07  -0.00     0.05  -0.12  -0.00
   2   8     0.06   0.33   0.00    -0.05   0.07   0.00    -0.16   0.07   0.00
   3   6     0.03   0.05  -0.00     0.03   0.04  -0.00     0.22  -0.04  -0.00
   4   6    -0.05  -0.04   0.00    -0.12  -0.05   0.00    -0.04  -0.05   0.00
   5   6    -0.03   0.07  -0.00    -0.00  -0.01  -0.00     0.06  -0.09   0.00
   6   6     0.03  -0.03   0.00     0.02  -0.09   0.00     0.01  -0.01  -0.00
   7   6    -0.05  -0.05   0.00     0.04   0.10  -0.00    -0.01   0.17  -0.00
   8   6     0.08   0.02   0.00     0.08   0.04  -0.00    -0.04   0.08  -0.00
   9   1     0.32  -0.06   0.04     0.03  -0.01   0.00     0.04  -0.02  -0.00
  10   1     0.32  -0.06  -0.04     0.03  -0.01  -0.00     0.04  -0.02   0.00
  11   1    -0.32   0.43   0.00    -0.03   0.05   0.00    -0.07   0.11   0.00
  12   1    -0.10  -0.08   0.00    -0.05  -0.03   0.00    -0.43  -0.37   0.00
  13   1    -0.10   0.05  -0.00    -0.22   0.07  -0.00     0.55  -0.21   0.00
  14   1     0.03  -0.10   0.00     0.13  -0.70   0.00    -0.04   0.17  -0.00
  15   1    -0.19  -0.16   0.00     0.40   0.36  -0.00     0.05   0.10  -0.00
  16   1     0.28  -0.09  -0.00    -0.27   0.12  -0.00    -0.32   0.14  -0.00
                     25                     26                     27
                        a                      a                      a 
 Frequencies --  1248.7635              1283.5289              1332.2120
 Red. masses --    10.0076                 3.7527                11.8859
 Frc consts  --     0.0000                 0.0000                 0.0000
 IR Inten    --   200.3763                 8.7513                23.1071
 Raman Activ --     0.0000                 0.0000                 0.0000
 Depolar     --     0.0000                 0.0000                 0.0000
 Atom AN      X      Y      Z        X      Y      Z        X      Y      Z
   1   6     0.13  -0.08  -0.00    -0.06  -0.04   0.00    -0.06  -0.02   0.00
   2   8    -0.43  -0.02   0.00     0.05   0.10   0.00     0.12   0.05   0.00
   3   6     0.59  -0.03  -0.00    -0.04  -0.29   0.00    -0.04  -0.44   0.00
   4   6     0.23   0.12  -0.00    -0.18  -0.09   0.00     0.24   0.25  -0.00
   5   6    -0.18  -0.14   0.00    -0.08   0.10  -0.00    -0.35   0.18  -0.00
   6   6    -0.08  -0.08   0.00    -0.05   0.17  -0.00     0.12  -0.40   0.00
   7   6    -0.08   0.19  -0.00     0.07   0.11  -0.00     0.30   0.20  -0.00
   8   6     0.12   0.06  -0.00     0.19  -0.03  -0.00    -0.41   0.13   0.00
   9   1    -0.08   0.01   0.00     0.06   0.01   0.02     0.05  -0.01   0.00
  10   1    -0.08   0.01  -0.00     0.06   0.01  -0.02     0.05  -0.01  -0.00
  11   1     0.02  -0.01  -0.00    -0.00  -0.02  -0.00    -0.03   0.03   0.00
  12   1     0.06   0.02  -0.00     0.37   0.33  -0.00     0.02   0.04   0.00
  13   1    -0.32   0.05   0.00     0.37  -0.10   0.00     0.02   0.01   0.00
  14   1    -0.02  -0.05   0.00     0.05  -0.25   0.00     0.01   0.04  -0.00
  15   1    -0.29  -0.17   0.00    -0.29  -0.24   0.00     0.08   0.05  -0.00
  16   1    -0.08   0.07  -0.00    -0.35   0.14   0.00    -0.00  -0.01  -0.00
                     28                     29                     30
                        a                      a                      a 
 Frequencies --  1402.5814              1441.1412              1473.1394
 Red. masses --     2.5480                 8.9041                 1.5505
 Frc consts  --     0.0000                 0.0000                 0.0000
 IR Inten    --     0.0159                 3.8101                 5.1524
 Raman Activ --     0.0000                 0.0000                 0.0000
 Depolar     --     0.0000                 0.0000                 0.0000
 Atom AN      X      Y      Z        X      Y      Z        X      Y      Z
   1   6    -0.25   0.20   0.00    -0.03  -0.06   0.00     0.00  -0.00   0.22
   2   8    -0.11   0.06   0.00    -0.00   0.07   0.00    -0.00  -0.00   0.03
   3   6     0.04  -0.00   0.00     0.13  -0.36   0.00     0.00   0.00   0.00
   4   6     0.02   0.04  -0.00    -0.34   0.02   0.00     0.00  -0.00  -0.00
   5   6     0.04  -0.03   0.00     0.32   0.15  -0.00    -0.00   0.00  -0.00
   6   6    -0.02  -0.03   0.00     0.08  -0.32   0.00     0.00   0.00   0.00
   7   6    -0.03   0.03  -0.00    -0.36  -0.03   0.00     0.00  -0.00  -0.00
   8   6     0.06  -0.00  -0.00     0.20   0.20  -0.00    -0.00   0.00  -0.00
   9   1     0.45  -0.24  -0.14     0.02   0.08   0.06    -0.45  -0.09  -0.09
  10   1     0.45  -0.24   0.14     0.02   0.08  -0.06     0.45   0.09  -0.09
  11   1     0.25  -0.49  -0.00    -0.01   0.00  -0.00    -0.00  -0.00  -0.72
  12   1    -0.07  -0.05   0.00     0.10   0.17  -0.00    -0.00  -0.00   0.02
  13   1    -0.06   0.01  -0.00    -0.14   0.12  -0.00     0.00  -0.00  -0.00
  14   1    -0.01   0.03  -0.00    -0.06   0.35  -0.00     0.00  -0.00   0.00
  15   1    -0.02   0.00   0.00     0.12   0.19  -0.00     0.00   0.00  -0.00
  16   1    -0.03   0.02   0.00    -0.06   0.11  -0.00     0.00  -0.00  -0.00
                     31                     32                     33
                        a                      a                      a 
 Frequencies --  1474.1689              1486.4124              1588.6386
 Red. masses --     8.8221                 1.9205                11.5377
 Frc consts  --     0.0000                 0.0000                 0.0000
 IR Inten    --   105.5778                 0.9840                17.8500
 Raman Activ --     0.0000                 0.0000                 0.0000
 Depolar     --     0.0000                 0.0000                 0.0000
 Atom AN      X      Y      Z        X      Y      Z        X      Y      Z
   1   6    -0.05  -0.02  -0.00    -0.12  -0.16  -0.00     0.01   0.01   0.00
   2   8    -0.13  -0.04   0.00     0.00  -0.05  -0.00    -0.04  -0.05   0.00
   3   6     0.42   0.10  -0.00    -0.08   0.05   0.00    -0.01   0.50  -0.00
   4   6    -0.08  -0.26   0.00     0.07   0.06  -0.00    -0.14  -0.35   0.00
   5   6    -0.30   0.15  -0.00     0.03  -0.06   0.00    -0.15   0.28  -0.00
   6   6     0.22   0.16  -0.00    -0.05   0.00   0.00     0.10  -0.52   0.00
   7   6    -0.14  -0.32   0.00     0.07   0.07  -0.00     0.11   0.32  -0.00
   8   6    -0.27   0.21  -0.00     0.02  -0.07   0.00     0.11  -0.22   0.00
   9   1     0.07   0.08   0.06     0.18   0.49   0.36    -0.00   0.00  -0.00
  10   1     0.07   0.08  -0.06     0.18   0.49  -0.36    -0.00   0.00   0.00
  11   1     0.05  -0.10   0.00     0.13  -0.26   0.00     0.02  -0.02  -0.00
  12   1     0.20   0.11  -0.00    -0.11  -0.09   0.00     0.11   0.03  -0.00
  13   1     0.26  -0.07   0.00    -0.04  -0.00   0.00     0.08   0.03  -0.00
  14   1     0.09  -0.05   0.00    -0.01  -0.03   0.00    -0.02   0.12  -0.00
  15   1     0.20   0.11  -0.00    -0.05  -0.04   0.00    -0.07  -0.00   0.00
  16   1     0.25  -0.06  -0.00    -0.04  -0.00   0.00    -0.04  -0.03   0.00
                     34                     35                     36
                        a                      a                      a 
 Frequencies --  1604.7102              2927.3835              2941.8312
 Red. masses --    11.4870                 1.9475                 1.4504
 Frc consts  --     0.0000                 0.0000                 0.0000
 IR Inten    --    75.0603                43.9944                32.5507
 Raman Activ --     0.0000                 0.0000                 0.0000
 Depolar     --     0.0000                 0.0000                 0.0000
 Atom AN      X      Y      Z        X      Y      Z        X      Y      Z
   1   6    -0.01   0.00   0.00     0.00  -0.00   0.29    -0.04  -0.19  -0.00
   2   8    -0.02  -0.00   0.00     0.00  -0.00   0.01     0.01  -0.02  -0.00
   3   6     0.25   0.00  -0.00    -0.00  -0.00  -0.00    -0.00  -0.00   0.00
   4   6    -0.37  -0.15   0.00    -0.00   0.00  -0.00    -0.00   0.00  -0.00
   5   6     0.46  -0.09  -0.00     0.00   0.00   0.00    -0.00   0.00  -0.00
   6   6    -0.22   0.04  -0.00     0.00   0.00   0.00    -0.00   0.00  -0.00
   7   6     0.42   0.18  -0.00    -0.00  -0.00   0.00    -0.00  -0.00  -0.00
   8   6    -0.49   0.05   0.00     0.00   0.00   0.00     0.00   0.00  -0.00
   9   1     0.01  -0.01  -0.00     0.06   0.41  -0.54     0.04   0.37  -0.58
  10   1     0.01  -0.01   0.00    -0.06  -0.40  -0.54     0.04   0.37   0.58
  11   1    -0.00  -0.00  -0.00     0.00   0.00   0.05     0.02  -0.01  -0.00
  12   1     0.05   0.07  -0.00     0.00  -0.00  -0.00     0.02  -0.01   0.00
  13   1    -0.10   0.05  -0.00    -0.00  -0.00  -0.00    -0.00  -0.00   0.00
  14   1    -0.05  -0.04   0.00    -0.00  -0.00  -0.00     0.00   0.00   0.00
  15   1    -0.05  -0.09   0.00    -0.00   0.00  -0.00    -0.00   0.00  -0.00
  16   1     0.09  -0.07   0.00    -0.00  -0.00   0.00    -0.00  -0.00   0.00
                     37                     38                     39
                        a                      a                      a 
 Frequencies --  3025.7571              3075.6712              3080.6519
 Red. masses --     1.6876                 1.7666                 1.7960
 Frc consts  --     0.0000                 0.0000                 0.0000
 IR Inten    --    16.0248                 8.9906                22.4185
 Raman Activ --     0.0000                 0.0000                 0.0000
 Depolar     --     0.0000                 0.0000                 0.0000
 Atom AN      X      Y      Z        X      Y      Z        X      Y      Z
   1   6     0.22   0.12  -0.00    -0.00  -0.00   0.00    -0.00  -0.00  -0.00
   2   8     0.01  -0.00  -0.00     0.00   0.00  -0.00    -0.00   0.00  -0.00
   3   6    -0.00   0.00  -0.00     0.00  -0.00   0.00     0.00  -0.00   0.00
   4   6     0.00  -0.00   0.00     0.03  -0.04   0.00     0.02  -0.02   0.00
   5   6     0.00   0.00  -0.00     0.07   0.22  -0.00     0.03   0.08  -0.00
   6   6     0.00   0.00  -0.00    -0.10  -0.02   0.00     0.08   0.02  -0.00
   7   6     0.00  -0.00   0.00     0.03  -0.04   0.00    -0.15   0.18  -0.00
   8   6    -0.00  -0.00   0.00     0.00   0.00  -0.00    -0.02  -0.04   0.00
   9   1     0.03   0.04  -0.02     0.00   0.00  -0.00     0.00   0.00  -0.00
  10   1     0.03   0.04   0.02     0.00   0.00   0.00     0.00   0.00   0.00
  11   1    -0.84  -0.47   0.00     0.00   0.00  -0.00     0.00   0.00  -0.00
  12   1    -0.01   0.01  -0.00    -0.13   0.16  -0.00    -0.08   0.09  -0.00
  13   1    -0.00  -0.00   0.00    -0.27  -0.79   0.00    -0.10  -0.28   0.00
  14   1    -0.00  -0.00   0.00     0.39   0.08  -0.00    -0.30  -0.06   0.00
  15   1    -0.00   0.00  -0.00    -0.12   0.14  -0.00     0.54  -0.63   0.00
  16   1     0.00   0.00  -0.00    -0.01  -0.02   0.00     0.07   0.18  -0.00
                     40                     41                     42
                        a                      a                      a 
 Frequencies --  3094.0052              3100.8206              3106.3823
 Red. masses --     1.8620                 1.8646                 1.8702
 Frc consts  --     0.0000                 0.0000                 0.0000
 IR Inten    --    68.3239                44.0189                15.4977
 Raman Activ --     0.0000                 0.0000                 0.0000
 Depolar     --     0.0000                 0.0000                 0.0000
 Atom AN      X      Y      Z        X      Y      Z        X      Y      Z
   1   6     0.00   0.00  -0.00    -0.00  -0.00   0.00     0.00   0.00  -0.00
   2   8     0.00   0.00   0.00    -0.00  -0.00  -0.00    -0.00  -0.00   0.00
   3   6    -0.01  -0.00   0.00     0.01   0.00  -0.00     0.01   0.00  -0.00
   4   6    -0.06   0.08  -0.00     0.15  -0.19   0.00     0.02  -0.03   0.00
   5   6    -0.02  -0.06   0.00    -0.03  -0.09   0.00    -0.01  -0.02   0.00
   6   6    -0.22  -0.04   0.00    -0.07  -0.01   0.00    -0.05  -0.01   0.00
   7   6    -0.07   0.08  -0.00    -0.01   0.01  -0.00    -0.06   0.07  -0.00
   8   6    -0.02  -0.06   0.00    -0.02  -0.06   0.00     0.09   0.24  -0.00
   9   1    -0.00  -0.00   0.00     0.00   0.01  -0.01     0.00  -0.00   0.00
  10   1    -0.00  -0.00  -0.00     0.00   0.01   0.01     0.00  -0.00  -0.00
  11   1    -0.01  -0.00   0.00     0.01   0.01  -0.00    -0.00  -0.00   0.00
  12   1     0.24  -0.29   0.00    -0.54   0.65  -0.00    -0.08   0.10  -0.00
  13   1     0.06   0.18  -0.00     0.10   0.30  -0.00     0.02   0.07  -0.00
  14   1     0.75   0.15  -0.00     0.25   0.05  -0.00     0.17   0.03  -0.00
  15   1     0.23  -0.27   0.00     0.02  -0.03   0.00     0.18  -0.21   0.00
  16   1     0.07   0.21  -0.00     0.07   0.20  -0.00    -0.30  -0.84   0.00
