22
 energy: -3220.641328760363 gnorm: 0.024870672543 xtb: 6.7.1 (edcfbbe)
C            1.70874925355719       -0.45390810590114        1.58083427770051
C            3.08192607306568       -0.57971016185688        1.67702504114313
C            3.89348591132531       -0.18926363878387        0.62223215337573
C            3.31926144317085        0.33176554194701       -0.53507718913711
C            1.94230476166069        0.45745149770271       -0.62863867727857
C            1.13191787200158        0.06524584002891        0.42792670738963
C           -0.34084440585104        0.18793099688328        0.31519565303967
C           -0.98806713933784        1.35217034799918        0.70166468631093
C           -2.36603805764845        1.46071819834728        0.59833906396514
C           -3.12102935278301        0.39861162357664        0.10231639594534
C           -2.47770395769794       -0.77533859114357       -0.28978526652841
C           -1.09202388198390       -0.87578548948808       -0.18142162278039
Cl          -0.29732953873175       -2.32143942122869       -0.66436458269440
Cl          -3.39316191240360       -2.08801057012525       -0.90210618769975
Cl          -4.82523944743819        0.52668637643339       -0.02729941791210
Cl          -3.14747391999473        2.90949618078927        1.08410116728039
Cl           4.30962829660971        0.82033396606351       -1.85497289632199
Cl           5.60187144248234       -0.35128863545567        0.74846184903166
H            1.07941962307832       -0.76185210463760        2.40106453666398
H            3.53416946126608       -0.98322549273569        2.56889992613835
H            1.50370709176633        0.85737926717993       -1.52915037287761
H           -0.41402539408347        2.17984115826594        1.08622287938133
22
 energy: -3220.642649970377 gnorm: 0.013311412631 xtb: 6.7.1 (edcfbbe)
C            1.71153240229055       -0.44842614775814        1.58648811098172
C            3.08822992647863       -0.57630280377636        1.68153663096176
C            3.90373952735065       -0.18687165764335        0.62398714926476
C            3.32667247893380        0.33870655629495       -0.53766668528091
C            1.94528131971869        0.46534133456021       -0.62776682794970
C            1.13320284390471        0.07041555427906        0.43028471768901
C           -0.34221214077038        0.18016648205527        0.31143910254959
C           -0.99052001389557        1.34680072647662        0.69863221919764
C           -2.37052963961080        1.46156078642560        0.59763233235981
C           -3.13334273181327        0.39830735539830        0.10070192938792
C           -2.48908811738263       -0.78296930395612       -0.29382855869943
C           -1.09718589500972       -0.88603456717798       -0.18613688580563
Cl          -0.29519961798563       -2.33710551474011       -0.67052737315781
Cl          -3.40933636276074       -2.10053386131880       -0.90855110430777
Cl          -4.84417970260415        0.53310923340032       -0.02704538689679
Cl          -3.12739829921483        2.93149167666692        1.09399809818288
Cl           4.30100290192073        0.83354161965627       -1.87868732712836
Cl           5.61799085497186       -0.36209685394980        0.77252787476314
H            1.08017853175222       -0.76506595377430        2.40814351633955
H            3.54239421214854       -0.98341764577997        2.57601724403127
H            1.50458758982880        0.86057053211221       -1.53471921419721
H           -0.41231561127789        2.17662033045739        1.08500807156556
22
 energy: -3220.642876802036 gnorm: 0.005769438213 xtb: 6.7.1 (edcfbbe)
C            1.71342085664144       -0.44966104847300        1.58871266711065
C            3.09209514377508       -0.57188105857356        1.68507170019878
C            3.90777907357728       -0.18034139495200        0.62648680418834
C            3.33035699071096        0.34394907143414       -0.53504394085973
C            1.94695643252070        0.46562905576200       -0.62726407939540
C            1.13346793494473        0.06614358641994        0.42981144998623
C           -0.34323457819096        0.17196317160947        0.30845431542083
C           -0.99068399394550        1.34055743844334        0.69592045262030
C           -2.37104854991015        1.45961719395032        0.59609598752530
C           -3.13919397484917        0.39958723379051        0.10010485640165
C           -2.49725870439041       -0.78526143177867       -0.29561950087013
C           -1.10365950849337       -0.89233167509470       -0.18910085100926
Cl          -0.30299565017373       -2.35036932462306       -0.67640129741728
Cl          -3.42406797533935       -2.10430409277080       -0.91127897444623
Cl          -4.85407298733382        0.54549896146336       -0.02392979419307
Cl          -3.11937611931136        2.94069667823422        1.09731548245203
Cl           4.30786610615580        0.84115043958863       -1.88070670491461
Cl           5.62796992824541       -0.35782869483693        0.77424376100772
H            1.08262879335529       -0.76795056345038        2.41237599288882
H            3.54904330783688       -0.97822494023141        2.58034913945899
H            1.50738271468884        0.86081650833744       -1.53670339198847
H           -0.40987044020187        2.17035107710140        1.08257252542340
22
 energy: -3220.642920400207 gnorm: 0.001881207415 xtb: 6.7.1 (edcfbbe)
C            1.71454594068217       -0.45284241210353        1.58812063581889
C            3.09362354227557       -0.56947585837797        1.68651648156342
C            3.90834081781778       -0.17623818962697        0.62801697147800
C            3.33082659892015        0.34568745860271       -0.53315637095008
C            1.94718720891585        0.46254497520198       -0.62802036684258
C            1.13354141157918        0.05968808355013        0.42780439089164
C           -0.34349757124588        0.16636868369048        0.30677884945063
C           -0.98875869837654        1.33650181041965        0.69445571360181
C           -2.36867220506859        1.45821599244368        0.59522785316217
C           -3.13995566827375        0.40122664990909        0.10023820488501
C           -2.50112187450314       -0.78455166539457       -0.29559624886807
C           -1.10815044014686       -0.89505645786287       -0.19007387284028
Cl          -0.31131294246660       -2.35748629968743       -0.67929843185086
Cl          -3.43475826954093       -2.10134712072736       -0.91090211571701
Cl          -4.85619305884997        0.55055742459914       -0.02305309280097
Cl          -3.11370124813987        2.94399447037113        1.09791524176699
Cl           4.31072305364352        0.84879815307486       -1.87814660394972
Cl           5.63155695836789       -0.34851705922177        0.77667591650252
H            1.08479018985029       -0.77140812731030        2.41234890000091
H            3.55198456175942       -0.97217271892566        2.58265653366748
H            1.50879230935434        0.85817038048644       -1.53770319585622
H           -0.40628551676419        2.16514609621681        1.08066034635898
22
 energy: -3220.642942133064 gnorm: 0.002767761626 xtb: 6.7.1 (edcfbbe)
C            1.71535415888505       -0.45973332320872        1.58556360575193
C            3.09468547082045       -0.56690891238741        1.68772876912033
C            3.90808918342492       -0.16887898480945        0.63067242071116
C            3.33012450996511        0.34797574091178       -0.53086583592403
C            1.94645008303823        0.45547523995161       -0.63029634120540
C            1.13321374442219        0.04803674618040        0.42375696652145
C           -0.34382327248861        0.15776728985423        0.30447337386658
C           -0.98411425296675        1.33061315340617        0.69259293583015
C           -2.36299265447088        1.45674985251081        0.59426302081316
C           -3.13936895264990        0.40463438735109        0.10091979018029
C           -2.50604615410960       -0.78297771457533       -0.29500202278705
C           -1.11468215179569       -0.89886503937060       -0.19092448665823
Cl          -0.32570875511832       -2.36710869646236       -0.68222519249984
Cl          -3.44592482903116       -2.09723900817978       -0.90965237419859
Cl          -4.85588321415456        0.56238689678974       -0.02028409178311
Cl          -3.10434656927534        2.94685132899978        1.09741942290900
Cl           4.31214505581118        0.86198355690867       -1.87277915618780
Cl           5.63437166492083       -0.32739169830490        0.78341571973957
H            1.08693816570471       -0.77958191077350        2.40959441951733
H            3.55437316323504       -0.96309332071365        2.58555756797076
H            1.50924259716353        0.85030989445047       -1.54018403371344
H           -0.39859140001518        2.15679501960868        1.07771990695552
22
 energy: -3220.642951720700 gnorm: 0.002241576270 xtb: 6.7.1 (edcfbbe)
C            1.71510192977455       -0.46188621983939        1.58460743865515
C            3.09448350747317       -0.56651575408203        1.68775133869989
C            3.90787832713659       -0.16615743573736        0.63163690758544
C            3.32968732672304        0.34904277733901       -0.53058534266577
C            1.94598660556804        0.45366136583617       -0.63105853099422
C            1.13300075250189        0.04529650382798        0.42272798793550
C           -0.34392826486199        0.15561359195743        0.30388271590399
C           -0.98245105780738        1.32931863010468        0.69218098348939
C           -2.36114782127085        1.45703990588567        0.59426375261442
C           -3.13886671871419        0.40556300142813        0.10113087537106
C           -2.50712609134648       -0.78279670314380       -0.29478674454064
C           -1.11578862751239       -0.90026143852674       -0.19106451171446
Cl          -0.32761404093448       -2.36859495420050       -0.68187669558735
Cl          -3.44933345040502       -2.09515261528212       -0.90877234252456
Cl          -4.85478987556987        0.56419755595619       -0.02012305393750
Cl          -3.10024782211198        2.94779186836004        1.09738995511374
Cl           4.31128832777928        0.86465998561017       -1.87160372585187
Cl           5.63401276575723       -0.31976947710607        0.78623739869912
H            1.08656708996692       -0.78310652603502        2.40798303691298
H            3.55403822361672       -0.96200747891643        2.58586436230284
H            1.50844687029647        0.84712480126277       -1.54133065006791
H           -0.39569223698804        2.15473790769721        1.07700894676012
22
 energy: -3220.642969602568 gnorm: 0.001482276345 xtb: 6.7.1 (edcfbbe)
C            1.71400784731755       -0.47638381813269        1.57892341163868
C            3.09418195762417       -0.56366626752974        1.68833664816445
C            3.90775409503455       -0.14884216663340        0.63781055176648
C            3.32799399051199        0.35577803288982       -0.52901219315159
C            1.94355427572411        0.44198227254712       -0.63577821016453
C            1.13165322092254        0.02695038036418        0.41614390168985
C           -0.34478887826098        0.14063965106746        0.29949278690228
C           -0.97229410095824        1.32009621569802        0.68876195011178
C           -2.34995247957891        1.45871173770182        0.59381997909669
C           -3.13693417448241        0.41205357542175        0.10247839303547
C           -2.51534666817410       -0.78206470380968       -0.29356919219553
C           -1.12428317507011       -0.91027166111504       -0.19242443060884
Cl          -0.34573531325707       -2.38216686899129       -0.68166689374064
Cl          -3.46802439050957       -2.08601379352981       -0.90397599583278
Cl          -4.84965100229816        0.58309085570512       -0.01656447361198
Cl          -3.07486117140118        2.95428790726121        1.09686848679932
Cl           4.30721860819423        0.88382293098582       -1.86436066171181
Cl           5.63378007381906       -0.26958809326100        0.80517668389752
H            1.08492955722707       -0.80577970715311        2.39883078104551
H            3.55347908854182       -0.95396834697077        2.58870225360532
H            1.50393740195543        0.82846899402672       -1.54809942444851
H           -0.37711212763829        2.14065410862905        1.07156780712249
22
 energy: -3220.642974048578 gnorm: 0.000427038131 xtb: 6.7.1 (edcfbbe)
C            1.71469248141333       -0.47498991304213        1.57984517055557
C            3.09480020266899       -0.56409260544553        1.68839617441883
C            3.90827093781159       -0.15104318129701        0.63706949096100
C            3.32881396135256        0.35537417208934       -0.52903644574378
C            1.94437325891910        0.44412798710469       -0.63457829498757
C            1.13207151438382        0.02902298511692        0.41710752485507
C           -0.34464812979476        0.14194637155292        0.29965684303800
C           -0.97393567129946        1.32055712953059        0.68828366135798
C           -2.35177444345510        1.45840776777843        0.59331344668792
C           -3.13782027552083        0.41132745566283        0.10221881459206
C           -2.51499323170002       -0.78237265022064       -0.29358433480191
C           -1.12372550159918       -0.90965351947912       -0.19231902028079
Cl          -0.34596934835362       -2.38254735172837       -0.68216803332539
Cl          -3.46659632704689       -2.08810370240595       -0.90417386822508
Cl          -4.85159721682010        0.58267767310389       -0.01644422787243
Cl          -3.07798920972240        2.95411312615610        1.09652815187174
Cl           4.30873390177341        0.88221319584105       -1.86538676087764
Cl           5.63463326643204       -0.27531546785741        0.80299761154540
H            1.08600031889533       -0.80347912151757        2.40041837558098
H            3.55466177602774       -0.95490680796307        2.58855069609784
H            1.50522740396950        0.83277198758662       -1.54630170346473
H           -0.37972306113771        2.14175642602243        1.07106919518793
22
 energy: -3220.642974048578 gnorm: 0.000427038131 xtb: 6.7.1 (edcfbbe)
C            1.71469248141333       -0.47498991304213        1.57984517055557
C            3.09480020266899       -0.56409260544553        1.68839617441883
C            3.90827093781159       -0.15104318129701        0.63706949096100
C            3.32881396135256        0.35537417208934       -0.52903644574378
C            1.94437325891910        0.44412798710469       -0.63457829498757
C            1.13207151438382        0.02902298511692        0.41710752485507
C           -0.34464812979476        0.14194637155292        0.29965684303800
C           -0.97393567129946        1.32055712953059        0.68828366135798
C           -2.35177444345510        1.45840776777843        0.59331344668792
C           -3.13782027552083        0.41132745566283        0.10221881459206
C           -2.51499323170002       -0.78237265022064       -0.29358433480191
C           -1.12372550159918       -0.90965351947912       -0.19231902028079
Cl          -0.34596934835362       -2.38254735172837       -0.68216803332539
Cl          -3.46659632704689       -2.08810370240595       -0.90417386822508
Cl          -4.85159721682010        0.58267767310389       -0.01644422787243
Cl          -3.07798920972240        2.95411312615610        1.09652815187174
Cl           4.30873390177341        0.88221319584105       -1.86538676087764
Cl           5.63463326643204       -0.27531546785741        0.80299761154540
H            1.08600031889533       -0.80347912151757        2.40041837558098
H            3.55466177602774       -0.95490680796307        2.58855069609784
H            1.50522740396950        0.83277198758662       -1.54630170346473
H           -0.37972306113771        2.14175642602243        1.07106919518793
