
                                 *****************
                                 * O   R   C   A *
                                 *****************

                                            #,                                       
                                            ###                                      
                                            ####                                     
                                            #####                                    
                                            ######                                   
                                           ########,                                 
                                     ,,################,,,,,                         
                               ,,#################################,,                 
                          ,,##########################################,,             
                       ,#########################################, ''#####,          
                    ,#############################################,,   '####,        
                  ,##################################################,,,,####,       
                ,###########''''           ''''###############################       
              ,#####''   ,,,,##########,,,,          '''####'''          '####       
            ,##' ,,,,###########################,,,                        '##       
           ' ,,###''''                  '''############,,,                           
         ,,##''                                '''############,,,,        ,,,,,,###''
      ,#''                                            '''#######################'''  
     '                                                          ''''####''''         
             ,#######,   #######,   ,#######,      ##                                
            ,#'     '#,  ##    ##  ,#'     '#,    #''#        ,####,   ,####,        
            ##       ##  ##   ,#'  ##            #'  '#       #'       #'  '#        
            ##       ##  #######   ##           ,######,      #####,   #    #        
            '#,     ,#'  ##    ##  '#,     ,#' ,#      #,     #,   #   #,  ,#        
             '#######'   ##     ##  '#######'  #'      '#     '####' # '####'        



                #########################################################
                #                        -***-                          #
                #          Department of theory and spectroscopy        #
                #                                                       #
                #                      Frank Neese                      #
                #                                                       #
                #     Directorship, Architecture, Infrastructure        #
                #                    SHARK, DRIVERS                     #
                #        Core code/Algorithms in most modules           #
                #                                                       #
                #        Max Planck Institute fuer Kohlenforschung      #
                #                Kaiser Wilhelm Platz 1                 #
                #                 D-45470 Muelheim/Ruhr                 #
                #                      Germany                          #
                #                                                       #
                #                  All rights reserved                  #
                #                        -***-                          #
                #########################################################


                         Program Version 6.0.1  -  RELEASE   -


 With contributions from (in alphabetic order):
[Max-Planck-Institut fuer Kohlenforschung]                               
  Daniel Aravena         : Magnetic Suceptibility                        
  Michael Atanasov       : Ab Initio Ligand Field Theory (pilot matlab implementation)
  Alexander A. Auer      : GIAO ZORA, VPT2 properties, NMR spectrum      
  Ute Becker             : All parallelization in ORCA, NUMFREQ, NUMCALC 
  Giovanni Bistoni       : ED, misc. LED, open-shell LED, HFLD           
  Martin Brehm           : Molecular dynamics                            
  Dmytro Bykov           : pre 5.0 version of the SCF Hessian            
  Marcos Casanova-Páez   : Triplet and SCS-CIS(D). UHF-(DLPNO)-IP/EA/STEOM-CCSD. UHF-CVS-IP/STEOM-CCSD   
  Vijay G. Chilkuri      : MRCI spin determinant printing, contributions to CSF-ICE 
  Pauline Colinet        : FMM embedding                                 
  Dipayan Datta          : RHF DLPNO-CCSD density                        
  Achintya Kumar Dutta   : EOM-CC, STEOM-CC                              
  Nicolas Foglia         : Exact transition moments, OPA infrastructure, MCD improvements    
  Dmitry Ganyushin       : Spin-Orbit,Spin-Spin,Magnetic field MRCI      
  Miquel Garcia-Rates    : C-PCM and meta-GGA Hessian, CCSD/C-PCM, Gaussian charge scheme 
  Tiago L. C. Gouveia    : GS-ROHF, GS-ROCIS                             
  Yang Guo               : DLPNO-NEVPT2, F12-NEVPT2, CIM, IAO-localization        
  Andreas Hansen         : Spin unrestricted coupled pair/coupled cluster methods 
  Ingolf Harden          : AUTO-CI MPn and infrastructure                
  Benjamin Helmich-Paris : MC-RPA, TRAH-(SCF,CASSCF), AVAS, COSX integrals, SCF dyn. polar. 
  Lee Huntington         : MR-EOM, pCC                                   
  Robert Izsak           : Overlap fitted RIJCOSX, COSX-SCS-MP3, EOM     
  Riya Kayal             : Wick's Theorem for AUTO-CI, AUTO-CI UHF-CCSDT 
  Emily Kempfer          : AUTO-CI, RHF CISDT and CCSDT                  
  Christian Kollmar      : KDIIS, OOCD, Brueckner-CCSD(T), CCSD density, CASPT2, CASPT2-K, improved NEVPT2 
  Axel Koslowski         : Symmetry handling                             
  Simone Kossmann        : meta-GGA functionals, TD-DFT gradient, OOMP2, (MP2 Hessian; deprecated post 5.0) 
  Lucas Lang             : DCDCAS                                        
  Marvin Lechner         : AUTO-CI (C++ implementation), FIC-MRCC        
  Spencer Leger          : CASSCF response                               
  Dagmar Lenk            : GEPOL surface, SMD, ORCA-2-JSON               
  Dimitrios Liakos       : Extrapolation schemes; Compound Job, initial MDCI parallelization 
  Dimitrios Manganas     : Further ROCIS development; embedding schemes. LFT, Crystal Embedding 
  Dimitrios Pantazis     : SARC Basis sets                               
  Anastasios Papadopoulos: AUTO-CI, single reference methods and gradients 
  Taras Petrenko         : pre 6.0 DFT Hessian and TD-DFT gradient, (ASA, deprecated), ECA, 1-Electron XAS/XES, NRVS 
  Peter Pinski           : DLPNO-MP2, DLPNO-MP2 Gradient                 
  Christoph Reimann      : Effective Core Potentials                     
  Marius Retegan         : Local ZFS, SOC                                
  Christoph Riplinger    : Optimizer, TS searches, QM/MM, DLPNO-CCSD(T), (RO)-DLPNO pert. Triples 
  Michael Roemelt        : Original ROCIS implementation                 
  Masaaki Saitow         : Open-shell DLPNO-CCSD energy and density      
  Barbara Sandhoefer     : DKH picture change effects                    
  Kantharuban Sivalingam : CASSCF convergence/infrastructure, NEVPT2 and variants, FIC-MRCI 
  Bernardo de Souza      : ESD, SOC TD-DFT                               
  Georgi L. Stoychev     : AutoAux, RI-MP2 NMR, DLPNO-MP2 response, X2C  
  Van Anh Tran           : RI-MP2 g-tensors                              
  Willem Van den Heuvel  : Paramagnetic NMR                              
  Zikuan Wang            : NOTCH, Electric field optimization            
  Frank Wennmohs         : Technical directorship and infrastructure     
  Hang Xu                : AUTO-CI-Response properties                   
                                                                         
[FACCTs GmbH]                                                            
  Markus Bursch, Miquel Garcia-Rates, Christoph Riplinger, Bernardo de Souza, Georgi L. Stoychev 
                                                                 
  APM, Basis sets (HGBS, AHGBS, def-TZVP (Ac-Lr), def2-XVPD (La-Lu)), CI-OPT, improved COSX, DLPNO-Multilevel,           
  DOCKER, DRACO, updates on ESD, GOAT, IRC, LR-CPCM, MBIS, meta-GGA TD-DFT gradient, ML-optimized integration grids, 
  MM, NACMEs, nearIR, NEB, NEB-TS, NL-DFT gradient (VV10), 2- and 3-layer-ONIOM, interface openCOSMO-RS, QMMM,   
  Crystal-QMMM, SF, symmetry and pop. for TD-DFT, r2SCAN hybrids, SOLVATOR                                   
                                                                         
[Other institutions]                                                     
  V. Asgeirsson          : NEB                                           
  Christoph Bannwarth    : sTDA-DFT, sTD-DFT, PBEh-3c, B97-3c, D3        
  Sebastian Ehlert       : rSCAN, r2SCAN, r2SCAN-3c, D4, dhf basis sets  
  Marvin Friede          : D4 for Fr, Ra, Ac-Lr                          
  Lars Goerigk           : TD-DFT with DH, B97 family of functionals     
  Stefan Grimme          : VdW corrections, initial TS optimization, DFT functionals, gCP, sTDA/sTD-DF 
  Waldemar Hujo          : DFT-NL                                        
  H. Jonsson             : NEB                                           
  Holger Kruse           : gCP                                           
  Marcel Mueller         : wB97X-3c, vDZP basis set                      
  Hagen Neugebauer       : wr2SCAN                                       
  Tobias Risthaus        : range-separated hybrid DFT                    
  Lukas Wittmann         : regularized MP2, r2SCAN double-hybrids, wr2SCAN        
                                                                         
We gratefully acknowledge several colleagues who have allowed us to      
interface, adapt or use parts of their codes:                            
  Ed Valeev, F. Pavosevic, A. Kumar             : LibInt (2-el integral package), F12 methods 
  Garnet Chan, S. Sharma, J. Yang, R. Olivares  : DMRG                   
  Ulf Ekstrom                                   : XCFun DFT Library      
  Mihaly Kallay                                 : mrcc  (arbitrary order and MRCC methods)
  Frank Weinhold                                : gennbo (NPA and NBO analysis)           
  Simon Mueller                                 : openCOSMO-RS                            
  Christopher J. Cramer and Donald G. Truhlar   : smd solvation model                     
  S Lehtola, MJT Oliveira, MAL Marques          : LibXC Library                           
  Liviu Ungur et al                             : ANISO software                          


 Your calculation uses the libint2 library for the computation of 2-el integrals
 For citations please refer to: http://libint.valeyev.net

 Your ORCA version has been built with support for libXC version: 6.2.2
 For citations please refer to: https://libxc.gitlab.io

 This ORCA versions uses:
   CBLAS   interface :  Fast vector & matrix operations
   LAPACKE interface :  Fast linear algebra routines
   SCALAPACK package :  Parallel linear algebra routines
   Shared memory     :  Shared parallel matrices
   BLAS/LAPACK       :  OpenBLAS 0.3.27  USE64BITINT DYNAMIC_ARCH NO_AFFINITY Zen SINGLE_THREADED
        Core in use  :  Zen
   Copyright (c) 2011-2014, The OpenBLAS Project


Your calculation utilizes the geometrical counterpoise correction gCP
Please cite in your paper:
H.Kruse, S. Grimme J.Chem.Phys., 136, (2012), 154101 
   

Your calculation utilizes the atom-pairwise dispersion correction
based on EEQ partial charges (D4)


================================================================================

----- Orbital basis set information -----
Your calculation utilizes the basis: def2-mTZVPP
   Stefan Grimme, Andreas Hansen, Sebastian Ehlert, and Jan-Michael Mewes 
   J. Chem. Phys. 154, 064103 (2021). DOI: 10.1063/5.0040021

----- AuxJ basis set information -----
Your calculation utilizes the auxiliary basis: def2/J
   F. Weigend, Phys. Chem. Chem. Phys. 8, 1057 (2006).

================================================================================
                                        WARNINGS
                       Please study these warnings very carefully!
================================================================================



WARNING: SCAN, rSCAN, or r2SCAN functional requested.
  ===> : libXC variant has now been activated.



================================================================================
                                       INPUT FILE
================================================================================
NAME = sp.inp
|  1> ! r2scan-3c def2/J RI DEFGRID2 scfconv6 printgap
|  2> %output
|  3>     printlevel normal
|  4> end
|  5> * xyz 0 1
|  6> C -1.8282912129 1.4823599045 -0.0006514172
|  7> C -0.542414352 0.7111643399 0.0003859876
|  8> C 0.6648617092 1.4005501667 0.0004942424
|  9> C 1.8615000027 0.7052573835 0.0001473812
| 10> C 1.8016701195 -0.6782739269 -0.0001997856
| 11> N 0.6644725101 -1.3479234929 -0.0003879426
| 12> C -0.4859662818 -0.6874135264 -5.9216e-06
| 13> C -1.7148797522 -1.5463726015 0.0005078336
| 14> H -1.8842922072 2.1098347666 -0.8899473187
| 15> H -2.6944593804 0.8297285491 0.016403874
| 16> H -1.8697556768 2.1372070667 0.8693019565
| 17> H 0.6603601506 2.4823648524 0.0008198291
| 18> H 2.8086403709 1.2222161715 -9.73717e-05
| 19> H 2.6991455591 -1.2833347437 -0.0013952088
| 20> H -2.32233477 -1.3532158691 -0.8822549921
| 21> H -1.4099624873 -2.5887661429 -0.0014684702
| 22> H -2.3194689302 -1.3559759926 0.8859454619
| 23> *
| 24> 
| 25>                          ****END OF INPUT****
================================================================================

                       ****************************
                       * Single Point Calculation *
                       ****************************

---------------------------------
CARTESIAN COORDINATES (ANGSTROEM)
---------------------------------
  C     -1.828291    1.482360   -0.000651
  C     -0.542414    0.711164    0.000386
  C      0.664862    1.400550    0.000494
  C      1.861500    0.705257    0.000147
  C      1.801670   -0.678274   -0.000200
  N      0.664473   -1.347923   -0.000388
  C     -0.485966   -0.687414   -0.000006
  C     -1.714880   -1.546373    0.000508
  H     -1.884292    2.109835   -0.889947
  H     -2.694459    0.829729    0.016404
  H     -1.869756    2.137207    0.869302
  H      0.660360    2.482365    0.000820
  H      2.808640    1.222216   -0.000097
  H      2.699146   -1.283335   -0.001395
  H     -2.322335   -1.353216   -0.882255
  H     -1.409962   -2.588766   -0.001468
  H     -2.319469   -1.355976    0.885945

----------------------------
CARTESIAN COORDINATES (A.U.)
----------------------------
  NO LB      ZA    FRAG     MASS         X           Y           Z
   0 C     6.0000    0    12.011   -3.454970    2.801254   -0.001231
   1 C     6.0000    0    12.011   -1.025015    1.343906    0.000729
   2 C     6.0000    0    12.011    1.256407    2.646656    0.000934
   3 C     6.0000    0    12.011    3.517725    1.332743    0.000279
   4 C     6.0000    0    12.011    3.404663   -1.281752   -0.000378
   5 N     7.0000    0    14.007    1.255671   -2.547206   -0.000733
   6 C     6.0000    0    12.011   -0.918343   -1.299023   -0.000011
   7 C     6.0000    0    12.011   -3.240653   -2.922221    0.000960
   8 H     1.0000    0     1.008   -3.560796    3.987010   -1.681757
   9 H     1.0000    0     1.008   -5.091790    1.567960    0.030999
  10 H     1.0000    0     1.008   -3.533326    4.038736    1.642743
  11 H     1.0000    0     1.008    1.247900    4.690990    0.001549
  12 H     1.0000    0     1.008    5.307561    2.309654   -0.000184
  13 H     1.0000    0     1.008    5.100646   -2.425151   -0.002637
  14 H     1.0000    0     1.008   -4.388577   -2.557207   -1.667220
  15 H     1.0000    0     1.008   -2.664443   -4.892059   -0.002775
  16 H     1.0000    0     1.008   -4.383161   -2.562423    1.674194

--------------------------------
INTERNAL COORDINATES (ANGSTROEM)
--------------------------------
 C      0   0   0     0.000000000000     0.00000000     0.00000000
 C      1   0   0     1.499407541820     0.00000000     0.00000000
 C      2   1   0     1.390240381322   119.31958691     0.00000000
 C      3   2   1     1.383970874026   120.11428208   180.06214825
 C      4   3   2     1.384824401253   117.68205947     0.00000000
 N      5   4   3     1.319715491866   122.96828192     0.00000000
 C      6   5   4     1.326568119508   119.64614320     0.00000000
 C      7   6   5     1.499346282342   115.18631997   180.03272580
 H      1   2   3     1.089820175238   109.92348653    60.17530537
 H      1   2   3     1.084650111049   112.04661479   180.97096280
 H      1   2   3     1.089661864993   109.94859336   301.81662472
 H      3   2   1     1.081824100412   119.48907027     0.06024713
 H      4   3   2     1.079037221540   121.21561149   179.98001926
 H      5   4   3     1.082387262374   121.51091870   179.94326208
 H      8   7   6     1.088844033073   110.81543155   240.17563708
 H      8   7   6     1.086076764950   108.64680001   359.89234006
 H      8   7   6     1.088934679604   110.80451019   119.58426333

---------------------------
INTERNAL COORDINATES (A.U.)
---------------------------
 C      0   0   0     0.000000000000     0.00000000     0.00000000
 C      1   0   0     2.833469617175     0.00000000     0.00000000
 C      2   1   0     2.627173581017   119.31958691     0.00000000
 C      3   2   1     2.615325929233   120.11428208   180.06214825
 C      4   3   2     2.616938861940   117.68205947     0.00000000
 N      5   4   3     2.493900854321   122.96828192     0.00000000
 C      6   5   4     2.506850443860   119.64614320     0.00000000
 C      7   6   5     2.833353853539   115.18631997   180.03272580
 H      1   2   3     2.059461666421   109.92348653    60.17530537
 H      1   2   3     2.049691661011   112.04661479   180.97096280
 H      1   2   3     2.059162503415   109.94859336   301.81662472
 H      3   2   1     2.044351274855   119.48907027     0.06024713
 H      4   3   2     2.039084837018   121.21561149   179.98001926
 H      5   4   3     2.045415496731   121.51091870   179.94326208
 H      8   7   6     2.057617025063   110.81543155   240.17563708
 H      8   7   6     2.052387646170   108.64680001   359.89234006
 H      8   7   6     2.057788322181   110.80451019   119.58426333

---------------------
BASIS SET INFORMATION
---------------------
There are 3 groups of distinct atoms

 Group   1 Type C   : 11s6p1d contracted to 5s3p1d pattern {62111/411/1}
 Group   2 Type N   : 11s6p2d contracted to 5s3p2d pattern {62111/411/11}
 Group   3 Type H   : 4s1p contracted to 2s1p pattern {31/1}

Atom   0C    basis set group =>   1
Atom   1C    basis set group =>   1
Atom   2C    basis set group =>   1
Atom   3C    basis set group =>   1
Atom   4C    basis set group =>   1
Atom   5N    basis set group =>   2
Atom   6C    basis set group =>   1
Atom   7C    basis set group =>   1
Atom   8H    basis set group =>   3
Atom   9H    basis set group =>   3
Atom  10H    basis set group =>   3
Atom  11H    basis set group =>   3
Atom  12H    basis set group =>   3
Atom  13H    basis set group =>   3
Atom  14H    basis set group =>   3
Atom  15H    basis set group =>   3
Atom  16H    basis set group =>   3
---------------------------------
AUXILIARY/J BASIS SET INFORMATION
---------------------------------
There are 3 groups of distinct atoms

 Group   1 Type C   : 12s5p4d2f1g contracted to 6s4p3d1f1g pattern {711111/2111/211/2/1}
 Group   2 Type N   : 12s5p4d2f1g contracted to 6s4p3d1f1g pattern {711111/2111/211/2/1}
 Group   3 Type H   : 5s2p1d contracted to 3s1p1d pattern {311/2/1}

Atom   0C    basis set group =>   1
Atom   1C    basis set group =>   1
Atom   2C    basis set group =>   1
Atom   3C    basis set group =>   1
Atom   4C    basis set group =>   1
Atom   5N    basis set group =>   2
Atom   6C    basis set group =>   1
Atom   7C    basis set group =>   1
Atom   8H    basis set group =>   3
Atom   9H    basis set group =>   3
Atom  10H    basis set group =>   3
Atom  11H    basis set group =>   3
Atom  12H    basis set group =>   3
Atom  13H    basis set group =>   3
Atom  14H    basis set group =>   3
Atom  15H    basis set group =>   3
Atom  16H    basis set group =>   3

Checking for AutoStart:
The File: sp.gbw exists
Trying to determine its content:
     ... Fine, the file contains calculation information
     ... Fine, the calculation information was read
     ... Fine, the file contains a basis set
     ... Fine, the basis set was read
     ... Fine, the file contains a geometry
     ... Fine, the geometry was read
     ... Fine, the file contains a set of orbitals
     ... Fine, the orbitals can be read
     => possible old guess file was deleted
     => GBW file was renamed to GES file
     => GES file is set as startup file
     => Guess is set to MORead
     ... now leaving AutoStart

------------------------------------------------------------------------------
                             ORCA STARTUP CALCULATIONS
                           -- RI-GTO INTEGRALS CHOSEN --
------------------------------------------------------------------------------
------------------------------------------------------------------------------
                   ___                                                        
                  /   \      - P O W E R E D   B Y -                         
                 /     \                                                     
                 |  |  |   _    _      __       _____    __    __             
                 |  |  |  | |  | |    /  \     |  _  \  |  |  /  |          
                  \  \/   | |  | |   /    \    | | | |  |  | /  /          
                 / \  \   | |__| |  /  /\  \   | |_| |  |  |/  /          
                |  |  |   |  __  | /  /__\  \  |    /   |      \           
                |  |  |   | |  | | |   __   |  |    \   |  |\   \          
                \     /   | |  | | |  |  |  |  | |\  \  |  | \   \       
                 \___/    |_|  |_| |__|  |__|  |_| \__\ |__|  \__/        
                                                                              
                      - O R C A' S   B I G   F R I E N D -                    
                                      &                                       
                       - I N T E G R A L  F E E D E R -                       
                                                                              
 v1 FN, 2020, v2 2021, v3 2022-2024                                           
------------------------------------------------------------------------------


----------------------
SHARK INTEGRAL PACKAGE
----------------------

Number of atoms                             ...     17
Number of basis functions                   ...    202
Number of shells                            ...    100
Maximum angular momentum                    ...      2
Integral batch strategy                     ... SHARK/LIBINT Hybrid
RI-J (if used) integral strategy            ... SPLIT-RIJ (Revised 2003 algorithm where possible)
Printlevel                                  ...      1
Contraction scheme used                     ... SEGMENTED contraction
Prescreening option                         ... SCHWARTZ
   Thresh                                   ... 1.000e-10
   Tcut                                     ... 1.000e-11
   Tpresel                                  ... 1.000e-11 
Coulomb Range Separation                    ... NOT USED
Exchange Range Separation                   ... NOT USED
Multipole approximations                    ... NOT USED
Finite Nucleus Model                        ... NOT USED
CABS basis                                  ... NOT available
Auxiliary Coulomb fitting basis             ... AVAILABLE
   # of basis functions in Aux-J            ...    491
   # of shells in Aux-J                     ...    165
   Maximum angular momentum in Aux-J        ...      4
Auxiliary J/K fitting basis                 ... NOT available
Auxiliary Correlation fitting basis         ... NOT available
Auxiliary 'external' fitting basis          ... NOT available

Checking pre-screening integrals            ... done (  0.0 sec) Dimension = 100
Check shell pair data                       ... done (  0.0 sec)
Shell pair information
Shell pair cut-off parameter TPreSel        ...   1.0e-11
Total number of shell pairs                 ...      5050
Shell pairs after pre-screening             ...      4612
Total number of primitive shell pairs       ...     18348
Primitive shell pairs kept                  ...     12022
          la=0 lb=0:   1521 shell pairs
          la=1 lb=0:   1746 shell pairs
          la=1 lb=1:    525 shell pairs
          la=2 lb=0:    493 shell pairs
          la=2 lb=1:    282 shell pairs
          la=2 lb=2:     45 shell pairs

Calculating one electron integrals          ... done (  0.0 sec)
Calculating RI/J V-Matrix + Cholesky decomp.... done (  0.0 sec)
Calculating Nuclear repulsion               ... done (  0.0 sec) ENN=    351.111082673018 Eh

Diagonalization of the overlap matrix:
Smallest eigenvalue                        ... 6.787e-05
Time for diagonalization                   ...    0.004 sec
Threshold for overlap eigenvalues          ... 1.000e-07
Number of eigenvalues below threshold      ... 0
Time for construction of square roots      ...    0.004 sec
Total time needed                          ...    0.008 sec

-------------------
DFT GRID GENERATION
-------------------

General Integration Accuracy     IntAcc      ... 4.388
Radial Grid Type                 RadialGrid  ... OptM3 with GC (2021)
Angular Grid (max. ang.)         AngularGrid ... 4 (Lebedev-302)
Angular grid pruning method      GridPruning ... 4 (adaptive)
Weight generation scheme         WeightScheme... mBecke (2022)
Basis function cutoff            BFCut       ... 1.0000e-10
Integration weight cutoff        WCut        ... 1.0000e-14
Partially contracted basis set               ... off
Rotationally invariant grid construction     ... off
Angular grids for H and He will be reduced by one unit

Total number of grid points                  ...    76951
Total number of batches                      ...     1209
Average number of points per batch           ...       63
Average number of grid points per atom       ...     4527
Initializing property integral containers    ... done (  0.0 sec)

SHARK setup successfully completed in   0.7 seconds

Maximum memory used throughout the entire STARTUP-calculation: 35.4 MB
-------------------------------------------------------------------------------
                                 ORCA GUESS
                   Start orbitals & Density for SCF / CASSCF
-------------------------------------------------------------------------------

------------
SCF SETTINGS
------------
Hamiltonian:
 Density Functional     Method          .... DFT(GTOs)
  Functional kind                       .... Exchange
  Functional name                       .... Re-regularized SCAN exchange by Furness et al
  Functional family                     .... MGGA
  Functional refs                              
    [ 0] J. W. Furness, A. D. Kaplan, J. Ning, J. P. Perdew, and J. Sun.,  J. Phys. Chem. Lett. 11, 8208-8215 (2020), doi: 10.1021/acs.jpclett.0c02405
    [ 1] J. W. Furness, A. D. Kaplan, J. Ning, J. P. Perdew, and J. Sun.,  J. Phys. Chem. Lett. 11, 9248-9248 (2020), doi: 10.1021/acs.jpclett.0c03077
  Functional external parameters        .... 6
    Parameter  0 _c1        =  6.670000e-01 : c1 parameter        
    Parameter  1 _c2        =  8.000000e-01 : c2 parameter        
    Parameter  2 _d         =  1.240000e+00 : d parameter         
    Parameter  3 _k1        =  6.500000e-02 : k1 parameter        
    Parameter  4 _eta       =  1.000000e-03 : eta parameter       
    Parameter  5 _dp2       =  3.610000e-01 : dp2 parameter       
  Functional kind                       .... Correlation
  Functional name                       .... Re-regularized SCAN correlation by Furness et al
  Functional family                     .... MGGA
  Functional refs                              
    [ 0] J. W. Furness, A. D. Kaplan, J. Ning, J. P. Perdew, and J. Sun.,  J. Phys. Chem. Lett. 11, 8208-8215 (2020), doi: 10.1021/acs.jpclett.0c02405
    [ 1] J. W. Furness, A. D. Kaplan, J. Ning, J. P. Perdew, and J. Sun.,  J. Phys. Chem. Lett. 11, 9248-9248 (2020), doi: 10.1021/acs.jpclett.0c03077
  Functional external parameters        .... 1
    Parameter  0 _eta       =  1.000000e-03 : Regularization parameter
 Gradients option       PostSCFGGA      .... off
 RI-approximation to the Coulomb term is turned on
   Number of AuxJ basis functions       .... 491


General Settings:
 Integral files         IntName         .... sp
 Hartree-Fock type      HFTyp           .... RHF
 Total Charge           Charge          ....    0
 Multiplicity           Mult            ....    1
 Number of Electrons    NEL             ....   58
 Basis Dimension        Dim             ....  202
 Nuclear Repulsion      ENuc            ....    351.1110826730 Eh

Convergence Acceleration:
 AO-DIIS                CNVDIIS         .... on
   Start iteration      DIISMaxIt       ....    12
   Startup error        DIISStart       ....  0.200000
   # of expansion vecs  DIISMaxEq       ....     5
   Bias factor          DIISBfac        ....   1.050
   Max. coefficient     DIISMaxC        ....  10.000
 MO-DIIS                CNVKDIIS        .... off
 Trust-Rad. Augm. Hess. CNVTRAH         .... auto
   Auto Start mean grad. ratio tolernc. ....  1.125000
   Auto Start start iteration           ....     1
   Auto Start num. interpolation iter.  ....    10
   Max. Number of Micro iterations      ....    24
   Max. Number of Macro iterations      .... Maxiter - #DIIS iter
   Number of Davidson start vectors     ....     2
   Converg. threshold    (grad. norm)   ....   3.330e-04
   Grad. Scal. Fac. for Micro threshold ....   0.100
   Minimum threshold for Micro iter.    ....   1.000e-02
   NR start threshold (gradient norm)   ....   1.000e-04
   Initial trust radius                 ....   0.400
   Minimum AH scaling param. (alpha)    ....   1.000
   Maximum AH scaling param. (alpha)    .... 1000.000
   Quad. conv. algorithm                .... NR
   White noise on init. David. guess    .... on
   Maximum white noise                  ....   0.010
   Pseudo random numbers                .... off
   Inactive MOs                         .... canonical
   Orbital update algorithm             .... Taylor
   Preconditioner                       .... Diag
   Full preconditioner red. dimension   ....   250
   COSX micro iterations for RIJONX calc.... off
 SOSCF                  CNVSOSCF        .... on
   Start iteration      SOSCFMaxIt      ....   150
   Startup grad/error   SOSCFStart      ....  0.003300
   Hessian update       SOSCFHessUp     .... L-BFGS
 Level Shifting         CNVShift        .... on
   Level shift para.    LevelShift      ....    0.2500
   Turn off err/grad.   ShiftErr        ....    0.0010
 Zerner damping         CNVZerner       .... off
 Static damping         CNVDamp         .... on
   Fraction old density DampFac         ....    0.7000
   Max. Damping (<1)    DampMax         ....    0.9800
   Min. Damping (>=0)   DampMin         ....    0.0000
   Turn off err/grad.   DampErr         ....    0.1000

SCF Procedure:
 Maximum # iterations   MaxIter         ....   125
 SCF integral mode      SCFMode         .... Direct
   Integral package                     .... SHARK and LIBINT hybrid scheme
 Reset frequency        DirectResetFreq ....    20
 Integral Threshold     Thresh          ....  1.000e-10 Eh
 Primitive CutOff       TCut            ....  1.000e-11 Eh

Convergence Tolerance:
 Convergence Check Mode ConvCheckMode   .... Total+1el-Energy
 Convergence forced     ConvForced      .... 0
 Energy Change          TolE            ....  1.000e-06 Eh
 1-El. energy change                    ....  1.000e-03 Eh
 Orbital Gradient       TolG            ....  3.330e-04
 Orbital Rotation angle TolX            ....  3.330e-04
 DIIS Error             TolErr          ....  1.000e-06

---------------------
INITIAL GUESS: MOREAD
---------------------
Guess MOs are being read from file: sp.ges
Input Geometry matches current geometry (good)
Atom 0: N(Shells)= 9 and 6 - projection required
Input basis set needs projection
NBasis(read)= 130
NBasis(calc)= 202
Basis set overlap was calculated
Using GuessMode=FMatrix for the initial guess
C*T matrix was formed
Effective Fockian was calculated
Effective Fockian was diagonalized
Initial density was built
                      ------------------
                      INITIAL GUESS DONE (   0.0 sec)
                      ------------------
             **** ENERGY FILE WAS UPDATED (sp.en.tmp) ****
Finished Guess after   0.1 sec
Maximum memory used throughout the entire GUESS-calculation: 14.7 MB

-------------------------------------------------------------------------------------------
                                      ORCA LEAN-SCF
                              memory conserving SCF solver
-------------------------------------------------------------------------------------------

----------------------------------------D-I-I-S--------------------------------------------
Iteration    Energy (Eh)           Delta-E    RMSDP     MaxDP     DIISErr   Damp  Time(sec)
-------------------------------------------------------------------------------------------
               ***  Starting incremental Fock matrix formation  ***
    1    -326.6690771848852819     0.00e+00  6.14e-03  2.94e-01  4.38e-01  0.700   1.6
    2    -326.7151729938003655    -4.61e-02  4.80e-03  2.02e-01  3.07e-01  0.700   1.4
    3    -326.7477419802313534    -3.26e-02  3.50e-03  1.39e-01  2.15e-01  0.700   1.4
                               ***Turning on AO-DIIS***
    4    -326.7705998505995240    -2.29e-02  2.53e-03  9.67e-02  1.51e-01  0.700   1.4
    5    -326.7866283793936191    -1.60e-02  1.80e-03  6.72e-02  1.05e-01  0.700   1.4
    6    -326.7978648368274435    -1.12e-02  1.27e-03  4.68e-02  7.38e-02  0.700   1.4
    7    -326.8057389600969600    -7.87e-03  2.99e-03  1.09e-01  5.17e-02  0.000   1.6
                              *** Initializing SOSCF ***
---------------------------------------S-O-S-C-F--------------------------------------
Iteration    Energy (Eh)           Delta-E    RMSDP     MaxDP     MaxGrad    Time(sec)
--------------------------------------------------------------------------------------
    8    -326.8241399045786011    -1.84e-02  2.75e-05  1.29e-03  1.51e-04     1.4
               *** Restarting incremental Fock matrix formation ***
    9    -326.8241400123945368    -1.08e-07  1.48e-05  2.90e-04  4.42e-05     1.6
                  *** Gradient check signals convergence ***

               *****************************************************
               *                     SUCCESS                       *
               *           SCF CONVERGED AFTER   9 CYCLES          *
               *****************************************************

             **** ENERGY FILE WAS UPDATED (sp.en.tmp) ****

----------------
TOTAL SCF ENERGY
----------------

Total Energy       :       -326.82414001239454 Eh           -8893.33698 eV

Components:
Nuclear Repulsion  :        351.11108267301836 Eh            9554.21829 eV
Electronic Energy  :       -677.93522268541290 Eh          -18447.55526 eV
One Electron Energy:      -1135.64116324444649 Eh          -30902.36710 eV
Two Electron Energy:        457.70594055903359 Eh           12454.81183 eV

Virial components:
Potential Energy   :       -652.34533191059620 Eh          -17751.21894 eV
Kinetic Energy     :        325.52119189820166 Eh            8857.88196 eV
Virial Ratio       :          2.00400265219783

DFT components:
N(Alpha)           :       29.000030822178 electrons
N(Beta)            :       29.000030822178 electrons
N(Total)           :       58.000061644356 electrons
E(X)               :      -46.319371877850 Eh       
E(C)               :       -1.853172407144 Eh       
E(XC)              :      -48.172544284994 Eh       

---------------
SCF CONVERGENCE
---------------

  Last Energy change         ...    1.0782e-07  Tolerance :   1.0000e-06
  Last MAX-Density change    ...    2.8985e-04  Tolerance :   1.0000e-05
  Last RMS-Density change    ...    1.4841e-05  Tolerance :   1.0000e-06
  Last DIIS Error            ...    1.5082e-04  Tolerance :   1.0000e-06
  Last Orbital Gradient      ...    4.4174e-05  Tolerance :   3.3300e-04
  Last Orbital Rotation      ...    2.2161e-04  Tolerance :   3.3300e-04


----------------
ORBITAL ENERGIES
----------------

  NO   OCC          E(Eh)            E(eV) 
   0   2.0000     -14.144072      -384.8798 
   1   2.0000     -10.068509      -273.9781 
   2   2.0000     -10.057507      -273.6787 
   3   2.0000     -10.047657      -273.4106 
   4   2.0000     -10.045009      -273.3386 
   5   2.0000     -10.036793      -273.1150 
   6   2.0000     -10.034511      -273.0529 
   7   2.0000     -10.022218      -272.7184 
   8   2.0000      -0.910456       -24.7748 
   9   2.0000      -0.782231       -21.2856 
  10   2.0000      -0.755880       -20.5685 
  11   2.0000      -0.688176       -18.7262 
  12   2.0000      -0.653189       -17.7742 
  13   2.0000      -0.580780       -15.8038 
  14   2.0000      -0.566754       -15.4222 
  15   2.0000      -0.474655       -12.9160 
  16   2.0000      -0.464202       -12.6316 
  17   2.0000      -0.414154       -11.2697 
  18   2.0000      -0.413922       -11.2634 
  19   2.0000      -0.383420       -10.4334 
  20   2.0000      -0.378867       -10.3095 
  21   2.0000      -0.374503       -10.1908 
  22   2.0000      -0.367087        -9.9890 
  23   2.0000      -0.347834        -9.4651 
  24   2.0000      -0.342735        -9.3263 
  25   2.0000      -0.318012        -8.6536 
  26   2.0000      -0.260212        -7.0807 
  27   2.0000      -0.227720        -6.1966 
  28   2.0000      -0.215579        -5.8662 
  29   0.0000      -0.047308        -1.2873 
  30   0.0000      -0.030765        -0.8371 
  31   0.0000       0.079899         2.1742 
  32   0.0000       0.097147         2.6435 
  33   0.0000       0.102507         2.7894 
  34   0.0000       0.113725         3.0946 
  35   0.0000       0.131531         3.5791 
  36   0.0000       0.136075         3.7028 
  37   0.0000       0.147639         4.0175 
  38   0.0000       0.155610         4.2344 
  39   0.0000       0.163176         4.4402 
*Only the first 10 virtual orbitals were printed.

                    ********************************
                    * MULLIKEN POPULATION ANALYSIS *
                    ********************************

-----------------------
MULLIKEN ATOMIC CHARGES
-----------------------
   0 C :   -0.550598
   1 C :    0.159404
   2 C :   -0.201346
   3 C :   -0.113094
   4 C :   -0.103145
   5 N :   -0.174446
   6 C :    0.243515
   7 C :   -0.684014
   8 H :    0.166239
   9 H :    0.161164
  10 H :    0.164927
  11 H :    0.146901
  12 H :    0.146818
  13 H :    0.132926
  14 H :    0.160817
  15 H :    0.183094
  16 H :    0.160838
Sum of atomic charges:    0.0000000

--------------------------------
MULLIKEN REDUCED ORBITAL CHARGES
--------------------------------
  0 C s       :     3.383866  s :     3.383866
      pz      :     1.096217  p :     3.139557
      px      :     0.985529
      py      :     1.057812
      dz2     :     0.004856  d :     0.027174
      dxz     :     0.002563
      dyz     :     0.007330
      dx2y2   :     0.004460
      dxy     :     0.007965

  1 C s       :     3.068428  s :     3.068428
      pz      :     0.988518  p :     2.725700
      px      :     0.830716
      py      :     0.906466
      dz2     :     0.003583  d :     0.046467
      dxz     :     0.006251
      dyz     :     0.005929
      dx2y2   :     0.015570
      dxy     :     0.015134

  2 C s       :     3.234972  s :     3.234972
      pz      :     0.961776  p :     2.928539
      px      :     0.918421
      py      :     1.048342
      dz2     :     0.003255  d :     0.037835
      dxz     :     0.007017
      dyz     :     0.002319
      dx2y2   :     0.013767
      dxy     :     0.011477

  3 C s       :     3.135312  s :     3.135312
      pz      :     1.008053  p :     2.941077
      px      :     0.984037
      py      :     0.948987
      dz2     :     0.003342  d :     0.036704
      dxz     :     0.003511
      dyz     :     0.005081
      dx2y2   :     0.012380
      dxy     :     0.012391

  4 C s       :     3.227845  s :     3.227845
      pz      :     0.927348  p :     2.819734
      px      :     0.967777
      py      :     0.924610
      dz2     :     0.003870  d :     0.055566
      dxz     :     0.005637
      dyz     :     0.006666
      dx2y2   :     0.019329
      dxy     :     0.020065

  5 N s       :     3.422256  s :     3.422256
      pz      :     1.167981  p :     3.690478
      px      :     0.917783
      py      :     1.604714
      dz2     :     0.003915  d :     0.061712
      dxz     :     0.000902
      dyz     :     0.018525
      dx2y2   :     0.007777
      dxy     :     0.030592

  6 C s       :     3.164677  s :     3.164677
      pz      :     0.905629  p :     2.527267
      px      :     0.881999
      py      :     0.739639
      dz2     :     0.004112  d :     0.064540
      dxz     :     0.008623
      dyz     :     0.007096
      dx2y2   :     0.022180
      dxy     :     0.022529

  7 C s       :     3.479648  s :     3.479648
      pz      :     1.061308  p :     3.178052
      px      :     1.028957
      py      :     1.087788
      dz2     :     0.004869  d :     0.026314
      dxz     :     0.007777
      dyz     :     0.001580
      dx2y2   :     0.005517
      dxy     :     0.006571

  8 H s       :     0.815447  s :     0.815447
      pz      :     0.008522  p :     0.018315
      px      :     0.003616
      py      :     0.006177

  9 H s       :     0.820220  s :     0.820220
      pz      :     0.003778  p :     0.018615
      px      :     0.008397
      py      :     0.006439

 10 H s       :     0.816757  s :     0.816757
      pz      :     0.008328  p :     0.018316
      px      :     0.003595
      py      :     0.006393

 11 H s       :     0.833733  s :     0.833733
      pz      :     0.003914  p :     0.019366
      px      :     0.003183
      py      :     0.012269

 12 H s       :     0.833510  s :     0.833510
      pz      :     0.004227  p :     0.019672
      px      :     0.010163
      py      :     0.005282

 13 H s       :     0.848017  s :     0.848017
      pz      :     0.003770  p :     0.019057
      px      :     0.009476
      py      :     0.005812

 14 H s       :     0.820797  s :     0.820797
      pz      :     0.008465  p :     0.018386
      px      :     0.006095
      py      :     0.003825

 15 H s       :     0.798772  s :     0.798772
      pz      :     0.003520  p :     0.018134
      px      :     0.004039
      py      :     0.010575

 16 H s       :     0.820776  s :     0.820776
      pz      :     0.008494  p :     0.018387
      px      :     0.006072
      py      :     0.003821


------------------------
MULLIKEN OVERLAP CHARGES
------------------------
B(  0-C ,  1-C ) :   0.2182 B(  0-C ,  2-C ) :  -0.1888 B(  0-C ,  8-H ) :   0.8646 
B(  0-C ,  9-H ) :   0.8202 B(  0-C , 10-H ) :   0.8646 B(  1-C ,  2-C ) :   0.7995 
B(  1-C ,  3-C ) :  -0.1321 B(  1-C ,  4-C ) :  -0.1197 B(  1-C ,  5-N ) :  -0.0569 
B(  1-C ,  6-C ) :   0.6966 B(  1-C ,  7-C ) :  -0.1666 B(  1-C ,  8-H ) :  -0.0999 
B(  1-C ,  9-H ) :  -0.1104 B(  1-C , 10-H ) :  -0.1018 B(  1-C , 11-H ) :  -0.0918 
B(  2-C ,  3-C ) :   0.9780 B(  2-C ,  4-C ) :  -0.1341 B(  2-C ,  5-N ) :  -0.0866 
B(  2-C , 11-H ) :   0.8109 B(  2-C , 12-H ) :  -0.0629 B(  3-C ,  4-C ) :   0.6978 
B(  3-C ,  5-N ) :  -0.1918 B(  3-C ,  6-C ) :  -0.0531 B(  3-C , 11-H ) :  -0.0518 
B(  3-C , 12-H ) :   0.7684 B(  3-C , 13-H ) :  -0.1720 B(  4-C ,  5-N ) :   1.0078 
B(  4-C ,  6-C ) :  -0.3771 B(  4-C , 13-H ) :   0.9092 B(  5-N ,  6-C ) :   0.6893 
B(  5-N ,  7-C ) :   0.0728 B(  5-N , 13-H ) :  -0.1040 B(  6-C , 14-H ) :  -0.1033 
B(  6-C , 15-H ) :  -0.0823 B(  6-C , 16-H ) :  -0.1044 B(  7-C , 14-H ) :   0.8321 
B(  7-C , 15-H ) :   0.8441 B(  7-C , 16-H ) :   0.8332 B( 14-H , 16-H ) :  -0.0599 



                     *******************************
                     * LOEWDIN POPULATION ANALYSIS *
                     *******************************

----------------------
LOEWDIN ATOMIC CHARGES
----------------------
   0 C :   -0.388592
   1 C :   -0.076253
   2 C :   -0.122078
   3 C :   -0.152867
   4 C :    0.076302
   5 N :   -0.627325
   6 C :    0.129616
   7 C :   -0.365406
   8 H :    0.167221
   9 H :    0.163697
  10 H :    0.166951
  11 H :    0.170179
  12 H :    0.168803
  13 H :    0.183227
  14 H :    0.163894
  15 H :    0.178719
  16 H :    0.163913

-------------------------------
LOEWDIN REDUCED ORBITAL CHARGES
-------------------------------
  0 C s       :     2.952322  s :     2.952322
      pz      :     1.156588  p :     3.372937
      px      :     1.088451
      py      :     1.127898
      dz2     :     0.011870  d :     0.063334
      dxz     :     0.004425
      dyz     :     0.018444
      dx2y2   :     0.009624
      dxy     :     0.018970

  1 C s       :     2.863382  s :     2.863382
      pz      :     0.970663  p :     3.116808
      px      :     1.072218
      py      :     1.073927
      dz2     :     0.006643  d :     0.096063
      dxz     :     0.010272
      dyz     :     0.010249
      dx2y2   :     0.033973
      dxy     :     0.034926

  2 C s       :     2.900455  s :     2.900455
      pz      :     0.951861  p :     3.139690
      px      :     1.091820
      py      :     1.096010
      dz2     :     0.005542  d :     0.081933
      dxz     :     0.013006
      dyz     :     0.003374
      dx2y2   :     0.032881
      dxy     :     0.027130

  3 C s       :     2.903933  s :     2.903933
      pz      :     0.987812  p :     3.168849
      px      :     1.094844
      py      :     1.086192
      dz2     :     0.005785  d :     0.080086
      dxz     :     0.005638
      dyz     :     0.009181
      dx2y2   :     0.029105
      dxy     :     0.030377

  4 C s       :     2.828128  s :     2.828128
      pz      :     0.879462  p :     2.970010
      px      :     1.039942
      py      :     1.050605
      dz2     :     0.008086  d :     0.125560
      dxz     :     0.009440
      dyz     :     0.012994
      dx2y2   :     0.046285
      dxy     :     0.048755

  5 N s       :     3.222082  s :     3.222082
      pz      :     1.141835  p :     3.911775
      px      :     1.200871
      py      :     1.569070
      dz2     :     0.055986  d :     0.493467
      dxz     :     0.099856
      dyz     :     0.030893
      dx2y2   :     0.160621
      dxy     :     0.146111

  6 C s       :     2.792417  s :     2.792417
      pz      :     0.870165  p :     2.938425
      px      :     1.026426
      py      :     1.041834
      dz2     :     0.008939  d :     0.139542
      dxz     :     0.014357
      dyz     :     0.013740
      dx2y2   :     0.049944
      dxy     :     0.052562

  7 C s       :     2.955468  s :     2.955468
      pz      :     1.141169  p :     3.349607
      px      :     1.077617
      py      :     1.130821
      dz2     :     0.011498  d :     0.060332
      dxz     :     0.019043
      dyz     :     0.002953
      dx2y2   :     0.012564
      dxy     :     0.014273

  8 H s       :     0.789135  s :     0.789135
      pz      :     0.021205  p :     0.043644
      px      :     0.007916
      py      :     0.014524

  9 H s       :     0.791889  s :     0.791889
      pz      :     0.008340  p :     0.044414
      px      :     0.020556
      py      :     0.015518

 10 H s       :     0.789411  s :     0.789411
      pz      :     0.020666  p :     0.043638
      px      :     0.007872
      py      :     0.015100

 11 H s       :     0.785617  s :     0.785617
      pz      :     0.008372  p :     0.044204
      px      :     0.007062
      py      :     0.028770

 12 H s       :     0.785680  s :     0.785680
      pz      :     0.009267  p :     0.045517
      px      :     0.023768
      py      :     0.012483

 13 H s       :     0.776072  s :     0.776072
      pz      :     0.007925  p :     0.040701
      px      :     0.018830
      py      :     0.013947

 14 H s       :     0.792065  s :     0.792065
      pz      :     0.021043  p :     0.044041
      px      :     0.014275
      py      :     0.008722

 15 H s       :     0.777884  s :     0.777884
      pz      :     0.007559  p :     0.043397
      px      :     0.008996
      py      :     0.026842

 16 H s       :     0.792055  s :     0.792055
      pz      :     0.021111  p :     0.044032
      px      :     0.014215
      py      :     0.008706


---------------------------------
LOEWDIN BOND ORDERS (THRESH 0.050000)
---------------------------------
B(  0-C ,  1-C ) :   1.1028 B(  0-C ,  2-C ) :   0.0891 B(  0-C ,  6-C ) :   0.0796 
B(  0-C ,  8-H ) :   0.9105 B(  0-C ,  9-H ) :   0.9123 B(  0-C , 10-H ) :   0.9108 
B(  1-C ,  2-C ) :   1.4472 B(  1-C ,  3-C ) :   0.0907 B(  1-C ,  4-C ) :   0.1258 
B(  1-C ,  5-N ) :   0.2030 B(  1-C ,  6-C ) :   1.2798 B(  1-C ,  7-C ) :   0.0791 
B(  1-C , 11-H ) :   0.0528 B(  2-C ,  3-C ) :   1.5016 B(  2-C ,  4-C ) :   0.0901 
B(  2-C ,  5-N ) :   0.1375 B(  2-C ,  6-C ) :   0.0905 B(  2-C , 11-H ) :   0.8666 
B(  2-C , 12-H ) :   0.0549 B(  3-C ,  4-C ) :   1.3927 B(  3-C ,  5-N ) :   0.2176 
B(  3-C ,  6-C ) :   0.1211 B(  3-C , 11-H ) :   0.0533 B(  3-C , 12-H ) :   0.8707 
B(  3-C , 13-H ) :   0.0526 B(  4-C ,  5-N ) :   1.8149 B(  4-C ,  6-C ) :   0.1071 
B(  4-C , 12-H ) :   0.0577 B(  4-C , 13-H ) :   0.8060 B(  5-N ,  6-C ) :   1.7453 
B(  5-N ,  7-C ) :   0.1986 B(  5-N , 13-H ) :   0.1175 B(  6-C ,  7-C ) :   1.0332 
B(  7-C , 14-H ) :   0.9096 B(  7-C , 15-H ) :   0.9026 B(  7-C , 16-H ) :   0.9096 


------------------------------------------
LOEWDIN REDUCED ORBITAL POPULATIONS PER MO
-------------------------------------------
THRESHOLD FOR PRINTING IS 0.1%%
                      0         1         2         3         4         5   
                 -14.14407 -10.06851 -10.05751 -10.04766 -10.04501 -10.03679
                   2.00000   2.00000   2.00000   2.00000   2.00000   2.00000
                  --------  --------  --------  --------  --------  --------
 1 C  s               0.0       0.0       0.0      98.8       0.7       0.0
 1 C  px              0.0       0.0       0.0       0.0       0.1       0.0
 1 C  py              0.0       0.1       0.0       0.0       0.0       0.0
 2 C  s               0.0       0.0       0.0       0.7      98.8       0.1
 2 C  px              0.0       0.0       0.0       0.1       0.0       0.1
 3 C  s               0.0       0.0       0.0       0.0       0.1      99.5
 3 C  px              0.0       0.0       0.0       0.0       0.1       0.0
 3 C  py              0.0       0.0       0.1       0.0       0.0       0.0
 4 C  s               0.0       0.0      99.2       0.0       0.0       0.0
 4 C  py              0.0       0.0       0.0       0.0       0.0       0.1
 5 N  s              99.8       0.0       0.0       0.0       0.0       0.0
 5 N  px              0.0       0.1       0.1       0.0       0.0       0.0
 5 N  dxy             0.0       0.2       0.2       0.0       0.0       0.0
 6 C  s               0.0      99.2       0.0       0.0       0.0       0.0
 6 C  py              0.0       0.0       0.0       0.1       0.0       0.0

                      6         7         8         9        10        11   
                 -10.03451 -10.02222  -0.91046  -0.78223  -0.75588  -0.68818
                   2.00000   2.00000   2.00000   2.00000   2.00000   2.00000
                  --------  --------  --------  --------  --------  --------
 0 C  s              99.7       0.0       0.4      10.7       2.3      17.7
 0 C  px              0.0       0.0       0.3       2.1       0.1       0.1
 0 C  py              0.0       0.0       0.2       0.4       0.4       0.2
 1 C  s               0.0       0.0       4.3      21.5       1.9       1.3
 1 C  px              0.1       0.0       0.7       0.1       4.0       4.6
 1 C  py              0.0       0.0       1.6       1.7       2.3       3.0
 1 C  dz2             0.0       0.0       0.1       0.2       0.0       0.0
 1 C  dxy             0.0       0.0       0.0       0.0       0.0       0.2
 2 C  s               0.0       0.0       2.6      17.7       5.4       2.2
 2 C  px              0.0       0.0       0.0       1.3       4.8       3.8
 2 C  py              0.0       0.0       1.5       0.8       0.3       0.2
 2 C  dz2             0.0       0.0       0.0       0.2       0.0       0.0
 2 C  dxy             0.0       0.0       0.0       0.0       0.1       0.0
 3 C  s               0.0       0.0       3.6       4.1      17.0       5.4
 3 C  px              0.0       0.0       0.9       2.1       0.4       0.2
 3 C  py              0.0       0.0       1.5       1.8       0.3       0.8
 3 C  dz2             0.0       0.0       0.0       0.0       0.1       0.0
 4 C  s               0.0       0.0      12.4       1.1       8.9       0.5
 4 C  px              0.0       0.0       6.1       1.1       0.4       0.8
 4 C  py              0.0       0.0       0.2       3.6       2.7       3.9
 4 C  dz2             0.0       0.0       0.2       0.0       0.1       0.0
 4 C  dx2y2           0.0       0.0       0.1       0.1       0.1       0.1
 4 C  dxy             0.0       0.0       0.2       0.1       0.0       0.1
 5 N  s               0.0       0.0      33.1       7.9       0.3       2.2
 5 N  px              0.0       0.0       0.0       0.6       9.0       3.1
 5 N  py              0.0       0.0       4.1       0.4       0.1       0.1
 5 N  dz2             0.0       0.0       0.8       0.1       0.0       0.2
 5 N  dx2y2           0.0       0.0       0.2       0.2       0.3       0.1
 5 N  dxy             0.0       0.0       0.0       0.2       1.8       0.0
 6 C  s               0.0       0.0      14.0       0.7      10.7       2.4
 6 C  px              0.0       0.1       5.3       2.4       2.6       3.7
 6 C  py              0.0       0.0       0.3       7.4       0.5       1.9
 6 C  dz2             0.0       0.0       0.3       0.0       0.1       0.0
 6 C  dx2y2           0.0       0.0       0.1       0.3       0.0       0.0
 6 C  dxy             0.0       0.0       0.2       0.1       0.0       0.2
 7 C  s               0.0      99.7       1.5       0.3      10.2      16.5
 7 C  px              0.0       0.0       1.2       0.0       0.9       0.1
 7 C  py              0.0       0.0       0.3       0.3       0.5       0.1
 8 H  s               0.0       0.0       0.0       1.4       0.3       3.9
 8 H  pz              0.0       0.0       0.0       0.1       0.0       0.2
 8 H  py              0.0       0.0       0.0       0.0       0.0       0.1
 9 H  s               0.0       0.0       0.0       1.4       0.5       3.2
 9 H  px              0.0       0.0       0.0       0.1       0.0       0.2
 9 H  py              0.0       0.0       0.0       0.0       0.0       0.1
10 H  s               0.0       0.0       0.0       1.4       0.3       3.9
10 H  pz              0.0       0.0       0.0       0.1       0.0       0.2
10 H  py              0.0       0.0       0.0       0.0       0.0       0.1
11 H  s               0.0       0.0       0.2       2.3       0.7       0.3
11 H  py              0.0       0.0       0.0       0.2       0.1       0.0
12 H  s               0.0       0.0       0.2       0.5       2.3       1.2
12 H  px              0.0       0.0       0.0       0.0       0.2       0.1
13 H  s               0.0       0.0       0.8       0.2       1.3       0.1
14 H  s               0.0       0.0       0.1       0.1       1.5       3.3
14 H  pz              0.0       0.0       0.0       0.0       0.1       0.2
15 H  s               0.0       0.0       0.1       0.0       1.6       3.3
15 H  py              0.0       0.0       0.0       0.0       0.1       0.3
16 H  s               0.0       0.0       0.1       0.1       1.5       3.3
16 H  pz              0.0       0.0       0.0       0.0       0.1       0.2

                     12        13        14        15        16        17   
                  -0.65319  -0.58078  -0.56675  -0.47465  -0.46420  -0.41415
                   2.00000   2.00000   2.00000   2.00000   2.00000   2.00000
                  --------  --------  --------  --------  --------  --------
 0 C  s              10.1       2.4       2.8       0.4       0.0       0.0
 0 C  pz              0.0       0.0       0.0       0.0       0.0      20.2
 0 C  px              1.1       0.6       2.6       5.2       1.3       0.3
 0 C  py              0.0       2.7       0.2       0.1       5.1       0.0
 0 C  dyz             0.0       0.0       0.0       0.0       0.0       0.1
 1 C  s               1.8       5.3       2.3       0.6       0.1       0.1
 1 C  pz              0.0       0.0       0.0       0.0       0.0      12.5
 1 C  px              7.9       0.4       2.2       1.2       4.9       0.1
 1 C  py              0.4      12.1       2.8       1.9       8.0       0.1
 1 C  dx2y2           0.0       0.2       0.0       0.1       0.1       0.0
 1 C  dxy             0.1       0.0       0.2       0.0       0.0       0.0
 2 C  s               3.6       7.8       2.2       0.4       0.3       0.1
 2 C  pz              0.0       0.0       0.0       0.0       0.0       3.7
 2 C  px              1.9       1.3       8.9       2.4      11.6       0.0
 2 C  py              0.1       6.0       0.5      11.9       3.8       0.0
 2 C  dxy             0.1       0.1       0.2       0.1       0.0       0.0
 3 C  s               3.9       0.0       7.6       0.4       0.1       0.1
 3 C  pz              0.0       0.0       0.0       0.0       0.0       1.7
 3 C  px              2.8       1.7       2.0      13.8       0.0       0.4
 3 C  py              3.3       8.7       0.8       0.2      16.2       0.1
 3 C  dx2y2           0.1       0.1       0.0       0.0       0.1       0.0
 4 C  s               8.5       3.1       2.8       1.4       0.2       0.1
 4 C  pz              0.0       0.0       0.0       0.0       0.0       2.6
 4 C  px              2.0       2.5       0.3      14.9       1.9       0.1
 4 C  py              0.5       1.4       9.6       1.9      10.0       0.0
 4 C  dxy             0.0       0.0       0.0       0.0       0.1       0.0
 5 N  s               0.5       4.4       0.0       0.4       0.5       0.1
 5 N  pz              0.0       0.0       0.0       0.0       0.0       6.2
 5 N  px              4.6       0.7      17.8       2.4       8.9       0.0
 5 N  py              0.2       1.5       0.2       3.4       0.3       0.0
 5 N  dz2             0.1       0.4       0.0       0.0       0.0       0.0
 5 N  dxz             0.0       0.0       0.0       0.0       0.0       0.2
 5 N  dyz             0.0       0.0       0.0       0.0       0.0       0.4
 5 N  dx2y2           0.8       0.0       0.2       2.6       0.1       0.0
 5 N  dxy             1.5       0.1       0.3       0.1       0.9       0.0
 6 C  s               1.0       2.4       3.4       1.4       0.3       0.1
 6 C  pz              0.0       0.0       0.0       0.0       0.0      13.0
 6 C  px              5.8       1.5       2.0       0.6       4.4       0.1
 6 C  py              1.4      14.6       1.2       2.5       4.6       0.0
 6 C  dx2y2           0.0       0.3       0.0       0.0       0.0       0.0
 6 C  dxy             0.1       0.0       0.2       0.1       0.0       0.0
 7 C  s              11.3       1.5       4.4       0.7       0.3       0.0
 7 C  pz              0.0       0.0       0.0       0.0       0.0      16.6
 7 C  px              0.8       0.1       3.0       5.9       0.1       0.1
 7 C  py              0.0       1.9       0.4       0.3       6.0       0.1
 8 H  s               2.5       1.5       1.1       0.2       0.6       4.6
 8 H  pz              0.1       0.1       0.1       0.0       0.0       0.0
 8 H  py              0.1       0.0       0.0       0.0       0.0       0.1
 9 H  s               3.4       0.5       1.6       1.8       1.5       0.1
 9 H  pz              0.0       0.0       0.0       0.0       0.0       0.1
 9 H  px              0.2       0.0       0.1       0.0       0.1       0.0
10 H  s               2.5       1.5       1.0       0.2       0.6       5.6
10 H  pz              0.1       0.1       0.1       0.0       0.0       0.0
10 H  py              0.1       0.0       0.0       0.0       0.0       0.1
11 H  s               0.7       6.1       1.2       4.8       2.0       0.1
11 H  px              0.0       0.0       0.0       0.0       0.1       0.0
11 H  py              0.1       0.4       0.1       0.2       0.1       0.0
12 H  s               1.3       0.0       4.6       3.8       1.6       0.4
12 H  px              0.1       0.0       0.2       0.1       0.1       0.0
13 H  s               2.7       1.5       2.2       7.9       0.0       0.2
13 H  px              0.1       0.0       0.2       0.2       0.0       0.0
13 H  py              0.1       0.1       0.0       0.2       0.1       0.0
14 H  s               3.1       0.4       2.1       1.4       0.0       5.0
14 H  pz              0.2       0.0       0.1       0.1       0.0       0.0
14 H  px              0.1       0.0       0.0       0.0       0.0       0.1
15 H  s               2.3       1.3       1.3       0.1       2.3       0.0
15 H  py              0.2       0.1       0.1       0.0       0.1       0.0
16 H  s               3.1       0.4       2.1       1.4       0.0       3.8
16 H  pz              0.2       0.0       0.1       0.1       0.0       0.0
16 H  px              0.1       0.0       0.0       0.0       0.0       0.1

                     18        19        20        21        22        23   
                  -0.41392  -0.38342  -0.37887  -0.37450  -0.36709  -0.34783
                   2.00000   2.00000   2.00000   2.00000   2.00000   2.00000
                  --------  --------  --------  --------  --------  --------
 0 C  s               0.2       0.0       0.1       0.2       0.1       0.0
 0 C  pz              0.6      29.5       0.0       0.0       0.0       4.3
 0 C  px             11.6       0.0       3.1       9.3       4.3       0.0
 0 C  py              1.4       0.0       6.2       0.0      38.7       0.0
 0 C  dz2             0.0       0.0       0.1       0.0       0.4       0.0
 0 C  dyz             0.0       0.3       0.0       0.0       0.0       0.1
 0 C  dx2y2           0.0       0.0       0.0       0.0       0.2       0.0
 0 C  dxy             0.2       0.0       0.0       0.2       0.1       0.0
 1 C  s               3.1       0.0       0.3       0.2       0.5       0.0
 1 C  pz              0.4       1.9       0.0       0.0       0.0       1.9
 1 C  px              2.7       0.0       8.5       4.9       0.2       0.0
 1 C  py              2.6       0.0       2.2       1.5       1.8       0.0
 1 C  dxz             0.0       0.1       0.0       0.0       0.0       0.1
 1 C  dyz             0.0       0.1       0.0       0.0       0.0       0.0
 1 C  dx2y2           0.0       0.0       0.0       0.1       0.7       0.0
 1 C  dxy             0.2       0.0       0.0       0.0       0.0       0.0
 2 C  s               2.3       0.0       0.1       0.1       0.4       0.0
 2 C  pz              0.1       0.5       0.0       0.0       0.0       7.2
 2 C  px              0.9       0.0       0.1       3.8       0.1       0.0
 2 C  py              0.6       0.0      11.6       5.9       1.6       0.0
 2 C  dx2y2           0.4       0.0       0.2       0.2       0.0       0.0
 2 C  dxy             0.0       0.0       0.2       0.2       0.0       0.0
 3 C  s               1.8       0.0       0.1       0.6       0.0       0.0
 3 C  pz              0.0       0.0       0.0       0.0       0.0      13.2
 3 C  px             12.9       0.0       0.8       7.8       0.5       0.0
 3 C  py              3.2       0.0      11.0       0.4       0.0       0.0
 3 C  dx2y2           0.1       0.0       0.6       0.0       0.0       0.0
 3 C  dxy             0.5       0.0       0.0       0.0       0.1       0.0
 4 C  s               1.7       0.0       0.6       0.0       0.1       0.0
 4 C  pz              0.1       0.7       0.0       0.0       0.0      19.2
 4 C  px              4.9       0.0       4.9       1.8       2.0       0.0
 4 C  py              0.5       0.0      12.9       0.3       0.2       0.0
 4 C  dxz             0.0       0.0       0.0       0.0       0.0       0.1
 4 C  dx2y2           0.0       0.0       0.1       0.1       0.0       0.0
 4 C  dxy             0.6       0.0       0.1       0.0       0.0       0.0
 5 N  s               1.9       0.0       0.1       0.1       0.4       0.0
 5 N  pz              0.2       2.7       0.0       0.0       0.0      20.6
 5 N  px              0.6       0.0       0.1       2.6       1.9       0.0
 5 N  py              0.2       0.0       2.3       3.6       2.4       0.0
 5 N  dz2             0.4       0.0       0.1       0.1       0.0       0.0
 5 N  dxz             0.0       0.1       0.0       0.0       0.0       0.4
 5 N  dyz             0.0       0.0       0.0       0.0       0.0       1.0
 5 N  dx2y2           0.9       0.0       0.2       0.4       0.0       0.0
 5 N  dxy             0.0       0.0       0.9       0.5       0.3       0.0
 6 C  s               2.0       0.0       0.0       0.0       1.2       0.0
 6 C  pz              0.4       4.3       0.0       0.0       0.0       3.2
 6 C  px              1.9       0.0       1.1       9.4       1.6       0.0
 6 C  py              0.5       0.0       1.7       3.0       1.4       0.0
 6 C  dxz             0.0       0.0       0.0       0.0       0.0       0.4
 6 C  dyz             0.0       0.1       0.0       0.0       0.0       0.0
 6 C  dx2y2           0.0       0.0       0.3       0.0       0.1       0.0
 6 C  dxy             0.2       0.0       0.1       0.1       0.1       0.0
 7 C  s               0.2       0.0       0.0       0.2       0.2       0.0
 7 C  pz              0.5      24.3       0.0       0.0       0.0      13.2
 7 C  px              4.7       0.0       0.1      20.7       0.1       0.0
 7 C  py              3.1       0.0       6.6       0.8       4.6       0.0
 7 C  dz2             0.0       0.0       0.0       0.2       0.0       0.0
 7 C  dxz             0.0       0.2       0.0       0.0       0.0       0.3
 7 C  dxy             0.1       0.0       0.0       0.1       0.1       0.0
 8 H  s               1.3       9.9       1.4       0.0       6.1       1.5
 8 H  pz              0.0       0.0       0.1       0.0       0.2       0.0
 8 H  py              0.0       0.2       0.0       0.0       0.0       0.0
 9 H  s               2.2       0.0       0.0       3.6      15.3       0.0
 9 H  pz              0.0       0.2       0.0       0.0       0.0       0.0
 9 H  px              0.0       0.0       0.0       0.0       0.4       0.0
 9 H  py              0.1       0.0       0.1       0.0       0.0       0.0
10 H  s               0.1       9.5       1.6       0.0       6.6       1.5
10 H  pz              0.0       0.0       0.1       0.0       0.3       0.0
10 H  py              0.0       0.2       0.0       0.0       0.0       0.0
11 H  s               2.5       0.0       6.5       4.3       0.6       0.0
11 H  py              0.1       0.0       0.1       0.1       0.0       0.0
12 H  s              13.0       0.0       3.0       1.5       0.3       0.0
12 H  px              0.3       0.0       0.1       0.0       0.0       0.0
13 H  s               5.6       0.0       6.3       0.4       0.9       0.0
13 H  pz              0.0       0.0       0.0       0.0       0.0       0.1
13 H  px              0.1       0.0       0.1       0.0       0.0       0.0
14 H  s               0.2       7.3       0.1       3.7       0.2       5.4
14 H  pz              0.0       0.0       0.0       0.1       0.0       0.0
14 H  px              0.0       0.2       0.0       0.0       0.0       0.1
15 H  s               0.9       0.0       3.1       1.8       2.2       0.0
15 H  pz              0.0       0.2       0.0       0.0       0.0       0.1
16 H  s               1.4       7.1       0.1       3.9       0.2       5.4
16 H  pz              0.0       0.0       0.0       0.1       0.0       0.0
16 H  px              0.0       0.2       0.0       0.0       0.0       0.1

                     24        25        26        27        28        29   
                  -0.34274  -0.31801  -0.26021  -0.22772  -0.21558  -0.04731
                   2.00000   2.00000   2.00000   2.00000   2.00000   0.00000
                  --------  --------  --------  --------  --------  --------
 0 C  s               0.0       0.2       0.0       0.0       0.2       0.0
 0 C  pz              0.0       0.0       1.5       1.8       0.0       0.1
 0 C  px              0.2      11.7       0.0       0.0       0.4       0.0
 0 C  py              0.1       0.0       0.0       0.0       0.7       0.0
 0 C  dxz             0.0       0.0       0.0       0.1       0.0       0.1
 0 C  dyz             0.0       0.0       0.1       0.3       0.0       0.4
 0 C  dxy             0.0       0.2       0.0       0.0       0.0       0.0
 1 C  s               0.0       0.0       0.0       0.0       0.4       0.0
 1 C  pz              0.0       0.0       6.8      25.0       0.0      10.9
 1 C  px              1.4       9.6       0.0       0.0       0.0       0.0
 1 C  py              7.1       0.3       0.0       0.0       4.3       0.0
 1 C  dxz             0.0       0.0       0.3       0.0       0.0       0.5
 1 C  dyz             0.0       0.0       0.1       0.2       0.0       0.6
 1 C  dx2y2           0.3       0.0       0.0       0.0       0.1       0.0
 1 C  dxy             0.1       0.9       0.0       0.0       0.1       0.0
 2 C  s               0.3       0.0       0.0       0.0       0.0       0.0
 2 C  pz              0.0       0.0      35.1       1.0       0.0      32.3
 2 C  px              0.7      12.8       0.0       0.0       0.0       0.0
 2 C  py              9.6       0.0       0.0       0.0       0.3       0.0
 2 C  dxz             0.0       0.0       0.0       0.6       0.0       0.0
 2 C  dyz             0.0       0.0       0.1       0.0       0.0       0.2
 2 C  dx2y2           0.4       0.0       0.0       0.0       0.2       0.0
 2 C  dxy             0.0       0.2       0.0       0.0       0.0       0.0
 3 C  s               0.2       0.1       0.0       0.0       0.6       0.0
 3 C  pz              0.0       0.0      17.0      17.5       0.0       4.0
 3 C  px              0.2       8.1       0.0       0.0       0.1       0.0
 3 C  py              0.6       0.7       0.0       0.0       4.6       0.0
 3 C  dxz             0.0       0.0       0.2       0.0       0.0       0.5
 3 C  dyz             0.0       0.0       0.2       0.2       0.0       0.8
 3 C  dx2y2           0.2       0.0       0.0       0.0       0.0       0.0
 3 C  dxy             0.0       0.6       0.0       0.0       0.1       0.0
 4 C  s               0.3       0.1       0.0       0.0       0.3       0.0
 4 C  pz              0.0       0.0       2.0      19.5       0.0      11.9
 4 C  px              0.6       6.3       0.0       0.0       1.3       0.0
 4 C  py              0.6       0.6       0.0       0.0       3.5       0.0
 4 C  dxz             0.0       0.0       0.2       0.0       0.0       0.7
 4 C  dyz             0.0       0.0       0.5       0.2       0.0       0.4
 4 C  dx2y2           0.0       0.0       0.0       0.0       1.3       0.0
 4 C  dxy             0.0       0.7       0.0       0.0       0.5       0.0
 5 N  s               1.2       0.0       0.0       0.0       8.3       0.0
 5 N  pz              0.0       0.0      27.4       0.0       0.0      23.7
 5 N  px              0.7       6.8       0.0       0.0       0.0       0.0
 5 N  py              3.7       0.1       0.0       0.0      55.8       0.0
 5 N  dz2             0.1       0.0       0.0       0.0       0.2       0.0
 5 N  dxz             0.0       0.0       0.0       4.3       0.0       0.2
 5 N  dyz             0.0       0.0       0.1       0.0       0.0       1.8
 5 N  dx2y2           0.1       0.0       0.0       0.0       1.8       0.0
 5 N  dxy             0.1       0.2       0.0       0.0       0.0       0.0
 6 C  s               0.1       0.0       0.0       0.0       0.5       0.0
 6 C  pz              0.0       0.0       3.8      18.9       0.0       5.6
 6 C  px              0.7       7.2       0.0       0.0       0.8       0.0
 6 C  py              6.5       0.6       0.0       0.0       3.6       0.0
 6 C  dxz             0.0       0.0       0.3       0.0       0.0       0.6
 6 C  dyz             0.0       0.0       0.2       0.3       0.0       0.8
 6 C  dx2y2           0.3       0.0       0.0       0.0       1.1       0.0
 6 C  dxy             0.0       0.8       0.0       0.0       0.5       0.0
 7 C  s               0.0       0.2       0.0       0.0       0.7       0.0
 7 C  pz              0.0       0.0       0.6       1.9       0.0       0.1
 7 C  px              2.6      11.1       0.0       0.0       2.3       0.0
 7 C  py             30.4       0.8       0.0       0.0       0.2       0.0
 7 C  dz2             0.1       0.1       0.0       0.0       0.0       0.0
 7 C  dxz             0.0       0.0       0.1       0.3       0.0       0.1
 7 C  dx2y2           0.4       0.0       0.0       0.0       0.0       0.0
 8 H  s               0.0       0.0       1.0       1.9       0.2       0.9
 8 H  px              0.0       0.1       0.0       0.0       0.0       0.0
 9 H  s               0.0       4.1       0.0       0.0       0.1       0.0
10 H  s               0.0       0.0       0.9       1.8       0.2       0.9
10 H  px              0.0       0.1       0.0       0.0       0.0       0.0
11 H  s               6.2       0.0       0.0       0.0       0.8       0.0
11 H  pz              0.0       0.0       0.3       0.0       0.0       0.9
11 H  px              0.0       0.1       0.0       0.0       0.0       0.0
12 H  s               0.1       4.6       0.0       0.0       0.8       0.0
12 H  pz              0.0       0.0       0.2       0.2       0.0       0.1
13 H  s               0.3       5.9       0.0       0.0       2.4       0.0
13 H  pz              0.0       0.0       0.0       0.2       0.0       0.3
14 H  s               2.0       1.4       0.5       1.7       0.1       0.1
14 H  py              0.2       0.0       0.0       0.0       0.0       0.0
15 H  s              18.2       0.1       0.0       0.0       0.1       0.0
15 H  py              0.2       0.0       0.0       0.0       0.0       0.0
16 H  s               1.9       1.4       0.6       1.7       0.1       0.1
16 H  py              0.2       0.0       0.0       0.0       0.0       0.0

                     30        31        32        33        34        35   
                  -0.03076   0.07990   0.09715   0.10251   0.11373   0.13153
                   0.00000   0.00000   0.00000   0.00000   0.00000   0.00000
                  --------  --------  --------  --------  --------  --------
 0 C  s               0.0      15.8       6.9       0.0      10.2       0.1
 0 C  pz              0.1       0.0       0.0       2.6       0.0       0.0
 0 C  px              0.0       1.8       8.8       0.0       2.1       2.7
 0 C  py              0.0       1.0       2.3       0.0       7.4       2.4
 0 C  dz2             0.0       0.1       0.0       0.0       0.2       0.5
 0 C  dxz             0.3       0.0       0.0       0.1       0.0       0.0
 0 C  dyz             0.3       0.0       0.0       1.4       0.0       0.0
 0 C  dx2y2           0.0       0.1       0.2       0.0       0.0       0.0
 0 C  dxy             0.0       0.3       0.1       0.0       0.1       0.3
 1 C  s               0.0       6.3       1.7       0.0       1.3       3.6
 1 C  pz             16.9       0.0       0.0       8.4       0.0       0.0
 1 C  px              0.0       0.2       0.7       0.0       0.7       0.5
 1 C  py              0.0       0.5       1.6       0.0       1.6       0.2
 1 C  dz2             0.0       0.3       0.3       0.0       0.0       0.8
 1 C  dxz             0.0       0.0       0.0       0.5       0.0       0.0
 1 C  dyz             0.6       0.0       0.0       0.1       0.0       0.0
 1 C  dx2y2           0.0       0.1       0.8       0.0       0.0       0.4
 1 C  dxy             0.0       0.1       0.4       0.0       0.0       0.1
 2 C  s               0.0       9.9       0.9       0.0       1.5       3.9
 2 C  pz              0.9       0.0       0.0       9.9       0.0       0.0
 2 C  px              0.0       0.4       0.8       0.0       1.2       2.3
 2 C  py              0.0       7.7      10.4       0.0      11.0       2.1
 2 C  dz2             0.0       0.0       0.2       0.0       0.3       0.1
 2 C  dxz             1.3       0.0       0.0       0.0       0.0       0.0
 2 C  dyz             0.0       0.0       0.0       0.3       0.0       0.0
 2 C  dx2y2           0.0       0.3       1.5       0.0       0.1       0.0
 2 C  dxy             0.0       0.1       0.0       0.0       0.1       0.7
 3 C  s               0.0       5.3       1.8       0.0       5.8       1.1
 3 C  pz             25.0       0.0       0.0      14.2       0.0       0.0
 3 C  px              0.0       1.0       6.3       0.0       1.3       3.4
 3 C  py              0.0       0.7       2.5       0.0       0.2       2.8
 3 C  dz2             0.0       0.0       0.1       0.0       0.0       0.0
 3 C  dxz             0.0       0.0       0.0       0.2       0.0       0.0
 3 C  dyz             0.3       0.0       0.0       0.2       0.0       0.0
 3 C  dx2y2           0.0       0.1       0.5       0.0       0.0       0.4
 3 C  dxy             0.0       0.6       0.5       0.0       0.0       0.1
 4 C  s               0.0       3.3       1.0       0.0       7.8       3.1
 4 C  pz             15.0       0.0       0.0      15.0       0.0       0.0
 4 C  px              0.0       0.8       1.9       0.0       0.9      14.6
 4 C  py              0.0       0.6       0.6       0.0       1.4       6.4
 4 C  dz2             0.0       0.1       0.1       0.0       0.3       0.6
 4 C  dxz             0.0       0.0       0.0       0.5       0.0       0.0
 4 C  dyz             0.5       0.0       0.0       0.1       0.0       0.0
 4 C  dxy             0.0       0.5       0.4       0.0       0.1       0.2
 5 N  s               0.0       1.8       0.3       0.0       2.4       0.4
 5 N  pz              0.4       0.0       0.0      14.5       0.0       0.0
 5 N  px              0.0       0.0       0.2       0.0       0.1       0.3
 5 N  py              0.0       0.4       0.6       0.0       0.2       0.8
 5 N  dz2             0.0       1.0       1.1       0.0       5.5       0.3
 5 N  dxz             9.3       0.0       0.0       0.0       0.0       0.0
 5 N  dyz             0.0       0.0       0.0       0.8       0.0       0.0
 5 N  dx2y2           0.0       0.6       1.3       0.0       0.7       2.6
[...]
14 H  s               0.9       0.1       7.3       2.0       0.1       0.0
14 H  pz              1.2       0.1      10.8       3.9       0.2       0.0
14 H  px              0.8       0.1       6.8       0.9       0.0       0.0
14 H  py              0.1       0.0       0.7       0.1       0.0       0.0
15 H  s               0.0       0.1       0.0      10.6       0.0       0.2
15 H  pz              0.1       0.0       0.4       0.0       0.0       0.0
15 H  px              0.0       0.0       0.0       2.2       0.0       0.0
15 H  py              0.0       0.3       0.0      23.3       0.0       0.2
16 H  s               0.8       1.4       6.0       1.9       0.1       0.0
16 H  pz              1.1       2.4       8.5       3.7       0.3       0.0
16 H  px              0.8       1.3       5.7       0.9       0.0       0.0
16 H  py              0.1       0.1       0.6       0.1       0.0       0.0

                    192       193       194       195       196       197   
                   4.02000   4.12375  21.59838  21.88728  22.00720  22.04365
                   0.00000   0.00000   0.00000   0.00000   0.00000   0.00000
                  --------  --------  --------  --------  --------  --------
 0 C  s               0.0       0.0       3.7      30.2       1.1      60.3
 0 C  px              0.3       0.0       0.0       0.0       0.0       0.0
 0 C  dxy             0.9       0.0       0.0       0.0       0.0       0.0
 1 C  s               0.2       0.0      38.3      11.3       2.9      17.7
 1 C  px              0.3       0.4       0.0       0.1       0.0       0.1
 1 C  py              0.0       0.4       0.0       0.0       0.0       0.0
 1 C  dx2y2           0.9       0.7       0.0       0.0       0.0       0.0
 1 C  dxy             3.5       0.3       0.0       0.0       0.0       0.0
 2 C  s               0.1       0.0      27.0       3.1       2.4       0.3
 2 C  px              0.0       0.9       0.0       0.0       0.0       0.0
 2 C  py              1.2       0.0       0.0       0.0       0.0       0.0
 2 C  dz2             0.1       0.0       0.0       0.0       0.0       0.0
 2 C  dx2y2           9.2       0.1       0.0       0.0       0.0       0.0
 2 C  dxy             0.0       0.5       0.0       0.0       0.0       0.0
 3 C  s               0.2       0.1      16.4      22.8      19.7       6.3
 3 C  px              1.0       0.5       0.0       0.0       0.0       0.0
 3 C  py              0.5       0.3       0.0       0.0       0.0       0.0
 3 C  dz2             0.1       0.0       0.0       0.0       0.0       0.0
 3 C  dx2y2           3.5       0.1       0.0       0.0       0.0       0.0
 3 C  dxy             7.4       1.2       0.0       0.0       0.0       0.0
 4 C  s               0.4       2.7       4.4       9.1       1.2      12.3
 4 C  px              1.6       4.5       0.0       0.0       0.0       0.0
 4 C  py              0.4       1.4       0.0       0.0       0.0       0.0
 4 C  dz2             0.0       0.5       0.0       0.0       0.0       0.0
 4 C  dx2y2           1.7       1.8       0.0       0.0       0.0       0.0
 4 C  dxy            11.1       5.5       0.0       0.0       0.0       0.0
 5 N  s               4.8       0.1       0.3       0.0       0.0       0.0
 5 N  px              0.3      25.0       0.0       0.0       0.0       0.0
 5 N  py              0.5       0.0       0.0       0.0       0.0       0.0
 5 N  dz2             4.1       0.1       0.0       0.0       0.0       0.0
 5 N  dx2y2          13.9       0.0       0.0       0.0       0.0       0.0
 5 N  dxy             0.4      34.4       0.0       0.0       0.0       0.0
 6 C  s               0.7       2.1       9.5       2.0       9.3       1.4
 6 C  px              1.5       4.7       0.0       0.0       0.0       0.0
 6 C  py              0.1       2.0       0.1       0.0       0.0       0.0
 6 C  dz2             0.6       0.6       0.0       0.0       0.0       0.0
 6 C  dx2y2           0.2       3.8       0.0       0.0       0.0       0.0
 6 C  dxy             6.6       3.2       0.0       0.0       0.0       0.0
 7 C  s               0.0       0.0       0.1      21.0      63.1       1.3
 7 C  py              0.3       0.1       0.0       0.0       0.0       0.0
 7 C  dx2y2           0.1       0.1       0.0       0.0       0.0       0.0
 7 C  dxy             0.9       0.0       0.0       0.0       0.0       0.0
 9 H  s               0.1       0.0       0.0       0.0       0.0       0.0
 9 H  px              0.2       0.0       0.0       0.0       0.0       0.0
11 H  s               2.0       0.0       0.0       0.0       0.0       0.0
11 H  py              3.8       0.0       0.0       0.0       0.0       0.0
12 H  s               2.5       0.1       0.0       0.0       0.0       0.0
12 H  px              3.6       0.2       0.0       0.0       0.0       0.0
12 H  py              1.0       0.0       0.0       0.0       0.0       0.0
13 H  s               2.2       0.3       0.0       0.0       0.0       0.0
13 H  px              2.3       0.1       0.0       0.0       0.0       0.0
13 H  py              1.6       0.2       0.0       0.0       0.0       0.0
15 H  s               0.2       0.1       0.0       0.0       0.0       0.0
15 H  px              0.0       0.2       0.0       0.0       0.0       0.0
15 H  py              0.2       0.0       0.0       0.0       0.0       0.0

                    198       199       200       201   
                  22.09892  22.25647  22.27003  31.94416
                   0.00000   0.00000   0.00000   0.00000
                  --------  --------  --------  --------
 0 C  s               2.9       1.3       0.1       0.0
 1 C  s               0.2       1.7      27.7       0.0
 1 C  py              0.1       0.0       0.0       0.0
 2 C  s              29.3      18.5      18.9       0.0
 3 C  s               2.5      31.7       0.2       0.0
 4 C  s              18.1      39.6      14.4       0.0
 5 N  s               0.2       0.1       0.0      99.8
 5 N  px              0.0       0.1       0.1       0.0
 6 C  s              38.3       0.5      38.1       0.0
 7 C  s               7.8       6.1       0.0       0.0


                      *****************************
                      * MAYER POPULATION ANALYSIS *
                      *****************************

  NA   - Mulliken gross atomic population
  ZA   - Total nuclear charge
  QA   - Mulliken gross atomic charge
  VA   - Mayer's total valence
  BVA  - Mayer's bonded valence
  FA   - Mayer's free valence

  ATOM       NA         ZA         QA         VA         BVA        FA
  0 C      6.5506     6.0000    -0.5506     3.7636     3.7636    -0.0000
  1 C      5.8406     6.0000     0.1594     3.4369     3.4369     0.0000
  2 C      6.2013     6.0000    -0.2013     3.8826     3.8826     0.0000
  3 C      6.1131     6.0000    -0.1131     3.7261     3.7261     0.0000
  4 C      6.1031     6.0000    -0.1031     3.9147     3.9147     0.0000
  5 N      7.1744     7.0000    -0.1744     2.9879     2.9879    -0.0000
  6 C      5.7565     6.0000     0.2435     3.6206     3.6206     0.0000
  7 C      6.6840     6.0000    -0.6840     3.8986     3.8986     0.0000
  8 H      0.8338     1.0000     0.1662     0.9564     0.9564    -0.0000
  9 H      0.8388     1.0000     0.1612     0.9616     0.9616     0.0000
 10 H      0.8351     1.0000     0.1649     0.9569     0.9569    -0.0000
 11 H      0.8531     1.0000     0.1469     0.9690     0.9690    -0.0000
 12 H      0.8532     1.0000     0.1468     0.9695     0.9695     0.0000
 13 H      0.8671     1.0000     0.1329     0.9679     0.9679     0.0000
 14 H      0.8392     1.0000     0.1608     0.9541     0.9541     0.0000
 15 H      0.8169     1.0000     0.1831     0.9575     0.9575    -0.0000
 16 H      0.8392     1.0000     0.1608     0.9541     0.9541     0.0000

  Mayer bond orders larger than 0.100000
B(  0-C ,  1-C ) :   0.7532 B(  0-C ,  8-H ) :   0.9841 B(  0-C ,  9-H ) :   0.9732 
B(  0-C , 10-H ) :   0.9848 B(  1-C ,  2-C ) :   1.3631 B(  1-C ,  6-C ) :   1.4028 
B(  2-C ,  3-C ) :   1.4375 B(  2-C , 11-H ) :   0.9535 B(  3-C ,  4-C ) :   1.3509 
B(  3-C , 12-H ) :   0.9369 B(  4-C ,  5-N ) :   1.4601 B(  4-C , 13-H ) :   0.9811 
B(  5-N ,  6-C ) :   1.3265 B(  5-N ,  7-C ) :   0.1059 B(  6-C ,  7-C ) :   0.8008 
B(  7-C , 14-H ) :   0.9744 B(  7-C , 15-H ) :   0.9920 B(  7-C , 16-H ) :   0.9746 


-------
TIMINGS
-------

Total SCF time: 0 days 0 hours 0 min 14 sec 

Total time                  ....      14.442 sec
Sum of individual times     ....      14.344 sec  ( 99.3%)

SCF preparation             ....       0.316 sec  (  2.2%)
Fock matrix formation       ....      13.026 sec  ( 90.2%)
  Startup                   ....       0.008 sec  (  0.1% of F)
  Split-RI-J                ....       2.611 sec  ( 20.0% of F)
  XC integration            ....      10.309 sec  ( 79.1% of F)
    Basis function eval.    ....       1.777 sec  ( 17.2% of XC)
    Density eval.           ....       3.269 sec  ( 31.7% of XC)
    XC-Functional eval.     ....       1.154 sec  ( 11.2% of XC)
    XC-Potential eval.      ....       3.600 sec  ( 34.9% of XC)
Diagonalization             ....       0.000 sec  (  0.0%)
Density matrix formation    ....       0.038 sec  (  0.3%)
Total Energy calculation    ....       0.002 sec  (  0.0%)
Population analysis         ....       0.818 sec  (  5.7%)
Orbital Transformation      ....       0.019 sec  (  0.1%)
Orbital Orthonormalization  ....       0.000 sec  (  0.0%)
DIIS solution               ....       0.109 sec  (  0.8%)
  MO trafo                  ....       0.000 sec  (  0.0 % of DIIS)
  Orb grad                  ....       0.000 sec  (  0.0 % of DIIS)
  Energy W gradient         ....       0.000 sec  (  0.0 % of DIIS)
  DIIS error                ....       0.010 sec  (  9.4 % of DIIS)
  DIIS work                 ....       0.088 sec  ( 80.8 % of DIIS)
  Form Q                    ....       0.000 sec  (  0.0 % of DIIS)
  Form QpQm                 ....       0.000 sec  (  0.0 % of DIIS)
  Exp/Cayley                ....       0.000 sec  (  0.0 % of DIIS)
  Orb update                ....       0.000 sec  (  0.0 % of DIIS)
  Wake-sleep                ....       0.001 sec  (  1.3 % of DIIS)
SOSCF solution              ....       0.016 sec  (  0.1%)
  MO trafo                  ....       0.012 sec  ( 75.2 % of SOSCF)
  Orb grad                  ....       0.000 sec  (  0.5 % of SOSCF)
  Rot update                ....       0.000 sec  (  0.2 % of SOSCF)
  Step                      ....       0.004 sec  ( 23.8 % of SOSCF)
Finished LeanSCF after  15.3 sec

Maximum memory used throughout the entire LEANSCF-calculation: 22.8 MB


-------------------------------------------------------------------------------
                          DFT DISPERSION CORRECTION                            
                                                                               
                                DFTD4 V3.4.0                                   
-------------------------------------------------------------------------------
The R2SCAN3C composite method is recognized
Using three-body term ABC
Active option DFTDOPT                   ...         5   

-------------------------   ----------------
Dispersion correction           -0.005364449
-------------------------   ----------------

------------------   -----------------
gCP correction             0.007904818
------------------   -----------------

-------------------------   --------------------
FINAL SINGLE POINT ENERGY      -326.821599642844
-------------------------   --------------------


------------------------------------------------------------------------------
                              ORCA PROPERTY CALCULATIONS
------------------------------------------------------------------------------

GBWName                                 ... sp.gbw
Number of atoms                         ...     17
Number of basis functions               ...    202
Max core memory                         ...   1024 MB

Electric properties:
Dipole moment                           ... YES
Quadrupole moment                       ...  NO
Static polarizability (Dipole/Dipole)   ...  NO
Static polarizability (Dipole/Quad.)    ...  NO
Static polarizability (Quad./Quad.)     ...  NO
Static polarizability (Velocity)        ...  NO

Atomic electric properties:
Dipole moment                           ...  NO
Quadrupole moment                       ...  NO
Static polarizability                   ...  NO

Choice of electric origin               ... Center of mass
Position of electric origin             ...    -0.000008    -0.000003    -0.000000

General magnetic properties:
Magnetizability                         ...  NO

EPR properties:
g-Tensor (aka g-matrix)                 ...  NO
Zero-Field splitting spin-orbit         ...  NO
Zero-field splitting spin-spin          ...  NO
Hyperfine couplings                     ...  NO (   0 nuclei)
Quadrupole couplings                    ...  NO (   0 nuclei)
Contact density                         ...  NO (   0 nuclei)

NMR properties:
Chemical shifts                         ...  NO (   0 nuclei)
Spin-rotation constants                 ...  NO (   0 nuclei)
Spin-spin couplings                     ...  NO (   0 nuclei,    0 pairs)

Choice of magnetic origin               ... GIAO
Position of magnetic origin             ...     0.000000     0.000000     0.000000

Properties with geometric perturbations:
SCF Hessian                             ...  NO
IR spectrum                             ...  NO
VCD spectrum                            ...  NO
X-ray spectroscopy properties:
SCF XES/XAS/RIXS spectra                ...  NO


-------------
DIPOLE MOMENT
-------------

Method             : SCF
Type of density    : Electron Density
Multiplicity       :   1
Irrep              :   0
Energy             :  -326.8241400123945368 Eh
Relativity type    : 
Basis              : AO
                                X                 Y                 Z
Electronic contribution:      5.629724698      -1.257012014       0.001574253
Nuclear contribution   :     -5.936959335       2.056635137      -0.002527902
                        -----------------------------------------
Total Dipole Moment    :     -0.307234637       0.799623124      -0.000953649
                        -----------------------------------------
Magnitude (a.u.)       :      0.856616117
Magnitude (Debye)      :      2.177345132



--------------------
Rotational spectrum 
--------------------
 
Rotational constants in cm-1:             0.105277             0.076591             0.045080 
Rotational constants in MHz :          3156.135251          2296.143339          1351.451735 

Dipole components along the rotational axes: 
x,y,z [a.u.] :    -0.310467     0.798374    -0.000925 
x,y,z [Debye]:    -0.789144     2.029305    -0.002352 

 

Dipole moment calculation done in   0.2 sec 

Maximum memory used throughout the entire PROP-calculation: 13.3 MB

--------------------------------
SUGGESTED CITATIONS FOR THIS RUN
--------------------------------

Below you find a list of papers that are relevant to this ORCA run
We neither can nor want to force you to cite these papers, but we appreciate if you do
You receive ORCA, which is the product of decades of hard work by many enthusiastic individuals, for free
The only thing we kindly ask in return is that you cite our papers,
We deeply appreciate it, if you show your appreciation for ORCA by not just citing the generic ORCA reference.

Please note that relegating all ORCA citations to the supporting information does *not* help us.
SI sections are not indexed - citations you put there will not count into any citation statistics
But we need these citations in order to attract the funding resources that allow us to do what we are doing

Therefore, if you are a happy ORCA user, please consider citing a few of the papers listed below in the main body of your paper

In addition to the list printed below, the program has created the file sp.bibtex that contains the list in bibtex format
You can import this file easily into all common literature databanks and citation aid programs


List of essential papers. We consider these as the minimum necessary citations

  1. Neese,F.
     Software update: the ORCA program system, version 5.0
     WIRES Comput. Molec. Sci., 2022 12(1)e1606
     doi.org/10.1002/wcms.1606
  2. Grimme,S.; Hansen,A.; Ehlert,S.; Mewes,J.
     r2SCAN-3c: A 'Swiss army knife' composite electronic-structure method
     J. Chem. Phys., 2021 154 064103
     doi.org/10.1063/5.0040021

List of papers to cite with high priority. The work reported in these papers was absolutely
necessary for this run to complete.
Our perspective: the developers of density functionals and basis sets usually get cited in chemistry papers
Good! But without the algorithms to do something with them, the functionals or basis sets would not do anything.
Hence, in our opinion, the algorithm design and method developments papers are equally worthy of getting cited

  1. Neese,F.
     An improvement of the resolution of the identity approximation for the formation of the Coulomb matrix
     J. Comp. Chem., 2003 24(14)1740-1747
     doi.org/10.1002/jcc.10318
  2. Neese,F.
     The SHARK Integral Generation and Digestion System
     J. Comp. Chem., 2022  1-16
     doi.org/10.1002/jcc.26942
  3. Lehtola,S.; Steigemann,C.; Oliveira,M.; Marques,M.
     Recent developments in Libxc - A comprehensive library of functionals for density functional theory
     Software X, 2018 7 
     doi.org/10.1016/j.softx.2017.11.002
  4. Caldeweyher,E.; Bannwarth,C.; Grimme,S.
     Extension of the D3 dispersion coefficient model
     J. Chem. Phys., 2017 147 034112
     doi.org/10.1063/1.4993215
  5. Caldeweyher,E.; Ehlert,S.; Hansen,A.; Neugebauer,H.; Spicher,S.; Bannwarth,C.; Grimme,S.
     A generally applicable atomic-charge dependent London dispersion correction
     J. Chem. Phys., 2019 150 154122
     doi.org/10.1063/1.5090222
  6. Caldeweyher,E.; Mewes,J.; Ehlert,S.; Grimme,S.
     Extension and evaluation of the D4 London-dispersion model for periodic systems
     Phys. Chem. Chem. Phys., 2020 22(16)8499-8512
     doi.org/10.1039/D0CP00502A
  7. Wittmann,L.; Gordiy,I.; Friede,M.; Helmich-Paris,B.; Grimme,S.; Hansen,A.; Bursch,M.
     Extension of the D3 and D4 London Dispersion Corrections to the full Actinides Series
     Phys. Chem. Chem. Phys., 2024 26(32)21379-21394
     doi.org/https://doi.org/10.1039/D4CP01514B 

List of suggested additional citations. These are papers that are important in the 'surrounding' of 
of this run, or papers that preceded the highly important papers. If you like your results we are grateful for a citation.

  1. Neese,F.
     The ORCA program system
     WIRES Comput. Molec. Sci., 2012 2(1)73-78
     doi.org/10.1002/wcms.81
  2. Neese,F.
     Software update: the ORCA program system, version 4.0
     WIRES Comput. Molec. Sci., 2018 8(1)1-6
     doi.org/10.1002/wcms.1327
  3. Neese,F.; Wennmohs,F.; Becker,U.; Riplinger,C.
     The ORCA quantum chemistry program package
     J. Chem. Phys., 2020 152 Art. No. L224108
     doi.org/10.1063/5.0004608

List of optional additional citations

  1. Neese,F.
     Approximate second-order SCF convergence for spin unrestricted wavefunctions
     Chem. Phys. Lett., 2000 325(1-3)93-98
     doi.org/10.1016/s0009-2614(00)00662-x

Timings for individual modules:

Sum of individual times          ...       16.486 sec (=   0.275 min)
Startup calculation              ...        0.763 sec (=   0.013 min)   4.6 %
SCF iterations                   ...       15.415 sec (=   0.257 min)  93.5 %
Property calculations            ...        0.308 sec (=   0.005 min)   1.9 %
                             ****ORCA TERMINATED NORMALLY****
TOTAL RUN TIME: 0 days 0 hours 0 minutes 17 seconds 546 msec
