31
 energy: -468.206567487701 gnorm: 0.032768582026 xtb: 6.7.1 (edcfbbe)
C            3.72561752715092       -0.16376046567257       -0.08287070213672
C            2.25717337400021       -0.30878718763683        0.30496402453514
H            2.19718207657363       -0.50396746782332        1.38221728991250
C            1.60313589501039       -1.47304028255274       -0.43623674659331
C            0.12800999055672       -1.59199604860546       -0.06880582593049
C           -0.64428531368550       -0.30738569683621       -0.38999141277282
H           -0.52122749443097       -0.09342185214140       -1.45757866364589
C            0.00966950110428        0.85413480907849        0.38197249106926
H           -0.05357534952374        0.64686422218664        1.46238833104802
C            1.48595166255846        0.97124610043038       -0.00094268370042
O           -0.57131136115316        2.11265061613617        0.10531592464667
C           -2.15696961425581       -0.50955826102580       -0.13307439185897
C           -2.56995102063881       -0.31404307893916        1.32639558348776
C           -3.01720647793700        0.35162179055581       -1.06105612477018
H            4.27311546229353       -1.07575546357670        0.14506068096428
H            3.81848368779207        0.03511649791556       -1.14832953660886
H            4.18524452495459        0.65862466939185        0.46019277770392
H            1.69678287855189       -1.31058047888075       -1.51247370927022
H            2.11795264703852       -2.40527248486584       -0.19309139938556
H           -0.31436887343931       -2.42684949097540       -0.61722868347351
H            0.03907973281732       -1.81117850480258        0.99802814614225
H            1.54677907468542        1.20017309523183       -1.06638372917254
H            1.91275941914759        1.81566365350457        0.54264879354046
H           -1.47507527485364        2.11367744543663        0.43604132549322
H           -2.37450519925221       -1.55512895178912       -0.38579076517095
H           -1.94576055316222       -0.90949942080302        1.98830382348107
H           -3.60170980429601       -0.63358225248076        1.46008650584700
H           -2.50531964511017        0.72734190772230        1.63558135192477
H           -2.81965904954947        0.09625598614265       -2.09993479413054
H           -2.81984312824955        1.41277685702604       -0.93584755391470
H           -4.07281483870477        0.17419876177719       -0.86319869008251
31
 energy: -468.207772913699 gnorm: 0.011425325194 xtb: 6.7.1 (edcfbbe)
C            3.73748277685292       -0.16119481362261       -0.08057470790195
C            2.26573727532091       -0.30738899450413        0.29855913680453
H            2.20379849069042       -0.50480014359799        1.37860279605889
C            1.60879092119106       -1.48169242144090       -0.42693161654807
C            0.12786656012751       -1.60039805306462       -0.07464541207157
C           -0.64832863108475       -0.31298744964803       -0.38747771044084
H           -0.51992923919414       -0.09468459217474       -1.45735991484584
C            0.00802471068374        0.85290527153768        0.37354436716953
H           -0.05563598677891        0.63889974733655        1.45494463099868
C            1.48522395469956        0.97351447854902        0.00709361472383
O           -0.57356800336522        2.12383390128477        0.09781512574608
C           -2.16505272757077       -0.50068842649242       -0.13453494018058
C           -2.57081733689809       -0.31799145423038        1.33132885328311
C           -3.03315968182947        0.35150433640248       -1.06674324819341
H            4.29303189648218       -1.07553498325452        0.14480344491294
H            3.83257485582266        0.03818969409418       -1.15200308109184
H            4.20439144390632        0.66588114228284        0.46047840500356
H            1.70819539144576       -1.32146965606903       -1.50832625442220
H            2.13158757896628       -2.41503842354945       -0.18956373950540
H           -0.32268490859495       -2.43668991319900       -0.61989734009964
H            0.03210984874329       -1.82879343951657        0.99475766707961
H            1.55193751971733        1.20692009978192       -1.06282988095230
H            1.91271628498223        1.82238330315830        0.55120356594494
H           -1.47381438027527        2.12851084677449        0.43701889730320
H           -2.38022913076019       -1.54813832049058       -0.38788176985839
H           -1.94619957351796       -0.91123588352944        2.00379323738096
H           -3.60779804321057       -0.63283075447624        1.47373253801090
H           -2.50606170982622        0.72724313342830        1.64994042827820
H           -2.83067987146297        0.10507782208127       -2.11215577324507
H           -2.84097555189854        1.41944056368829       -0.94547545786234
H           -4.09518011079194        0.17379146740586       -0.87485179922431
31
 energy: -468.207949800097 gnorm: 0.003847708165 xtb: 6.7.1 (edcfbbe)
C            3.73955419200292       -0.16022092597953       -0.08037351386507
C            2.26817954785993       -0.30797364163158        0.30129818970711
H            2.20726514352831       -0.50495483466785        1.38344005745240
C            1.61063087641686       -1.48299818572533       -0.42496519668027
C            0.12772926983246       -1.60113370531004       -0.07634884749388
C           -0.64880587599625       -0.31234576997856       -0.39185528584049
H           -0.51933899856984       -0.09569155783781       -1.46393135778064
C            0.01054853617231        0.84894777546311        0.37167705148270
H           -0.05902358724980        0.63832149870297        1.45446379981401
C            1.48588343910056        0.97319586750359        0.00801453351634
O           -0.57247063770169        2.12526346201403        0.08897629102016
C           -2.16662335416126       -0.50076857823548       -0.13504641188892
C           -2.57296124114329       -0.31805783777604        1.33190058683039
C           -3.03857336535181        0.35177320873399       -1.06480439896760
H            4.30031422858161       -1.07399884231354        0.14461192132272
H            3.83928443086465        0.03933321254759       -1.15418247888974
H            4.20973510145359        0.66876147301252        0.45927637558100
H            1.71601678788385       -1.32921478434172       -1.50962011118910
H            2.13499380592392       -2.41657337600354       -0.18561814977810
H           -0.32353622519524       -2.43749671842395       -0.62346033393986
H            0.02531106909727       -1.83783047880229        0.99344772604547
H            1.55866773870249        1.21221716095957       -1.06329426305938
H            1.91191491624623        1.82269448825798        0.55503261621455
H           -1.46919527417785        2.13393278782277        0.43817510679376
H           -2.38253358824814       -1.54870678116765       -0.38928321290233
H           -1.94780951687123       -0.91128532123820        2.00711328184554
H           -3.61195637670823       -0.63049164399988        1.48016329114164
H           -2.50684155632033        0.72824031840715        1.65716067904582
H           -2.83377191042327        0.11155819863930       -2.11339589797477
H           -2.85680434037167        1.42436975058735       -0.94482522967777
H           -4.10242853509977        0.16767105357822       -0.87737988112206
31
 energy: -468.207986301329 gnorm: 0.002233933648 xtb: 6.7.1 (edcfbbe)
C            3.73995646956057       -0.16030680270300       -0.08023288730706
C            2.26907230981024       -0.30862079332172        0.30211842678390
H            2.20940182671491       -0.50496117587530        1.38453428159524
C            1.61148628568821       -1.48432166475303       -0.42386729918659
C            0.12772595823436       -1.60213917080072       -0.07851726993159
C           -0.64852453897419       -0.31192927262994       -0.39288062357374
H           -0.52060190853873       -0.09658045206505       -1.46532808864221
C            0.01108276687283        0.84885322816313        0.36919854106538
H           -0.06280198345616        0.64257323982866        1.45218845340630
C            1.48615515412648        0.97271510950538        0.00875058344646
O           -0.57281601554903        2.12704578036287        0.08185674813908
C           -2.16695556349441       -0.50016543999596       -0.13481914222415
C           -2.57192740259395       -0.31752166994991        1.33231776849793
C           -3.04086822042693        0.35171237109303       -1.06324745005361
H            4.30240528693028       -1.07300060328197        0.14507090041151
H            3.84034511325466        0.03901191232988       -1.15408649687181
H            4.20998226114910        0.66927300691380        0.45871163385972
H            1.72005452349601       -1.33365157269553       -1.50880472739614
H            2.13466316030617       -2.41784095202546       -0.18121125201982
H           -0.32182162092335       -2.43763735624081       -0.62872167517180
H            0.02184692291664       -1.84174925600635        0.99042689494615
H            1.56224437860945        1.21422513265719       -1.06183395408035
H            1.91072070488337        1.82140868450135        0.55812889636487
H           -1.46645120621207        2.13804217785064        0.43938057122525
H           -2.38347988700046       -1.54796945348889       -0.38925703272368
H           -1.94746795449177       -0.91192071845719        2.00719003511822
H           -3.61118959682629       -0.62892651358810        1.48080868596511
H           -2.50476237270368        0.72860716833676        1.65839542598114
H           -2.83403890555814        0.11636140172663       -2.11266988790897
H           -2.86606157827462        1.42509874241963       -0.93905325130255
H           -4.10401965178933        0.16085143065785       -0.87817688097943
31
 energy: -468.208021669776 gnorm: 0.001916893988 xtb: 6.7.1 (edcfbbe)
C            3.73976839584311       -0.16045133188773       -0.07953637328499
C            2.26951422352087       -0.30969035884144        0.30354680250430
H            2.21104230906005       -0.50527908400560        1.38585555937431
C            1.61255424625131       -1.48641851902764       -0.42174563229302
C            0.12738804175964       -1.60308840242386       -0.08236669064162
C           -0.64819687935206       -0.31131361988880       -0.39580475655113
H           -0.52292590037169       -0.09720933982851       -1.46839501675949
C            0.01141319667193        0.84871027239074        0.36427769638332
H           -0.06919213480345        0.65079465526948        1.44758744734273
C            1.48695369341671        0.97218899180823        0.00992213487770
O           -0.57259616975615        2.12868495601405        0.06790175787992
C           -2.16687283653566       -0.49971091170879       -0.13444343731705
C           -2.56908721800274       -0.31696316247222        1.33295221217079
C           -3.04442829245219        0.35130322122854       -1.05973467324047
H            4.30343490699892       -1.07171962444978        0.14676797523089
H            3.83976900234548        0.03792901159201       -1.15316454374455
H            4.20870232649070        0.67000928540349        0.45837993318567
H            1.72620435986333       -1.33973166364145       -1.50627193066792
H            2.13305785070430       -2.41976081767978       -0.17307363074790
H           -0.31946882429567       -2.43594012739148       -0.63867785903135
H            0.01650032859676       -1.84676454495765        0.98471533597796
H            1.56780550665549        1.21660653750453       -1.05916453848031
H            1.90957615068949        1.81900787613379        0.56324281809685
H           -1.46048891276252        2.14522746340660        0.44006574180554
H           -2.38348738720773       -1.54739810032712       -0.38872152002076
H           -1.94555863204632       -0.91326632185163        2.00640392010486
H           -3.60854462314747       -0.62641056587304        1.48167469044747
H           -2.49964015557376        0.72872023684337        1.65843952533074
H           -2.83253564306259        0.12594656414087       -2.11009384522862
H           -2.88149345867540        1.42500077235205       -0.92496864507053
H           -4.10581279818185        0.14752164347289       -0.87919400352858
31
 energy: -468.208036761419 gnorm: 0.002072710659 xtb: 6.7.1 (edcfbbe)
C            3.73909099915280       -0.16130607670351       -0.07773577637338
C            2.26865790962413       -0.31031758714717        0.30504687500687
H            2.20959313312197       -0.50535783649339        1.38719088434016
C            1.61297820241814       -1.48734721417638       -0.42036552514908
C            0.12683966367654       -1.60334916510113       -0.08562314688123
C           -0.64783986327203       -0.31098726240972       -0.39834465155684
H           -0.52433961818650       -0.09700936905903       -1.47087899791411
C            0.01042329105827        0.85033485401010        0.35930773125846
H           -0.07427215107557        0.65752555906165        1.44279854258019
C            1.48729428674302        0.97182050968121        0.00997661421363
O           -0.57264702922671        2.12982013808210        0.05531651365385
C           -2.16604559387359       -0.50026142640575       -0.13448804286962
C           -2.56527506385189       -0.31748622548907        1.33352423895397
C           -3.04712256920571        0.35062365024802       -1.05620832813058
H            4.30271308355810       -1.07200491521976        0.14979684153203
H            3.83811448394723        0.03566764880865       -1.15138985765291
H            4.20699882897127        0.67009996790738        0.45914206189463
H            1.73045157130828       -1.34291833551265       -1.50433138762921
H            2.13144528079072       -2.42046872000841       -0.16723830546612
H           -0.31847824067364       -2.43387123860722       -0.64629846787743
H            0.01227566856971       -1.84936339012679        0.98002882882962
H            1.57164850985459        1.21717401089386       -1.05820594253114
H            1.90892791707917        1.81715369368668        0.56588681419554
H           -1.45512336277193        2.15284665395203        0.43934153403728
H           -2.38192540727797       -1.54806734294137       -0.38856162856613
H           -1.94200477871519       -0.91508236667691        2.00569113902936
H           -3.60499337561818       -0.62489784814494        1.48324657007181
H           -2.49337955361793        0.72797346293545        1.65786061712452
H           -2.82895633006469        0.13672419159749       -2.10741970644171
H           -2.89476893941912        1.42396722706350       -0.90957841080887
H           -4.10692640581445        0.13489822223169       -0.88110400166716
31
 energy: -468.208045836217 gnorm: 0.001462666507 xtb: 6.7.1 (edcfbbe)
C            3.73869164249601       -0.16207383618673       -0.07544882800159
C            2.26756177443216       -0.31041198411928        0.30580378539144
H            2.20696155864894       -0.50489170321918        1.38802188172147
C            1.61302675339134       -1.48770456919817       -0.41976285462171
C            0.12636232043850       -1.60290978563366       -0.08742669965503
C           -0.64808138884671       -0.31085538640995       -0.40037152257667
H           -0.52533725302009       -0.09701913636161       -1.47301452862322
C            0.00986443022212        0.85163564452785        0.35599407860561
H           -0.07632335007039        0.66130371479645        1.43985881618103
C            1.48773613221414        0.97204031133691        0.00896232012631
O           -0.57220382072217        2.12963303970372        0.04728330482150
C           -2.16570628315924       -0.50093697679582       -0.13487360316303
C           -2.56258368480906       -0.31887576089709        1.33394683869486
C           -3.04919397418257        0.35027356863559       -1.05381473630344
H            4.30166621757038       -1.07283463708338        0.15348976113181
H            3.83801430312160        0.03348322895762       -1.14932497366224
H            4.20631710228696        0.66997121552901        0.46071238173933
H            1.73249009323019       -1.34398367531537       -1.50349966327015
H            2.13084553072687       -2.42074549905415       -0.16498284856344
H           -0.31862874925500       -2.43264282585705       -0.64935421333900
H            0.01019270107035       -1.84988650682352        0.97779023903497
H            1.57393256500272        1.21681810561811       -1.05916778548122
H            1.90907184199689        1.81726162631284        0.56535815602322
H           -1.45128377026231        2.15848769239374        0.43828508306144
H           -2.38126630629636       -1.54878404310670       -0.38911747911187
H           -1.93894020569229       -0.91714377935488        2.00522404016591
H           -3.60252568270748       -0.62485246079448        1.48534047137610
H           -2.48877468479885        0.72655494258685        1.65807496404118
H           -2.82597712990407        0.14585720335097       -2.10578678975752
H           -2.90444958890277        1.42338649246642       -0.89820884393789
H           -4.10810470662770        0.12637813524302       -0.88360138426582
31
 energy: -468.208054024565 gnorm: 0.000954611225 xtb: 6.7.1 (edcfbbe)
C            3.73867297920429       -0.16365272152090       -0.07109784547437
C            2.26608418579016       -0.30998501839894        0.30636572922346
H            2.20184372291003       -0.50342912079731        1.38867266192283
C            1.61249962978333       -1.48692978473633       -0.41996092868641
C            0.12580159780624       -1.60222200517758       -0.08861709681962
C           -0.64854935811203       -0.31102540332371       -0.40242478221784
H           -0.52621253576111       -0.09747810564170       -1.47541515475345
C            0.00887495685238        0.85415343432805        0.35199019336754
H           -0.07690513825170        0.66467589428340        1.43613587516097
C            1.48787882570495        0.97212985450111        0.00581654014282
O           -0.57177235207626        2.12929534862198        0.03938392750531
C           -2.16534418624301       -0.50183760633163       -0.13540439147695
C           -2.55929115859821       -0.32180389980593        1.33464200178374
C           -3.05136857748931        0.35065022268731       -1.05055305402106
H            4.29986129437178       -1.07492164470006        0.16058737760397
H            3.84023159889092        0.02983075764512       -1.14530680116143
H            4.20586299838417        0.66894597002458        0.46465136975146
H            1.73275545209698       -1.34269363003579       -1.50366559743229
H            2.13028590722180       -2.41997675919579       -0.16535846455834
H           -0.31939010963521       -2.43241236247994       -0.64970044877395
H            0.00944317629500       -1.84844687990485        0.97677409207851
H            1.57492039741789        1.21423641414054       -1.06305009051227
H            1.90932232019862        1.81853994163012        0.56039849956820
H           -1.44778296027937        2.16575032501983        0.43521249738097
H           -2.38059918831535       -1.54952888547607       -0.39092813790535
H           -1.93448849352898       -0.92112312886749        2.00404610532040
H           -3.59928058337253       -0.62673952860255        1.48830061297107
H           -2.48335681000644        0.72344023262252        1.65933438603030
H           -2.82154704265698        0.15863208115720       -2.10337587206032
H           -2.91587615926460        1.42320507910954       -0.88362028849094
H           -4.10922032465132        0.11725182092207       -0.88743532558749
31
 energy: -468.208057359606 gnorm: 0.000622718055 xtb: 6.7.1 (edcfbbe)
C            3.73891285923391       -0.16409021607842       -0.06927975045240
C            2.26585382718781       -0.30966745373730        0.30601271070330
H            2.20030700268336       -0.50243598957287        1.38841892809698
C            1.61259581687082       -1.48701370843811       -0.42027207634374
C            0.12602089335977       -1.60208619948033       -0.08829823257907
C           -0.64886664772788       -0.31117162687365       -0.40291278833115
H           -0.52681248996862       -0.09868004476809       -1.47618578996532
C            0.00936652627610        0.85439754117006        0.35051678349180
H           -0.07619828092856        0.66567620053468        1.43491617232952
C            1.48810411528353        0.97245751472089        0.00381608318220
O           -0.57137823463630        2.12936067610160        0.03709778726824
C           -2.16576454015997       -0.50159341944558       -0.13550267683523
C           -2.55892760009930       -0.32328339739334        1.33492954552096
C           -3.05228078319719        0.35183850210240       -1.04928173924517
H            4.29947276746398       -1.07540223926856        0.16406066998081
H            3.84307847687919        0.02874916908702       -1.14343245297861
H            4.20578246032559        0.66850419895676        0.46687854691127
H            1.73246010226294       -1.34239800646860       -1.50413316680037
H            2.13069279567097       -2.42017733687736       -0.16636338747443
H           -0.31918650069744       -2.43313308052157       -0.64834099247648
H            0.01014492389118       -1.84761316699130        0.97747957695739
H            1.57509934975178        1.21298004589677       -1.06553675723162
H            1.90950632167037        1.81997330855117        0.55689031647557
H           -1.44708894423781        2.16722695260197        0.43408994002847
H           -2.38152037589817       -1.54889779797678       -0.39234116615925
H           -1.93374191732319       -0.92350609255666        2.00325654787427
H           -3.59884418349283       -0.62835807236069        1.48897392127875
H           -2.48259444469082        0.72162192770652        1.66091370322125
H           -2.82076731343711        0.16356604593195       -2.10242782335614
H           -2.92022641667511        1.42441674980340       -0.87911244442426
H           -4.10984567801279        0.11526934041824       -0.88842921490010
31
 energy: -468.208057359606 gnorm: 0.000622718055 xtb: 6.7.1 (edcfbbe)
C            3.73891285923391       -0.16409021607842       -0.06927975045240
C            2.26585382718781       -0.30966745373730        0.30601271070330
H            2.20030700268336       -0.50243598957287        1.38841892809698
C            1.61259581687082       -1.48701370843811       -0.42027207634374
C            0.12602089335977       -1.60208619948033       -0.08829823257907
C           -0.64886664772788       -0.31117162687365       -0.40291278833115
H           -0.52681248996862       -0.09868004476809       -1.47618578996532
C            0.00936652627610        0.85439754117006        0.35051678349180
H           -0.07619828092856        0.66567620053468        1.43491617232952
C            1.48810411528353        0.97245751472089        0.00381608318220
O           -0.57137823463630        2.12936067610160        0.03709778726824
C           -2.16576454015997       -0.50159341944558       -0.13550267683523
C           -2.55892760009930       -0.32328339739334        1.33492954552096
C           -3.05228078319719        0.35183850210240       -1.04928173924517
H            4.29947276746398       -1.07540223926856        0.16406066998081
H            3.84307847687919        0.02874916908702       -1.14343245297861
H            4.20578246032559        0.66850419895676        0.46687854691127
H            1.73246010226294       -1.34239800646860       -1.50413316680037
H            2.13069279567097       -2.42017733687736       -0.16636338747443
H           -0.31918650069744       -2.43313308052157       -0.64834099247648
H            0.01014492389118       -1.84761316699130        0.97747957695739
H            1.57509934975178        1.21298004589677       -1.06553675723162
H            1.90950632167037        1.81997330855117        0.55689031647557
H           -1.44708894423781        2.16722695260197        0.43408994002847
H           -2.38152037589817       -1.54889779797678       -0.39234116615925
H           -1.93374191732319       -0.92350609255666        2.00325654787427
H           -3.59884418349283       -0.62835807236069        1.48897392127875
H           -2.48259444469082        0.72162192770652        1.66091370322125
H           -2.82076731343711        0.16356604593195       -2.10242782335614
H           -2.92022641667511        1.42441674980340       -0.87911244442426
H           -4.10984567801279        0.11526934041824       -0.88842921490010
