22
 energy: -4139.798013910609 gnorm: 0.002182236271 xtb: 6.7.1 (edcfbbe)
C           -1.22902995543753        1.14308210467668        0.82872602668596
C           -0.52650562898775        0.27268644758819        0.00423541741796
C           -1.22055310878531       -0.69506256974272       -0.72381002228075
C           -2.61287364869055       -0.79363240797182       -0.62307418325834
C           -3.31616725701167        0.08731044425642        0.21270090293958
C           -2.60850495065326        1.05436641086111        0.93501052125412
Cl          -3.43958435880058        2.16701898369441        1.97796889476071
Cl          -5.03183276915244       -0.02070222072560        0.34438846001773
Cl          -3.46536816767208       -1.99540772030338       -1.52359533989550
Cl          -0.33493666456006       -1.77037025675512       -1.75520886398638
C            0.94657669961949        0.39878713064509       -0.09097311311934
C            1.53964044687920        1.31699025830358       -0.96018113017853
C            2.91468416839799        1.47136992911255       -1.04120100172357
C            3.72956316879575        0.69079027181858       -0.23272561737095
C            3.18334342699668       -0.24787497117612        0.65053312618138
C            1.79035680828980       -0.38251133290548        0.70661952731559
Cl           1.07751128745451       -1.53961136235323        1.78211617056972
Cl           4.20397540313552       -1.21605722754643        1.65025846647116
Cl           5.44657553916979        0.90657507640406       -0.33978169215323
Cl           0.52963700807211        2.29837146222213       -1.98922305603531
H           -0.69457823436207        1.89816036660627        1.39244368383866
H            3.35181231415626        2.18803363149468       -1.72426904398939
22
 energy: -4139.798028942319 gnorm: 0.001221120613 xtb: 6.7.1 (edcfbbe)
C           -1.23059796750442        1.14209927244752        0.82958823509128
C           -0.52686064217117        0.27321673998010        0.00455944432944
C           -1.22094805275096       -0.69358579350294       -0.72486149592827
C           -2.61322160120999       -0.79347295630562       -0.62404553818309
C           -3.31725815556802        0.08664901967091        0.21218815731678
C           -2.61026114569598        1.05362904169864        0.93506331419361
Cl          -3.44029101982432        2.16560650622696        1.97918399480989
Cl          -5.03365644584380       -0.02283336755599        0.34440987763994
Cl          -3.46490604793563       -1.99521600110320       -1.52546280581895
Cl          -0.33554550078739       -1.76681326033364       -1.75872691882408
C            0.94634564826263        0.40018395874057       -0.08963986603207
C            1.53980063137808        1.31739589254521       -0.95932079967462
C            2.91524625272151        1.47068022939470       -1.04089458359019
C            3.73059063837773        0.68952222065116       -0.23332292822133
C            3.18446817569173       -0.24831946151012        0.65075397929171
C            1.79108318723546       -0.37978067789607        0.70864027972197
Cl           1.07834369385582       -1.53320424629354        1.78844862364068
Cl           4.20564511093643       -1.21713454494362        1.64951839338470
Cl           5.44830199696546        0.90316758155439       -0.34420361995100
Cl           0.53165398830264        2.29662587560680       -1.99184068910980
H           -0.69669679851644        1.89657035220594        1.39469111579306
H            3.35250551478760        2.18732630054222       -1.72376898938590
22
 energy: -4139.798043358575 gnorm: 0.001285235258 xtb: 6.7.1 (edcfbbe)
C           -1.23490389099467        1.13949193573458        0.83389450808238
C           -0.52740867793154        0.27579991435501        0.00650576276492
C           -1.22073802741938       -0.68783954500833       -0.72844459730748
C           -2.61299067486865       -0.79152061856171       -0.62839880570114
C           -3.31912481953008        0.08402660342539        0.21102881494605
C           -2.61501517731846        1.04975301538465        0.93742178833916
Cl          -3.44553991900828        2.15832463270798        1.98356194801109
Cl          -5.03735154637208       -0.02998596882123        0.34364028595081
Cl          -3.46251756009454       -1.99235899609597       -1.53317712307252
Cl          -0.33347823807920       -1.75319150691238       -1.76951342869722
C            0.94600399891786        0.40458721644654       -0.08559369780881
C            1.54069258643798        1.31634744804172       -0.95976842052066
C            2.91694839348497        1.46729562174460       -1.04229372683427
C            3.73271231652189        0.68501749205868       -0.23649121373833
C            3.18655105434291       -0.24773939204950        0.65271250009478
C            1.79241016061523       -0.37053933698511        0.71649723401232
Cl           1.07918634632076       -1.51201910972517        1.81025583438583
Cl           4.20821939637483       -1.21973358643221        1.64813467368786
Cl           5.45247406055493        0.89032873115659       -0.35877465751638
Cl           0.53618301117092        2.29205948883738       -1.99817677874476
H           -0.70326319779246        1.89180412755773        1.40416201875547
H            3.35469169436755        2.18240500271970       -1.72622944385189
22
 energy: -4139.798053648230 gnorm: 0.001477893269 xtb: 6.7.1 (edcfbbe)
C           -1.23600351581243        1.13866020803424        0.83831510809042
C           -0.52734915679284        0.27833484326934        0.00855978595005
C           -1.21913730808689       -0.68376493472352       -0.73007520022904
C           -2.61117443996126       -0.78969196844455       -0.63091852097801
C           -3.31848916903369        0.08278030050602        0.21067894779522
C           -2.61615773430703        1.04742784362387        0.94029850176450
Cl          -3.44940636004717        2.15190818205131        1.98824971339768
Cl          -5.03688165942529       -0.03401486779000        0.34188788469514
Cl          -3.45846839629103       -1.98877568938446       -1.54010614144362
Cl          -0.33029427317210       -1.74550578099980       -1.77376415293765
C            0.94592681152217        0.40749791303511       -0.08337902985104
C            1.54096958789412        1.31587436479219       -0.96104139425815
C            2.91734682248994        1.46396974979833       -1.04602302462143
C            3.73244019739698        0.68216897816213       -0.23914174744641
C            3.18580401456181       -0.24643470139037        0.65433026460215
C            1.79161427219638       -0.36612208626582        0.72073417617942
Cl           1.07721661072348       -1.50245796625622        1.81961678748902
Cl           4.20695413747532       -1.21817955912325        1.65022735015243
Cl           5.45265431903219        0.88273682117633       -0.36485874180391
Cl           0.53634149440594        2.28950915003341       -2.00104035688733
H           -0.70570874382570        1.89000018949076        1.41099644358399
H            3.35554387249039        2.17639172948324       -1.73259568371382
22
 energy: -4139.798072739049 gnorm: 0.000861257324 xtb: 6.7.1 (edcfbbe)
C           -1.23699164125366        1.13861709418313        0.84631706481836
C           -0.52719636423742        0.28387380930536        0.01193058877680
C           -1.21548836435698       -0.67640397921672       -0.73223188909809
C           -2.60725512632928       -0.78488528231801       -0.63604844638414
C           -3.31662190630268        0.08103624551905        0.21003310379660
C           -2.61704346806718        1.04272764136209        0.94674546325175
Cl          -3.45571343088798        2.13820600201425        2.00018599136045
Cl          -5.03404773716695       -0.03998035768853        0.33740000027910
Cl          -3.45111864785742       -1.97958686927755       -1.55371350625439
Cl          -0.32153176776257       -1.73209962772704       -1.77765950105773
C            0.94596651989115        0.41237756502060       -0.07972431888245
C            1.54124245477116        1.31357438088094       -0.96503980797088
C            2.91750890446641        1.45605467226705       -1.05524392815367
C            3.73090944943456        0.67746590131245       -0.24377040305038
C            3.18332149343807       -0.24300531184362        0.65754947857603
C            1.78950790549303       -0.35995146692917        0.72717722883769
Cl           1.07311978627510       -1.49126097302050        1.82948913135812
Cl           4.20253612004937       -1.20993784952740        1.65925508702501
Cl           5.45066402861092        0.87145063775798       -0.37205495538624
Cl           0.53403168728017        2.28529816998154       -2.00454848156045
H           -0.70846123450447        1.88751704000006        1.42402560095925
H            3.35640331272194        2.16122317392256       -1.74912732847538
22
 energy: -4139.798084558510 gnorm: 0.000833796630 xtb: 6.7.1 (edcfbbe)
C           -1.24024568128296        1.13632220351120        0.85777900386166
C           -0.52750447405523        0.29092857627923        0.01655358153589
C           -1.21179198311540       -0.66510833866056       -0.73664452939357
C           -2.60333202949117       -0.77758658361344       -0.64461457960017
C           -3.31643868817910        0.07842690719247        0.20853144057148
C           -2.62019680473518        1.03488768290493        0.95547755022512
Cl          -3.46378347819841        2.11662623593199        2.01985319608616
Cl          -5.03314125454519       -0.04798915067795        0.33247599795759
Cl          -3.44150955999784       -1.96576771295557       -1.57580304498933
Cl          -0.31284106199484       -1.71110365650076       -1.78745211478750
C            0.94573906646541        0.41998084159718       -0.07377243714972
C            1.54181283797678        1.31030034727346       -0.96938803634906
C            2.91831270577469        1.44435587107941       -1.06697795790291
C            3.73080419077403        0.67058714467936       -0.24981665821668
C            3.18187048443432       -0.23692902116038        0.66390182786927
C            1.78778708622262       -0.34837907797947        0.73802420550879
Cl           1.06971708101983       -1.47008758023477        1.84872000227812
Cl           4.19959418728715       -1.19753048903269        1.67308261844093
Cl           5.45066759256037        0.85365947537741       -0.38718611328238
Cl           0.53466893541521        2.27672877002251       -2.01410244283005
H           -0.71459369975865        1.88114234537770        1.44340606638622
H            3.35814767866031        2.13884240196584       -1.77110951901810
22
 energy: -4139.798090347798 gnorm: 0.000553448282 xtb: 6.7.1 (edcfbbe)
C           -1.24225748298430        1.13277726973884        0.86512494538963
C           -0.52768749116795        0.29395582456110        0.01884422225198
C           -1.21073432907244       -0.65798266477656       -0.74084207926547
C           -2.60232344104149       -0.77232690631763       -0.65067626236688
C           -3.31708006452206        0.07703711401279        0.20769563970263
C           -2.62206601812610        1.02882483623007        0.96157418418771
Cl          -3.46688513767228        2.10189154190548        2.03395899752023
Cl          -5.03362175469226       -0.05309001144477        0.32883616976626
Cl          -3.43989033511151       -1.95417699207110       -1.59055151237123
Cl          -0.30983543821784       -1.69714634914479       -1.79680628305242
C            0.94558996874925        0.42381859515541       -0.07092845320560
C            1.54234751098469        1.30674138986039       -0.97315940446598
C            2.91897058595939        1.43683705038940       -1.07385083880949
C            3.73153245978240        0.66675496459394       -0.25299226199104
C            3.18201787014791       -0.23214072101909        0.66871222468852
C            1.78757628606150       -0.34002264998871        0.74544692065051
Cl           1.06919120970365       -1.45363390748275        1.86405806456916
Cl           4.19974608187119       -1.18699769095021        1.68375646449514
Cl           5.45169969676956        0.84290991082667       -0.39681753385175
Cl           0.53626502046865        2.26892696762605       -2.02281340686435
H           -0.71803804002940        1.87435431433595        1.45602802408514
H            3.35922732120028        2.12499225185130       -1.78366596265454
22
 energy: -4139.798094560073 gnorm: 0.000489434183 xtb: 6.7.1 (edcfbbe)
C           -1.24170573392617        1.13009363647316        0.86556320667945
C           -0.52770439180590        0.29233529489952        0.01794430187180
C           -1.21219676381840       -0.65772352827891       -0.74269207249092
C           -2.60382914001291       -0.77102898894128       -0.65213737871257
C           -3.31781088370637        0.07758293052425        0.20789094165018
C           -2.62142383875445        1.02726073347325        0.96263501150394
Cl          -3.46477266519555        2.09910078639591        2.03717627865998
Cl          -5.03453754058159       -0.04998150897694        0.33074930999153
Cl          -3.44167387756051       -1.95110542969338       -1.59411833408253
Cl          -0.31419008380799       -1.69676378035575       -1.80094947532187
C            0.94559388819110        0.42249705043045       -0.07207818956774
C            1.54244167992228        1.30475673084383       -0.97448525963754
C            2.91900560698566        1.43600588363786       -1.07412566555165
C            3.73211997830912        0.66755211798143       -0.25215593177634
C            3.18271060157375       -0.23003974349784        0.67053530698576
C            1.78818996411510       -0.33886044082438        0.74614489722865
Cl           1.07089859105892       -1.45082005272992        1.86687210296165
Cl           4.20087012040912       -1.18264168944767        1.68768973235377
Cl           5.45225427174904        0.84492663117789       -0.39597340606962
Cl           0.53728082020427        2.26481481725708       -2.02685763502392
H           -0.71689141572492        1.87040539711203        1.45722643099474
H            3.35911629739080        2.12393559744087       -1.78392395644754
22
 energy: -4139.798094560073 gnorm: 0.000489434183 xtb: 6.7.1 (edcfbbe)
C           -1.24170573392617        1.13009363647316        0.86556320667945
C           -0.52770439180590        0.29233529489952        0.01794430187180
C           -1.21219676381840       -0.65772352827891       -0.74269207249092
C           -2.60382914001291       -0.77102898894128       -0.65213737871257
C           -3.31781088370637        0.07758293052425        0.20789094165018
C           -2.62142383875445        1.02726073347325        0.96263501150394
Cl          -3.46477266519555        2.09910078639591        2.03717627865998
Cl          -5.03453754058159       -0.04998150897694        0.33074930999153
Cl          -3.44167387756051       -1.95110542969338       -1.59411833408253
Cl          -0.31419008380799       -1.69676378035575       -1.80094947532187
C            0.94559388819110        0.42249705043045       -0.07207818956774
C            1.54244167992228        1.30475673084383       -0.97448525963754
C            2.91900560698566        1.43600588363786       -1.07412566555165
C            3.73211997830912        0.66755211798143       -0.25215593177634
C            3.18271060157375       -0.23003974349784        0.67053530698576
C            1.78818996411510       -0.33886044082438        0.74614489722865
Cl           1.07089859105892       -1.45082005272992        1.86687210296165
Cl           4.20087012040912       -1.18264168944767        1.68768973235377
Cl           5.45225427174904        0.84492663117789       -0.39597340606962
Cl           0.53728082020427        2.26481481725708       -2.02685763502392
H           -0.71689141572492        1.87040539711203        1.45722643099474
H            3.35911629739080        2.12393559744087       -1.78392395644754
