19
 energy: -310.997947066993 gnorm: 0.001929849195 xtb: 6.7.1 (edcfbbe)
C            2.39407375283560       -0.67482400201425       -0.01383609048745
C            1.09424908558453       -0.08667456010896        0.49703652822890
H            1.11118374487979       -0.06252423344393        1.60012777019967
C            0.76081153369637        1.30993451825250       -0.03370242764668
C           -0.76464918905103        1.31327851319387        0.03167533202557
C           -1.09896749262292       -0.11714718767256       -0.39726935355168
H           -1.11020240355421       -0.17443476103668       -1.49942399834707
O           -0.00559355532037       -0.92359446925112        0.08477843434818
C           -2.40347307013298       -0.66297932835327        0.14904710104697
H            2.38792463893372       -0.71329755849229       -1.10755105069204
H            3.24149878725801       -0.06300375921924        0.31378747967324
H            2.53463931524433       -1.69019489453103        0.36659399003311
H            1.22991187561729        2.10336928526151        0.55476719662116
H            1.10007627068166        1.40451719170125       -1.07278666398401
H           -1.10418093578747        1.48084491463847        1.06135265722395
H           -1.23305980891276        2.06334835845519       -0.61159843534882
H           -3.24866144993956       -0.07655801772740       -0.22693369804762
H           -2.40128192852339       -0.61893254243467        1.24265084561575
H           -2.54377044972152       -1.70389152206700       -0.15480511372702
19
 energy: -310.997951184313 gnorm: 0.000707008547 xtb: 6.7.1 (edcfbbe)
C            2.39433911940065       -0.67468524540708       -0.01379741414899
C            1.09498809896495       -0.08587842418184        0.49720870300248
H            1.11133978836846       -0.06239643254445        1.60024201885440
C            0.76089762308158        1.31002171728869       -0.03372729578902
C           -0.76467279452691        1.31356776445916        0.03209788298750
C           -1.09998676453582       -0.11645087281174       -0.39659585760311
H           -1.10963652847129       -0.17435942470897       -1.49857114016199
O           -0.00531306301417       -0.92381147150152        0.08455918446912
C           -2.40372637197530       -0.66320427611250        0.14902727466078
H            2.38705591826865       -0.71333394003267       -1.10759171119734
H            3.24313101863804       -0.06416241127061        0.31277659697504
H            2.53389084596537       -1.69017508161362        0.36672652089165
H            1.22978896015159        2.10353317956805        0.55481620019930
H            1.10045906392900        1.40464941522576       -1.07277682418994
H           -1.10497663825740        1.48184644792937        1.06150180517935
H           -1.23233932425452        2.06332689756314       -0.61219537595778
H           -3.24924259694070       -0.07735275551087       -0.22730112232843
H           -2.40250582138394       -0.61979821988725        1.24262667420672
H           -2.54296181276199       -1.70410086814398       -0.15511564777566
19
 energy: -310.997951184313 gnorm: 0.000707008547 xtb: 6.7.1 (edcfbbe)
C            2.39433911940065       -0.67468524540708       -0.01379741414899
C            1.09498809896495       -0.08587842418184        0.49720870300248
H            1.11133978836846       -0.06239643254445        1.60024201885440
C            0.76089762308158        1.31002171728869       -0.03372729578902
C           -0.76467279452691        1.31356776445916        0.03209788298750
C           -1.09998676453582       -0.11645087281174       -0.39659585760311
H           -1.10963652847129       -0.17435942470897       -1.49857114016199
O           -0.00531306301417       -0.92381147150152        0.08455918446912
C           -2.40372637197530       -0.66320427611250        0.14902727466078
H            2.38705591826865       -0.71333394003267       -1.10759171119734
H            3.24313101863804       -0.06416241127061        0.31277659697504
H            2.53389084596537       -1.69017508161362        0.36672652089165
H            1.22978896015159        2.10353317956805        0.55481620019930
H            1.10045906392900        1.40464941522576       -1.07277682418994
H           -1.10497663825740        1.48184644792937        1.06150180517935
H           -1.23233932425452        2.06332689756314       -0.61219537595778
H           -3.24924259694070       -0.07735275551087       -0.22730112232843
H           -2.40250582138394       -0.61979821988725        1.24262667420672
H           -2.54296181276199       -1.70410086814398       -0.15511564777566
