19
 energy: -310.996846599679 gnorm: 0.029076335686 xtb: 6.7.1 (edcfbbe)
C            2.39612988546179       -0.65694257719111       -0.10376495464598
C            1.08086917687896       -0.12220983475415        0.44773148009840
H            1.10535772558981       -0.17176541627611        1.54926692108652
C            0.76292228503807        1.30947204918026       -0.00024019860011
C           -0.76129148143735        1.31134539678109       -0.00193627740086
C           -1.08399610398035       -0.11978565965308       -0.44910919939901
H           -1.11904667089588       -0.16845518587465       -1.55025379868696
O            0.00031322060014       -0.92753987021102       -0.00706274870313
C           -2.39495604456127       -0.65345887548956        0.11395584615050
H            3.22303492972821       -0.04817736622135        0.25288596981206
H            2.54151558692621       -1.68315789914585        0.22142833899812
H            2.37893745385417       -0.63861015328299       -1.19072666642764
H            1.19367243602895        2.05419329041027        0.66533028559483
H            1.14372798440682        1.47279916545264       -1.00990596314752
H           -1.14140598790579        1.47677034025440        1.00764820754652
H           -1.19017678992740        2.05681168671143       -0.66788347089596
H           -2.54328418312700       -1.67998733664445       -0.20918155869269
H           -3.22465871092893       -0.04469160361980       -0.23638878910475
H           -2.36880524044968       -0.63417997508102        1.20080600623211
19
 energy: -310.997628686075 gnorm: 0.012519464586 xtb: 6.7.1 (edcfbbe)
C            2.39759421248965       -0.66464423308880       -0.09762345506645
C            1.09011790751669       -0.11561236354267        0.45001903898236
H            1.11416715624232       -0.15631261551722        1.55264421656454
C            0.76429377890535        1.31181047278730       -0.00408840925415
C           -0.76252538351332        1.31363379267293        0.00175407240585
C           -1.09329975466575       -0.11336796436444       -0.45134238698737
H           -1.12773543757361       -0.15319416157606       -1.55355658190746
O            0.00037914545395       -0.92349162278172       -0.00705510727828
C           -2.39655523386291       -0.66131211779265        0.10784106819890
H            3.23469272968365       -0.05699208375740        0.25576949937012
H            2.54996077760365       -1.69561309684841        0.22767585546219
H            2.37955558161367       -0.64440682588868       -1.19033427380281
H            1.20342230704782        2.06236352770363        0.65648699105938
H            1.14730728751513        1.47341629755167       -1.01750096274122
H           -1.14476477966194        1.47749576907940        1.01508365007694
H           -1.19982657438499        2.06490932774299       -0.65918967215716
H           -2.55213100566849       -1.69240571726594       -0.21557453715745
H           -3.23635829427306       -0.05342151826703       -0.23879490497295
H           -2.36943465723544       -0.64042488094564        1.20038580366887
19
 energy: -310.997825108453 gnorm: 0.003878403072 xtb: 6.7.1 (edcfbbe)
C            2.39698997498353       -0.66690825847629       -0.09323936044056
C            1.09430196378923       -0.11173493371687        0.45085272555087
H            1.11379123300908       -0.14593147898572        1.55402754049290
C            0.76473430433208        1.31207521304728       -0.01024479846416
C           -0.76297427369193        1.31392163694729        0.00778592308243
C           -1.09745621239013       -0.10962252626305       -0.45210671006762
H           -1.12718203613568       -0.14309196577877       -1.55489606024040
O            0.00043149107908       -0.92750473714019       -0.00696028206139
C           -2.39599398070557       -0.66364487100775        0.10347679242928
H            3.24243039898446       -0.06382732088752        0.25792627482313
H            2.54934779900714       -1.69927963895801        0.23529069644158
H            2.38289374199706       -0.65008790736333       -1.18854791789264
H            1.20942138506333        2.07053213412784        0.64141920565440
H            1.14229426670779        1.47143529597073       -1.02829368803296
H           -1.13969253061047        1.47565524857284        1.02575906173746
H           -1.20590115531293        2.07299817841735       -0.64431545225982
H           -2.55191378978524       -1.69594832811391       -0.22354392696631
H           -3.24403949176559       -0.05998473182398       -0.24042927574610
H           -2.37262298589276       -0.64662121087502        1.19863976676412
19
 energy: -310.997878810121 gnorm: 0.002364855669 xtb: 6.7.1 (edcfbbe)
C            2.39736602510688       -0.66765785107272       -0.09035540806049
C            1.09644208372636       -0.10853924926442        0.44975836469307
H            1.11198983009990       -0.13958615650990        1.55280051059577
C            0.76464132488956        1.31242185569084       -0.01538585670492
C           -0.76287470741224        1.31424838812281        0.01284626681766
C           -1.09956913158759       -0.10650818175728       -0.45093655518419
H           -1.12521680395204       -0.13696060174097       -1.55362822303951
O            0.00042256759286       -0.92820065297621       -0.00680006817866
C           -2.39639904611371       -0.66444639453117        0.10060396515392
H            3.24545599352856       -0.06779374569726        0.26038769865680
H            2.54579716964800       -1.69966184138504        0.24106611363108
H            2.38602189145418       -0.65422798614366       -1.18561519473643
H            1.21382698359971        2.07471075744272        0.62899377184392
H            1.13458504642488        1.46721477273388       -1.03711173058952
H           -1.13199434176585        1.47147009607949        1.03448789763620
H           -1.21033632571182        2.07706266023222       -0.63206368622510
H           -2.54868439831026       -1.69624886776527       -0.22965050555916
H           -3.24700535649708       -0.06370006355538       -0.24254255027572
H           -2.37560841804909       -0.65116729597485        1.19574620507089
19
 energy: -310.997924002994 gnorm: 0.002981094882 xtb: 6.7.1 (edcfbbe)
C            2.39790139829812       -0.66847704914654       -0.08622659621325
C            1.09809032398236       -0.10401381949216        0.44793531767129
H            1.10903805158747       -0.13030536199397        1.55076237969427
C            0.76432400134451        1.31282739702811       -0.02389475872669
C           -0.76259848999221        1.31461080627523        0.02125782724902
C           -1.10112080104460       -0.10210822754936       -0.44898041438942
H           -1.12189540725349       -0.12804538206689       -1.55150445900669
O            0.00040289717725       -0.92767860280039       -0.00646363821792
C           -2.39696881925772       -0.66530130515581        0.09645758483441
H            3.24730657952903       -0.07210978688543        0.26521639349578
H            2.53939702044364       -1.69944868807109        0.24979758602019
H            2.39061966112255       -0.66001395688725       -1.18086758934457
H            1.22108186222155        2.07989424916550        0.60887091193375
H            1.12114147855184        1.45862413599704       -1.05146805111211
H           -1.11863235805870        1.46292388274483        1.04873227276506
H           -1.21769106953616        2.08206447449899       -0.61218714709736
H           -2.54274959173244       -1.69587566794096       -0.23893005324159
H           -3.24877182706124       -0.06760643206880       -0.24692850047600
H           -2.38001407336127       -0.65753125645868        1.19102273395236
19
 energy: -310.997944698126 gnorm: 0.002557711441 xtb: 6.7.1 (edcfbbe)
C            2.39839525876626       -0.66911149797345       -0.08335198888200
C            1.09814662854466       -0.10143008310175        0.44651654647422
H            1.10755067171544       -0.12369255235521        1.54936084211862
C            0.76403661310383        1.31311143635868       -0.02988485901815
C           -0.76233159284696        1.31484095500447        0.02720576926435
C           -1.10108265527575       -0.09962979243163       -0.44743091046897
H           -1.12001220093375       -0.12173647636070       -1.54999335057832
O            0.00037267087100       -0.92623158562028       -0.00613282877727
C           -2.39751451681714       -0.66596282268252        0.09352246539361
H            3.24746000397520       -0.07395989710247        0.26930133224952
H            2.53557100694277       -1.69932224282785        0.25575025248986
H            2.39374718173981       -0.66363152450957       -1.17760954512735
H            1.22676248087992        2.08312111463617        0.59432060359224
H            1.11118673553290        1.45147314090261       -1.06159514855725
H           -1.10874203178792        1.45579669991887        1.05880267753650
H           -1.22344368043935        2.08513965842937       -0.59778973528907
H           -2.53926913725394       -1.69564238904788       -0.24530038453992
H           -3.24887663221698       -0.06916832136510       -0.25081586037289
H           -2.38309563566792       -0.66153457974808        1.18772646298751
19
 energy: -310.997956216527 gnorm: 0.001307197323 xtb: 6.7.1 (edcfbbe)
C            2.39888174724300       -0.66977637742780       -0.08102875138827
C            1.09764323331861       -0.09982939979396        0.44532959602387
H            1.10680695232400       -0.11812636148462        1.54839484460544
C            0.76374148136578        1.31331073952810       -0.03481389350223
C           -0.76206920286411        1.31498730178538        0.03213497303456
C           -1.10045231659309       -0.09814467414585       -0.44607716688611
H           -1.11874920459614       -0.11649407538595       -1.54887281694992
O            0.00033795542174       -0.92415046950311       -0.00572860216319
C           -2.39807061344357       -0.66663903436041        0.09108491137206
H            3.24705086048446       -0.07462063939630        0.27311712293419
H            2.53354789652300       -1.69943106209913        0.26050944202075
H            2.39660680285685       -0.66633831251356       -1.17523636358776
H            1.23197451889068        2.08552402155234        0.58201159931975
H            1.10288136761239        1.44508148076936       -1.06988974631658
H           -1.10050762310299        1.44943456120878        1.06708602516395
H           -1.22875249610502        2.08739770426471       -0.58558161735032
H           -2.53753412940934       -1.69565166552907       -0.25045784322309
H           -3.24841621798619       -0.06957728988279       -0.25463433041701
H           -2.38605955196664       -0.66452736164933        1.18525538449375
19
 energy: -310.997958062963 gnorm: 0.000536080166 xtb: 6.7.1 (edcfbbe)
C            2.39890988118627       -0.66997319338519       -0.08065318482330
C            1.09700762526359       -0.10014761024247        0.44513641166134
H            1.10739504091598       -0.11715931270319        1.54842792176985
C            0.76362104200937        1.31333024212337       -0.03567905579108
C           -0.76195435897582        1.31497566113864        0.03306641466067
C           -1.09972447476845       -0.09853525272906       -0.44573642506633
H           -1.11892452516604       -0.11571951247158       -1.54875396372375
O            0.00030155975617       -0.92327511542086       -0.00541304090754
C           -2.39816865932436       -0.66683544239085        0.09056561996005
H            3.24646329410345       -0.07383329726290        0.27413158950138
H            2.53457942993349       -1.69958893290452        0.26117108333375
H            2.39749103096547       -0.66652270101326       -1.17508560265222
H            1.23346968468031        2.08581043613006        0.57944448617645
H            1.10146105949465        1.44358776476546       -1.07127314180014
H           -1.09911489004959        1.44794584553421        1.06853254304146
H           -1.23029283151770        2.08760388289748       -0.58299181175665
H           -2.53863533778206       -1.69579253682525       -0.25128750251623
H           -3.24778959029310       -0.06873048526260       -0.25596585645886
H           -2.38723344899562       -0.66471140191944        1.18496632699779
19
 energy: -310.997958062963 gnorm: 0.000536080166 xtb: 6.7.1 (edcfbbe)
C            2.39890988118627       -0.66997319338519       -0.08065318482330
C            1.09700762526359       -0.10014761024247        0.44513641166134
H            1.10739504091598       -0.11715931270319        1.54842792176985
C            0.76362104200937        1.31333024212337       -0.03567905579108
C           -0.76195435897582        1.31497566113864        0.03306641466067
C           -1.09972447476845       -0.09853525272906       -0.44573642506633
H           -1.11892452516604       -0.11571951247158       -1.54875396372375
O            0.00030155975617       -0.92327511542086       -0.00541304090754
C           -2.39816865932436       -0.66683544239085        0.09056561996005
H            3.24646329410345       -0.07383329726290        0.27413158950138
H            2.53457942993349       -1.69958893290452        0.26117108333375
H            2.39749103096547       -0.66652270101326       -1.17508560265222
H            1.23346968468031        2.08581043613006        0.57944448617645
H            1.10146105949465        1.44358776476546       -1.07127314180014
H           -1.09911489004959        1.44794584553421        1.06853254304146
H           -1.23029283151770        2.08760388289748       -0.58299181175665
H           -2.53863533778206       -1.69579253682525       -0.25128750251623
H           -3.24778959029310       -0.06873048526260       -0.25596585645886
H           -2.38723344899562       -0.66471140191944        1.18496632699779
