      -----------------------------------------------------------      
     |                   =====================                   |     
     |                           x T B                           |     
     |                   =====================                   |     
     |                         S. Grimme                         |     
     |          Mulliken Center for Theoretical Chemistry        |     
     |                    University of Bonn                     |     
      -----------------------------------------------------------      

   * xtb version 6.7.1 (edcfbbe) compiled by 'albert@albert-system' on 2024-07-22

   xtb is free software: you can redistribute it and/or modify it under
   the terms of the GNU Lesser General Public License as published by
   the Free Software Foundation, either version 3 of the License, or
   (at your option) any later version.
   
   xtb is distributed in the hope that it will be useful,
   but WITHOUT ANY WARRANTY; without even the implied warranty of
   MERCHANTABILITY or FITNESS FOR A PARTICULAR PURPOSE.  See the
   GNU Lesser General Public License for more details.
   
   Cite this work as:
   * C. Bannwarth, E. Caldeweyher, S. Ehlert, A. Hansen, P. Pracht,
     J. Seibert, S. Spicher, S. Grimme, WIREs Comput. Mol. Sci., 2020, 11,
     e01493. DOI: 10.1002/wcms.1493
   
   for GFN2-xTB:
   * C. Bannwarth, S. Ehlert and S. Grimme., J. Chem. Theory Comput., 2019,
     15, 1652-1671. DOI: 10.1021/acs.jctc.8b01176
   for GFN1-xTB:
   * S. Grimme, C. Bannwarth, P. Shushkov, J. Chem. Theory Comput., 2017,
     13, 1989-2009. DOI: 10.1021/acs.jctc.7b00118
   for GFN0-xTB:
   * P. Pracht, E. Caldeweyher, S. Ehlert, S. Grimme, ChemRxiv, 2019, preprint.
     DOI: 10.26434/chemrxiv.8326202.v1
   for GFN-FF:
   * S. Spicher and S. Grimme, Angew. Chem. Int. Ed., 2020, 59, 15665-15673.
     DOI: 10.1002/anie.202004239
   
   for ALPB and GBSA implicit solvation:
   * S. Ehlert, M. Stahn, S. Spicher, S. Grimme, J. Chem. Theory Comput.,
     2021, 17, 4250-4261. DOI: 10.1021/acs.jctc.1c00471
   
   for ddCOSMO and CPCM-X implicit solvation:
   * M. Stahn, S. Ehlert, S. Grimme, J. Phys. Chem. A,
     2023, XX, XXXX-XXXX. DOI: 10.1021/acs.jpca.3c04382
   
   for DFT-D4:
   * E. Caldeweyher, C. Bannwarth and S. Grimme, J. Chem. Phys., 2017,
     147, 034112. DOI: 10.1063/1.4993215
   * E. Caldeweyher, S. Ehlert, A. Hansen, H. Neugebauer, S. Spicher,
     C. Bannwarth and S. Grimme, J. Chem. Phys., 2019, 150, 154122.
     DOI: 10.1063/1.5090222
   * E. Caldeweyher, J.-M. Mewes, S. Ehlert and S. Grimme, Phys. Chem. Chem. Phys.
     2020, 22, 8499-8512. DOI: 10.1039/D0CP00502A
   
   for sTDA-xTB:
   * S. Grimme and C. Bannwarth, J. Chem. Phys., 2016, 145, 054103.
     DOI: 10.1063/1.4959605
   
   in the mass-spec context:
   * V. Asgeirsson, C. Bauer and S. Grimme, Chem. Sci., 2017, 8, 4879.
     DOI: 10.1039/c7sc00601b
   * J. Koopman and S. Grimme, ACS Omega 2019, 4, 12, 15120-15133.
     DOI: 10.1021/acsomega.9b02011
   
   for metadynamics refer to:
   * S. Grimme, J. Chem. Theory Comput., 2019, 155, 2847-2862
     DOI: 10.1021/acs.jctc.9b00143
   
   for SPH calculations refer to:
   * S. Spicher and S. Grimme, J. Chem. Theory Comput., 2021, 17, 1701-1714
     DOI: 10.1021/acs.jctc.0c01306
   
   for ONIOM refer to:
   * C. Plett, A. Katbashev, S. Ehlert, S. Grimme, M. Bursch,
     Phys. Chem. Chem. Phys., 2023, 25, 17860-17868. DOI: 10.1039/D3CP02178E
   
   for DIPRO refer to:
   * J. Kohn, N. Gildemeister, S. Grimme, D. Fazzi, A. Hansen,
     J. Chem. Phys., 2023, just accepted.
   
   for PTB refer to:
   * S. Grimme, M. Mueller, A. Hansen, J. Chem. Phys., 2023, 158, 124111.
     DOI: 10.1063/5.0137838
   
   with help from (in alphabetical order)
   P. Atkinson, C. Bannwarth, F. Bohle, G. Brandenburg, E. Caldeweyher
   M. Checinski, S. Dohm, S. Ehlert, S. Ehrlich, I. Gerasimov, C. Hölzer
   A. Katbashev, J. Kohn, J. Koopman, C. Lavigne, S. Lehtola, F. März, M. Müller,
   F. Musil, H. Neugebauer, J. Pisarek, C. Plett, P. Pracht, F. Pultar,
   J. Seibert, P. Shushkov, S. Spicher, M. Stahn, M. Steiner, T. Strunk,
   J. Stückrath, T. Rose, and J. Unsleber
   
 * started run on 2025/04/15 at 19:30:49.071     
   ID    Z sym.   atoms
    1    6 C      1-3, 5
    2    1 H      4, 7-15
    3    8 O      6

           -------------------------------------------------
          |                Calculation Setup                |
           -------------------------------------------------

          program call               : /software/projects/pawsey0265/mwang1/xtb/bin/xtb xtb_opt.coord --opt normal --orca -I xtb_opt-xcontrol-inp
          hostname                   : nid002800
          coordinate file            : xtb_opt.coord
          omp threads                :                    36

           -------------------------------------------------
          |                   Orca driver                   |
           -------------------------------------------------
orca executable           : /software/projects/pawsey0265/mwang1/orca_avx2/orca
orca input file           : xtb_opt.inp
orca input line           : 
orca parallel             : true
orca number of threads    : 36
                         * ORCA takes the control...
  ------------------------------------------------------------------------

                                 *****************
                                 * O   R   C   A *
                                 *****************

                                            #,                                       
                                            ###                                      
                                            ####                                     
                                            #####                                    
                                            ######                                   
                                           ########,                                 
                                     ,,################,,,,,                         
                               ,,#################################,,                 
                          ,,##########################################,,             
                       ,#########################################, ''#####,          
                    ,#############################################,,   '####,        
                  ,##################################################,,,,####,       
                ,###########''''           ''''###############################       
              ,#####''   ,,,,##########,,,,          '''####'''          '####       
            ,##' ,,,,###########################,,,                        '##       
           ' ,,###''''                  '''############,,,                           
         ,,##''                                '''############,,,,        ,,,,,,###''
      ,#''                                            '''#######################'''  
     '                                                          ''''####''''         
             ,#######,   #######,   ,#######,      ##                                
            ,#'     '#,  ##    ##  ,#'     '#,    #''#        ,####,   ,####,        
            ##       ##  ##   ,#'  ##            #'  '#       #'       #'  '#        
            ##       ##  #######   ##           ,######,      #####,   #    #        
            '#,     ,#'  ##    ##  '#,     ,#' ,#      #,     #,   #   #,  ,#        
             '#######'   ##     ##  '#######'  #'      '#     '####' # '####'        



                #########################################################
                #                        -***-                          #
                #          Department of theory and spectroscopy        #
                #                                                       #
                #                      Frank Neese                      #
                #                                                       #
                #     Directorship, Architecture, Infrastructure        #
                #                    SHARK, DRIVERS                     #
                #        Core code/Algorithms in most modules           #
                #                                                       #
                #        Max Planck Institute fuer Kohlenforschung      #
                #                Kaiser Wilhelm Platz 1                 #
                #                 D-45470 Muelheim/Ruhr                 #
                #                      Germany                          #
                #                                                       #
                #                  All rights reserved                  #
                #                        -***-                          #
                #########################################################


                         Program Version 6.0.1  -  RELEASE   -


 With contributions from (in alphabetic order):
[Max-Planck-Institut fuer Kohlenforschung]                               
  Daniel Aravena         : Magnetic Suceptibility                        
  Michael Atanasov       : Ab Initio Ligand Field Theory (pilot matlab implementation)
  Alexander A. Auer      : GIAO ZORA, VPT2 properties, NMR spectrum      
  Ute Becker             : All parallelization in ORCA, NUMFREQ, NUMCALC 
  Giovanni Bistoni       : ED, misc. LED, open-shell LED, HFLD           
  Martin Brehm           : Molecular dynamics                            
  Dmytro Bykov           : pre 5.0 version of the SCF Hessian            
  Marcos Casanova-Páez   : Triplet and SCS-CIS(D). UHF-(DLPNO)-IP/EA/STEOM-CCSD. UHF-CVS-IP/STEOM-CCSD   
  Vijay G. Chilkuri      : MRCI spin determinant printing, contributions to CSF-ICE 
  Pauline Colinet        : FMM embedding                                 
  Dipayan Datta          : RHF DLPNO-CCSD density                        
  Achintya Kumar Dutta   : EOM-CC, STEOM-CC                              
  Nicolas Foglia         : Exact transition moments, OPA infrastructure, MCD improvements    
  Dmitry Ganyushin       : Spin-Orbit,Spin-Spin,Magnetic field MRCI      
  Miquel Garcia-Rates    : C-PCM and meta-GGA Hessian, CCSD/C-PCM, Gaussian charge scheme 
  Tiago L. C. Gouveia    : GS-ROHF, GS-ROCIS                             
  Yang Guo               : DLPNO-NEVPT2, F12-NEVPT2, CIM, IAO-localization        
  Andreas Hansen         : Spin unrestricted coupled pair/coupled cluster methods 
  Ingolf Harden          : AUTO-CI MPn and infrastructure                
  Benjamin Helmich-Paris : MC-RPA, TRAH-(SCF,CASSCF), AVAS, COSX integrals, SCF dyn. polar. 
  Lee Huntington         : MR-EOM, pCC                                   
  Robert Izsak           : Overlap fitted RIJCOSX, COSX-SCS-MP3, EOM     
  Riya Kayal             : Wick's Theorem for AUTO-CI, AUTO-CI UHF-CCSDT 
  Emily Kempfer          : AUTO-CI, RHF CISDT and CCSDT                  
  Christian Kollmar      : KDIIS, OOCD, Brueckner-CCSD(T), CCSD density, CASPT2, CASPT2-K, improved NEVPT2 
  Axel Koslowski         : Symmetry handling                             
  Simone Kossmann        : meta-GGA functionals, TD-DFT gradient, OOMP2, (MP2 Hessian; deprecated post 5.0) 
  Lucas Lang             : DCDCAS                                        
  Marvin Lechner         : AUTO-CI (C++ implementation), FIC-MRCC        
  Spencer Leger          : CASSCF response                               
  Dagmar Lenk            : GEPOL surface, SMD, ORCA-2-JSON               
  Dimitrios Liakos       : Extrapolation schemes; Compound Job, initial MDCI parallelization 
  Dimitrios Manganas     : Further ROCIS development; embedding schemes. LFT, Crystal Embedding 
  Dimitrios Pantazis     : SARC Basis sets                               
  Anastasios Papadopoulos: AUTO-CI, single reference methods and gradients 
  Taras Petrenko         : pre 6.0 DFT Hessian and TD-DFT gradient, (ASA, deprecated), ECA, 1-Electron XAS/XES, NRVS 
  Peter Pinski           : DLPNO-MP2, DLPNO-MP2 Gradient                 
  Christoph Reimann      : Effective Core Potentials                     
  Marius Retegan         : Local ZFS, SOC                                
  Christoph Riplinger    : Optimizer, TS searches, QM/MM, DLPNO-CCSD(T), (RO)-DLPNO pert. Triples 
  Michael Roemelt        : Original ROCIS implementation                 
  Masaaki Saitow         : Open-shell DLPNO-CCSD energy and density      
  Barbara Sandhoefer     : DKH picture change effects                    
  Kantharuban Sivalingam : CASSCF convergence/infrastructure, NEVPT2 and variants, FIC-MRCI 
  Bernardo de Souza      : ESD, SOC TD-DFT                               
  Georgi L. Stoychev     : AutoAux, RI-MP2 NMR, DLPNO-MP2 response, X2C  
  Van Anh Tran           : RI-MP2 g-tensors                              
  Willem Van den Heuvel  : Paramagnetic NMR                              
  Zikuan Wang            : NOTCH, Electric field optimization            
  Frank Wennmohs         : Technical directorship and infrastructure     
  Hang Xu                : AUTO-CI-Response properties                   
                                                                         
[FACCTs GmbH]                                                            
  Markus Bursch, Miquel Garcia-Rates, Christoph Riplinger, Bernardo de Souza, Georgi L. Stoychev 
                                                                 
  APM, Basis sets (HGBS, AHGBS, def-TZVP (Ac-Lr), def2-XVPD (La-Lu)), CI-OPT, improved COSX, DLPNO-Multilevel,           
  DOCKER, DRACO, updates on ESD, GOAT, IRC, LR-CPCM, MBIS, meta-GGA TD-DFT gradient, ML-optimized integration grids, 
  MM, NACMEs, nearIR, NEB, NEB-TS, NL-DFT gradient (VV10), 2- and 3-layer-ONIOM, interface openCOSMO-RS, QMMM,   
  Crystal-QMMM, SF, symmetry and pop. for TD-DFT, r2SCAN hybrids, SOLVATOR                                   
                                                                         
[Other institutions]                                                     
  V. Asgeirsson          : NEB                                           
  Christoph Bannwarth    : sTDA-DFT, sTD-DFT, PBEh-3c, B97-3c, D3        
  Sebastian Ehlert       : rSCAN, r2SCAN, r2SCAN-3c, D4, dhf basis sets  
  Marvin Friede          : D4 for Fr, Ra, Ac-Lr                          
  Lars Goerigk           : TD-DFT with DH, B97 family of functionals     
  Stefan Grimme          : VdW corrections, initial TS optimization, DFT functionals, gCP, sTDA/sTD-DF 
  Waldemar Hujo          : DFT-NL                                        
  H. Jonsson             : NEB                                           
  Holger Kruse           : gCP                                           
  Marcel Mueller         : wB97X-3c, vDZP basis set                      
  Hagen Neugebauer       : wr2SCAN                                       
  Tobias Risthaus        : range-separated hybrid DFT                    
  Lukas Wittmann         : regularized MP2, r2SCAN double-hybrids, wr2SCAN        
                                                                         
We gratefully acknowledge several colleagues who have allowed us to      
interface, adapt or use parts of their codes:                            
  Ed Valeev, F. Pavosevic, A. Kumar             : LibInt (2-el integral package), F12 methods 
  Garnet Chan, S. Sharma, J. Yang, R. Olivares  : DMRG                   
  Ulf Ekstrom                                   : XCFun DFT Library      
  Mihaly Kallay                                 : mrcc  (arbitrary order and MRCC methods)
  Frank Weinhold                                : gennbo (NPA and NBO analysis)           
  Simon Mueller                                 : openCOSMO-RS                            
  Christopher J. Cramer and Donald G. Truhlar   : smd solvation model                     
  S Lehtola, MJT Oliveira, MAL Marques          : LibXC Library                           
  Liviu Ungur et al                             : ANISO software                          


 Your calculation uses the libint2 library for the computation of 2-el integrals
 For citations please refer to: http://libint.valeyev.net

 Your ORCA version has been built with support for libXC version: 6.2.2
 For citations please refer to: https://libxc.gitlab.io

 This ORCA versions uses:
   CBLAS   interface :  Fast vector & matrix operations
   LAPACKE interface :  Fast linear algebra routines
   SCALAPACK package :  Parallel linear algebra routines
   Shared memory     :  Shared parallel matrices
   BLAS/LAPACK       :  OpenBLAS 0.3.27  USE64BITINT DYNAMIC_ARCH NO_AFFINITY Zen SINGLE_THREADED
        Core in use  :  Zen
   Copyright (c) 2011-2014, The OpenBLAS Project




***************************************
The coordinates will be read from file: xtb_opt.xyz
***************************************


Your calculation utilizes the geometrical counterpoise correction gCP
Please cite in your paper:
H.Kruse, S. Grimme J.Chem.Phys., 136, (2012), 154101 
   

Your calculation utilizes the atom-pairwise dispersion correction
based on EEQ partial charges (D4)


================================================================================

----- Orbital basis set information -----
Your calculation utilizes the basis: def2-mTZVPP
   Stefan Grimme, Andreas Hansen, Sebastian Ehlert, and Jan-Michael Mewes 
   J. Chem. Phys. 154, 064103 (2021). DOI: 10.1063/5.0040021

----- AuxJ basis set information -----
Your calculation utilizes the auxiliary basis: def2/J
   F. Weigend, Phys. Chem. Chem. Phys. 8, 1057 (2006).

================================================================================
                                        WARNINGS
                       Please study these warnings very carefully!
================================================================================



WARNING: SCAN, rSCAN, or r2SCAN functional requested.
  ===> : libXC variant has now been activated.



================================================================================
                                       INPUT FILE
================================================================================
NAME = xtb_opt.inp
|  1> ! r2scan-3c def2/J RI DEFGRID2 scfconv7 ENGRAD tightSCF miniprint
|  2> * xyzfile 0 1 xtb_opt.xyz
|  3> 
|  4>                          ****END OF INPUT****
================================================================================

                     *******************************
                     * Energy+Gradient Calculation *
                     *******************************

---------------------------------
CARTESIAN COORDINATES (ANGSTROEM)
---------------------------------
  C      1.686252    0.396187    0.628461
  C      0.893226    0.369894   -0.672518
  C     -0.566327   -0.059982   -0.485622
  H     -1.058283   -0.016880   -1.474613
  C     -1.335843    0.847082    0.474797
  O     -0.560151   -1.401315   -0.033061
  H      2.741144    0.554319    0.417566
  H      1.573233   -0.553649    1.143698
  H      1.346182    1.196271    1.280915
  H      1.355721   -0.345191   -1.354820
  H      0.909395    1.353344   -1.145840
  H     -2.392752    0.582922    0.479486
  H     -0.949428    0.738595    1.484665
  H     -1.242005    1.884864    0.167188
  H     -1.462758   -1.659164    0.180594

----------------------------
CARTESIAN COORDINATES (A.U.)
----------------------------
  NO LB      ZA    FRAG     MASS         X           Y           Z
   0 C     6.0000    0    12.011    3.186555    0.748685    1.187619
   1 C     6.0000    0    12.011    1.687953    0.698998   -1.270875
   2 C     6.0000    0    12.011   -1.070203   -0.113350   -0.917694
   3 H     1.0000    0     1.008   -1.999864   -0.031899   -2.786614
   4 C     6.0000    0    12.011   -2.524378    1.600754    0.897236
   5 O     8.0000    0    15.999   -1.058532   -2.648101   -0.062477
   6 H     1.0000    0     1.008    5.180012    1.047511    0.789085
   7 H     1.0000    0     1.008    2.972979   -1.046244    2.161276
   8 H     1.0000    0     1.008    2.543915    2.260624    2.420578
   9 H     1.0000    0     1.008    2.561941   -0.652316   -2.560240
  10 H     1.0000    0     1.008    1.718507    2.557450   -2.165323
  11 H     1.0000    0     1.008   -4.521646    1.101564    0.906098
  12 H     1.0000    0     1.008   -1.794158    1.395742    2.805610
  13 H     1.0000    0     1.008   -2.347049    3.561877    0.315940
  14 H     1.0000    0     1.008   -2.764211   -3.135365    0.341273

------------------------------------------------------------------------------
                   ___                                                        
                  /   \      - P O W E R E D   B Y -                         
                 /     \                                                     
                 |  |  |   _    _      __       _____    __    __             
                 |  |  |  | |  | |    /  \     |  _  \  |  |  /  |          
                  \  \/   | |  | |   /    \    | | | |  |  | /  /          
                 / \  \   | |__| |  /  /\  \   | |_| |  |  |/  /          
                |  |  |   |  __  | /  /__\  \  |    /   |      \           
                |  |  |   | |  | | |   __   |  |    \   |  |\   \          
                \     /   | |  | | |  |  |  |  | |\  \  |  | \   \       
                 \___/    |_|  |_| |__|  |__|  |_| \__\ |__|  \__/        
                                                                              
                      - O R C A' S   B I G   F R I E N D -                    
                                      &                                       
                       - I N T E G R A L  F E E D E R -                       
                                                                              
 v1 FN, 2020, v2 2021, v3 2022-2024                                           
------------------------------------------------------------------------------


----------------------
SHARK INTEGRAL PACKAGE
----------------------

Number of atoms                             ...     15
Number of basis functions                   ...    150
Number of shells                            ...     76
Maximum angular momentum                    ...      2
Integral batch strategy                     ... SHARK/LIBINT Hybrid
RI-J (if used) integral strategy            ... SPLIT-RIJ (Revised 2003 algorithm where possible)
Printlevel                                  ...      1
Contraction scheme used                     ... SEGMENTED contraction
Prescreening option                         ... SCHWARTZ
   Thresh                                   ... 3.000e-11
   Tcut                                     ... 1.000e-12
   Tpresel                                  ... 1.000e-12 
Coulomb Range Separation                    ... NOT USED
Exchange Range Separation                   ... NOT USED
Multipole approximations                    ... NOT USED
Finite Nucleus Model                        ... NOT USED
CABS basis                                  ... NOT available
Auxiliary Coulomb fitting basis             ... AVAILABLE
   # of basis functions in Aux-J            ...    355
   # of shells in Aux-J                     ...    125
   Maximum angular momentum in Aux-J        ...      4
Auxiliary J/K fitting basis                 ... NOT available
Auxiliary Correlation fitting basis         ... NOT available
Auxiliary 'external' fitting basis          ... NOT available

Checking pre-screening integrals            ... done (  0.0 sec) Dimension = 76
Check shell pair data                       ... done (  0.0 sec)
Shell pair information
Shell pair cut-off parameter TPreSel        ...   1.0e-12
Total number of shell pairs                 ...      2926
Shell pairs after pre-screening             ...      2845
Total number of primitive shell pairs       ...     10151
Primitive shell pairs kept                  ...      7578
          la=0 lb=0:    992 shell pairs
          la=1 lb=0:   1093 shell pairs
          la=1 lb=1:    320 shell pairs
          la=2 lb=0:    269 shell pairs
          la=2 lb=1:    150 shell pairs
          la=2 lb=2:     21 shell pairs

Calculating one electron integrals          ... done (  0.0 sec)
Calculating RI/J V-Matrix + Cholesky decomp.... done (  0.0 sec)
Calculating Nuclear repulsion               ... done (  0.0 sec) ENN=    196.065154961843 Eh

Diagonalization of the overlap matrix:
Smallest eigenvalue                        ... 2.507e-04
Time for diagonalization                   ...    0.002 sec
Threshold for overlap eigenvalues          ... 1.000e-07
Number of eigenvalues below threshold      ... 0
Time for construction of square roots      ...    0.003 sec
Total time needed                          ...    0.006 sec

-------------------
DFT GRID GENERATION
-------------------

General Integration Accuracy     IntAcc      ... 4.388
Radial Grid Type                 RadialGrid  ... OptM3 with GC (2021)
Angular Grid (max. ang.)         AngularGrid ... 4 (Lebedev-302)
Angular grid pruning method      GridPruning ... 4 (adaptive)
Weight generation scheme         WeightScheme... mBecke (2022)
Basis function cutoff            BFCut       ... 1.0000e-11
Integration weight cutoff        WCut        ... 1.0000e-14
Partially contracted basis set               ... off
Rotationally invariant grid construction     ... off
Angular grids for H and He will be reduced by one unit
Diffuse basis detected: some atoms will have their outermost
                        angular grid increased by 1.

Total number of grid points                  ...    62591
Total number of batches                      ...      985
Average number of points per batch           ...       63
Average number of grid points per atom       ...     4173
Initializing property integral containers    ... done (  0.0 sec)

SHARK setup successfully completed in   0.6 seconds

Maximum memory used throughout the entire STARTUP-calculation: 27.5 MB
Occupation numbers will be reassigned to an Aufbau configuration
             **** ENERGY FILE WAS UPDATED (xtb_opt.en.tmp) ****
Finished Guess after   0.1 sec
Maximum memory used throughout the entire GUESS-calculation: 10.9 MB
----------------------------------------D-I-I-S--------------------------------------------
Iteration    Energy (Eh)           Delta-E    RMSDP     MaxDP     DIISErr   Damp  Time(sec)
-------------------------------------------------------------------------------------------
               ***  Starting incremental Fock matrix formation  ***
                              *** Initializing SOSCF ***
---------------------------------------S-O-S-C-F--------------------------------------
Iteration    Energy (Eh)           Delta-E    RMSDP     MaxDP     MaxGrad    Time(sec)
--------------------------------------------------------------------------------------
    1    -233.6082976281900301     0.00e+00  6.15e-06  1.01e-04  1.14e-05     1.0
               *** Restarting incremental Fock matrix formation ***
    2    -233.6082976337158357    -5.53e-09  8.80e-06  1.73e-04  3.76e-05     1.0
    3    -233.6082975242482007     1.09e-07  6.52e-06  1.48e-04  7.11e-05     0.8
    4    -233.6082976944721850    -1.70e-07  9.41e-07  1.38e-05  5.55e-06     0.8
                  *** Gradient check signals convergence ***

               *****************************************************
               *                     SUCCESS                       *
               *           SCF CONVERGED AFTER   4 CYCLES          *
               *****************************************************

             **** ENERGY FILE WAS UPDATED (xtb_opt.en.tmp) ****

----------------
TOTAL SCF ENERGY
----------------

Total Energy       :       -233.60829769447218 Eh           -6356.80495 eV

Components:
Nuclear Repulsion  :        196.06515496184340 Eh            5335.20410 eV
Electronic Energy  :       -429.67345265631559 Eh          -11692.00906 eV
One Electron Energy:       -704.12783070688704 Eh          -19160.29236 eV
Two Electron Energy:        274.45437805057145 Eh            7468.28331 eV

Virial components:
Potential Energy   :       -466.18785115188956 Eh          -12685.61635 eV
Kinetic Energy     :        232.57955345741738 Eh            6328.81140 eV
Virial Ratio       :          2.00442319293232

DFT components:
N(Alpha)           :       21.000042558070 electrons
N(Beta)            :       21.000042558070 electrons
N(Total)           :       42.000085116140 electrons
E(X)               :      -32.661211166465 Eh       
E(C)               :       -1.312473978645 Eh       
E(XC)              :      -33.973685145109 Eh       

---------------
SCF CONVERGENCE
---------------

  Last Energy change         ...    1.7022e-07  Tolerance :   1.0000e-07
  Last MAX-Density change    ...    1.3821e-05  Tolerance :   1.0000e-07
  Last RMS-Density change    ...    9.4091e-07  Tolerance :   5.0000e-09
  Last DIIS Error            ...    1.7077e-04  Tolerance :   1.0000e-07
  Last Orbital Gradient      ...    5.5484e-06  Tolerance :   1.0000e-04
  Last Orbital Rotation      ...    6.5822e-06  Tolerance :   1.0000e-04


----------------
ORBITAL ENERGIES
----------------

  NO   OCC          E(Eh)            E(eV) 
   0   2.0000     -18.944416      -515.5038 
   1   2.0000     -10.079826      -274.2860 
   2   2.0000     -10.022420      -272.7239 
   3   2.0000     -10.020449      -272.6703 
   4   2.0000     -10.009878      -272.3826 
   5   2.0000      -0.984774       -26.7971 
   6   2.0000      -0.751141       -20.4396 
   7   2.0000      -0.686968       -18.6933 
   8   2.0000      -0.613698       -16.6996 
   9   2.0000      -0.533804       -14.5255 
  10   2.0000      -0.474922       -12.9233 
  11   2.0000      -0.432236       -11.7617 
  12   2.0000      -0.403339       -10.9754 
  13   2.0000      -0.390409       -10.6236 
  14   2.0000      -0.360201        -9.8016 
  15   2.0000      -0.353294        -9.6136 
  16   2.0000      -0.328626        -8.9424 
  17   2.0000      -0.311513        -8.4767 
  18   2.0000      -0.302438        -8.2297 
  19   2.0000      -0.281528        -7.6608 
  20   2.0000      -0.233154        -6.3444 
  21   0.0000       0.062188         1.6922 
  22   0.0000       0.108976         2.9654 
  23   0.0000       0.121232         3.2989 
  24   0.0000       0.131430         3.5764 
  25   0.0000       0.148763         4.0480 
  26   0.0000       0.153142         4.1672 
  27   0.0000       0.153263         4.1705 
  28   0.0000       0.160475         4.3668 
  29   0.0000       0.180098         4.9007 
  30   0.0000       0.190337         5.1793 
  31   0.0000       0.194930         5.3043 
*Only the first 10 virtual orbitals were printed.
Total SCF time: 0 days 0 hours 0 min 3 sec 
Finished LeanSCF after   3.6 sec

Maximum memory used throughout the entire LEANSCF-calculation: 16.6 MB


-------------------------------------------------------------------------------
                          DFT DISPERSION CORRECTION                            
                                                                               
                                DFTD4 V3.4.0                                   
-------------------------------------------------------------------------------
-------------------------   ----------------
Dispersion correction           -0.003243544
-------------------------   ----------------

------------------   -----------------
gCP correction             0.008227386
------------------   -----------------

-------------------------   --------------------
FINAL SINGLE POINT ENERGY      -233.603313852637
-------------------------   --------------------

------------------------------------------------------------------------------
                         ORCA SCF GRADIENT CALCULATION
------------------------------------------------------------------------------

Nuc. rep. gradient        (SHARK) ... done (  0.0 sec)
HCore & Overlap gradient  (SHARK) ... done (  0.1 sec)
Split-RIJ-J gradient      (SHARK) ... done (  0.6 sec)
XC gradient                       ... done (  3.1 sec)
Dispersion correction             ... done (  0.0 sec)

-------------------
DISPERSION GRADIENT
-------------------

   1   C   :    0.000064213    0.000008894    0.000022748
   2   C   :    0.000029623    0.000008012   -0.000025264
   3   C   :   -0.000021311   -0.000002694   -0.000016185
   4   H   :   -0.000013629   -0.000007353   -0.000012856
   5   C   :   -0.000053918    0.000025445    0.000014530
   6   O   :   -0.000041818   -0.000058407   -0.000004323
   7   H   :    0.000034979    0.000004236    0.000006338
   8   H   :    0.000026580   -0.000005865    0.000010132
   9   H   :    0.000026739    0.000010017    0.000014115
  10   H   :    0.000017966   -0.000006287   -0.000014897
  11   H   :    0.000015955    0.000011100   -0.000015114
  12   H   :   -0.000031693    0.000006450    0.000006642
  13   H   :   -0.000021252    0.000007113    0.000013466
  14   H   :   -0.000025769    0.000021700    0.000003355
  15   H   :   -0.000006665   -0.000022361   -0.000002687

Difference to translation invariance:
           :    0.0000000000   -0.0000000000   -0.0000000000

Difference to rotation invariance:
           :   -0.0000000000    0.0000000000    0.0000000000

Norm of the Dispersion gradient    ...    0.0001554818
RMS gradient                       ...    0.0000231779
MAX gradient                       ...    0.0000642133
gCP correction                   ... done

------------------
CARTESIAN GRADIENT
------------------

   1   C   :    0.001590776    0.000154300    0.004430933
   2   C   :    0.004555258    0.004874011   -0.004345167
   3   C   :    0.001787094   -0.012786989    0.005885761
   4   H   :   -0.000714733   -0.001151973    0.000005459
   5   C   :   -0.003174391    0.005525395    0.004287062
   6   O   :   -0.002251540    0.011182610   -0.004450096
   7   H   :   -0.004297502   -0.000908276   -0.000742725
   8   H   :   -0.000720057    0.003085396   -0.003586262
   9   H   :    0.000188733   -0.002838803   -0.003921036
  10   H   :   -0.001032086    0.000618685    0.003732519
  11   H   :    0.000303977   -0.001760031    0.002684789
  12   H   :    0.004174526    0.000071893   -0.000535503
  13   H   :   -0.001334474   -0.000235538   -0.004418603
  14   H   :    0.000828022   -0.005548171    0.000754348
  15   H   :    0.000096397   -0.000282509    0.000218521

Difference to translation invariance:
           :   -0.0000000000   -0.0000000000   -0.0000000000

Difference to rotation invariance:
           :   -0.0000089908   -0.0004593931    0.0000406525

Norm of the Cartesian gradient     ...    0.0257081412
RMS gradient                       ...    0.0038323434
MAX gradient                       ...    0.0127869887

-------
TIMINGS
-------

Total SCF gradient time     ....        3.838 sec

Densities                   ....       0.000 sec  (  0.0%)
One electron gradient       ....       0.110 sec  (  2.9%)
RI-J Coulomb gradient       ....       0.585 sec  ( 15.2%)
XC gradient                 ....       3.107 sec  ( 81.0%)

Maximum memory used throughout the entire SCFGRAD-calculation: 30.9 MB

------------------------------------------------------------------------------
                              ORCA PROPERTY CALCULATIONS
------------------------------------------------------------------------------

GBWName                                 ... xtb_opt.gbw
Number of atoms                         ...     15
Number of basis functions               ...    150
Max core memory                         ...   1024 MB

Electric properties:
Dipole moment                           ... YES
Quadrupole moment                       ...  NO
Static polarizability (Dipole/Dipole)   ...  NO
Static polarizability (Dipole/Quad.)    ...  NO
Static polarizability (Quad./Quad.)     ...  NO
Static polarizability (Velocity)        ...  NO

Atomic electric properties:
Dipole moment                           ...  NO
Quadrupole moment                       ...  NO
Static polarizability                   ...  NO

Choice of electric origin               ... Center of mass
Position of electric origin             ...     0.000008     0.000024     0.000003

General magnetic properties:
Magnetizability                         ...  NO

EPR properties:
g-Tensor (aka g-matrix)                 ...  NO
Zero-Field splitting spin-orbit         ...  NO
Zero-field splitting spin-spin          ...  NO
Hyperfine couplings                     ...  NO (   0 nuclei)
Quadrupole couplings                    ...  NO (   0 nuclei)
Contact density                         ...  NO (   0 nuclei)

NMR properties:
Chemical shifts                         ...  NO (   0 nuclei)
Spin-rotation constants                 ...  NO (   0 nuclei)
Spin-spin couplings                     ...  NO (   0 nuclei,    0 pairs)

Choice of magnetic origin               ... GIAO
Position of magnetic origin             ...     0.000000     0.000000     0.000000

Properties with geometric perturbations:
SCF Hessian                             ...  NO
IR spectrum                             ...  NO
VCD spectrum                            ...  NO
X-ray spectroscopy properties:
SCF XES/XAS/RIXS spectra                ...  NO


-------------
DIPOLE MOMENT
-------------

Method             : SCF
Type of density    : Electron Density
Multiplicity       :   1
Irrep              :   0
Energy             :  -233.6082976944721850 Eh
Relativity type    : 
Basis              : AO
                                X                 Y                 Z
Electronic contribution:     -1.228541179      -3.147133165      -1.140067533
Nuclear contribution   :      0.761403225       3.483651617       1.105453690
                        -----------------------------------------
Total Dipole Moment    :     -0.467137954       0.336518452      -0.034613843
                        -----------------------------------------
Magnitude (a.u.)       :      0.576767418
Magnitude (Debye)      :      1.466026270



--------------------
Rotational spectrum 
--------------------
 
Rotational constants in cm-1:             0.215301             0.131286             0.107458 
Rotational constants in MHz :          6454.567475          3935.849237          3221.517138 

Dipole components along the rotational axes: 
x,y,z [a.u.] :    -0.367543     0.426703    -0.124490 
x,y,z [Debye]:    -0.934220     1.084592    -0.316429 

 

Dipole moment calculation done in   0.1 sec 

Maximum memory used throughout the entire PROP-calculation: 9.1 MB

--------------------------------
SUGGESTED CITATIONS FOR THIS RUN
--------------------------------

Below you find a list of papers that are relevant to this ORCA run
We neither can nor want to force you to cite these papers, but we appreciate if you do
You receive ORCA, which is the product of decades of hard work by many enthusiastic individuals, for free
The only thing we kindly ask in return is that you cite our papers,
We deeply appreciate it, if you show your appreciation for ORCA by not just citing the generic ORCA reference.

Please note that relegating all ORCA citations to the supporting information does *not* help us.
SI sections are not indexed - citations you put there will not count into any citation statistics
But we need these citations in order to attract the funding resources that allow us to do what we are doing

Therefore, if you are a happy ORCA user, please consider citing a few of the papers listed below in the main body of your paper

In addition to the list printed below, the program has created the file xtb_opt.bibtex that contains the list in bibtex format
You can import this file easily into all common literature databanks and citation aid programs


List of essential papers. We consider these as the minimum necessary citations

  1. Neese,F.
     Software update: the ORCA program system, version 5.0
     WIRES Comput. Molec. Sci., 2022 12(1)e1606
     doi.org/10.1002/wcms.1606
  2. Grimme,S.; Hansen,A.; Ehlert,S.; Mewes,J.
     r2SCAN-3c: A 'Swiss army knife' composite electronic-structure method
     J. Chem. Phys., 2021 154 064103
     doi.org/10.1063/5.0040021

List of papers to cite with high priority. The work reported in these papers was absolutely
necessary for this run to complete.
Our perspective: the developers of density functionals and basis sets usually get cited in chemistry papers
Good! But without the algorithms to do something with them, the functionals or basis sets would not do anything.
Hence, in our opinion, the algorithm design and method developments papers are equally worthy of getting cited

  1. Neese,F.
     An improvement of the resolution of the identity approximation for the formation of the Coulomb matrix
     J. Comp. Chem., 2003 24(14)1740-1747
     doi.org/10.1002/jcc.10318
  2. Neese,F.
     The SHARK Integral Generation and Digestion System
     J. Comp. Chem., 2022  1-16
     doi.org/10.1002/jcc.26942
  3. Lehtola,S.; Steigemann,C.; Oliveira,M.; Marques,M.
     Recent developments in Libxc - A comprehensive library of functionals for density functional theory
     Software X, 2018 7 
     doi.org/10.1016/j.softx.2017.11.002
  4. Caldeweyher,E.; Bannwarth,C.; Grimme,S.
     Extension of the D3 dispersion coefficient model
     J. Chem. Phys., 2017 147 034112
     doi.org/10.1063/1.4993215
  5. Caldeweyher,E.; Ehlert,S.; Hansen,A.; Neugebauer,H.; Spicher,S.; Bannwarth,C.; Grimme,S.
     A generally applicable atomic-charge dependent London dispersion correction
     J. Chem. Phys., 2019 150 154122
     doi.org/10.1063/1.5090222
  6. Caldeweyher,E.; Mewes,J.; Ehlert,S.; Grimme,S.
     Extension and evaluation of the D4 London-dispersion model for periodic systems
     Phys. Chem. Chem. Phys., 2020 22(16)8499-8512
     doi.org/10.1039/D0CP00502A
  7. Wittmann,L.; Gordiy,I.; Friede,M.; Helmich-Paris,B.; Grimme,S.; Hansen,A.; Bursch,M.
     Extension of the D3 and D4 London Dispersion Corrections to the full Actinides Series
     Phys. Chem. Chem. Phys., 2024 26(32)21379-21394
     doi.org/https://doi.org/10.1039/D4CP01514B 

List of suggested additional citations. These are papers that are important in the 'surrounding' of 
of this run, or papers that preceded the highly important papers. If you like your results we are grateful for a citation.

  1. Neese,F.
     The ORCA program system
     WIRES Comput. Molec. Sci., 2012 2(1)73-78
     doi.org/10.1002/wcms.81
  2. Neese,F.
     Software update: the ORCA program system, version 4.0
     WIRES Comput. Molec. Sci., 2018 8(1)1-6
     doi.org/10.1002/wcms.1327
  3. Neese,F.; Wennmohs,F.; Becker,U.; Riplinger,C.
     The ORCA quantum chemistry program package
     J. Chem. Phys., 2020 152 Art. No. L224108
     doi.org/10.1063/5.0004608

List of optional additional citations

  1. Neese,F.
     Approximate second-order SCF convergence for spin unrestricted wavefunctions
     Chem. Phys. Lett., 2000 325(1-3)93-98
     doi.org/10.1016/s0009-2614(00)00662-x

Timings for individual modules:

Sum of individual times          ...        8.383 sec (=   0.140 min)
Startup calculation              ...        0.625 sec (=   0.010 min)   7.5 %
SCF iterations                   ...        3.713 sec (=   0.062 min)  44.3 %
Property calculations            ...        0.148 sec (=   0.002 min)   1.8 %
SCF Gradient evaluation          ...        3.897 sec (=   0.065 min)  46.5 %
                             ****ORCA TERMINATED NORMALLY****
TOTAL RUN TIME: 0 days 0 hours 0 minutes 8 seconds 864 msec
  ------------------------------------------------------------------------
          * successful ORCA run, taking over control again...

         :::::::::::::::::::::::::::::::::::::::::::::::::::::
         ::                  ORCA SUMMARY                   ::
         :::::::::::::::::::::::::::::::::::::::::::::::::::::
         :: total energy            -233.603313852637 Eh    ::
         :: gradient norm              0.025708141187 Eh/a0 ::
         :: HOMO-LUMO gap              0.000000000000 eV    ::
         :::::::::::::::::::::::::::::::::::::::::::::::::::::

      ----------------------------------------------------------- 
     |                       L-ANC optimizer                     |
      ----------------------------------------------------------- 
          low memory version by Sebastian Ehlert

          ...................................................
          :                      SETUP                      :
          :.................................................:
          :   energy convergence        0.5000000E-05 Eh    :
          :   grad. convergence         0.1000000E-02 Eh/a0 :
          :   optimization log               true           :
          :   writing optlog all                1     steps :
          :   Hessian reset                     8     steps :
          :   maximium step len.        1.0000000     a0    :
          :   LBFGS images                      8           :
          ...................................................
 * calculating model hessian...
Using Lindh-Hessian (1995)
 Shifting diagonal of input Hessian by   1.000000000000000E-002
 Lowest  eigenvalues of input Hessian
    0.000000    0.000000    0.000000    0.000000    0.000000    0.000000
    0.014285    0.017659    0.019102    0.022383    0.026746    0.032779
    0.046428    0.052577    0.058997    0.063599    0.065088    0.068616
 Highest eigenvalues
    1.163044    1.175880    1.216016    1.248822    1.313639    1.488288
 

........................................................................
.............................. CYCLE    1 ..............................
........................................................................
                         * ORCA takes the control...
  ------------------------------------------------------------------------

                                 *****************
                                 * O   R   C   A *
                                 *****************

                                            #,                                       
                                            ###                                      
                                            ####                                     
                                            #####                                    
                                            ######                                   
                                           ########,                                 
                                     ,,################,,,,,                         
                               ,,#################################,,                 
                          ,,##########################################,,             
                       ,#########################################, ''#####,          
                    ,#############################################,,   '####,        
                  ,##################################################,,,,####,       
                ,###########''''           ''''###############################       
              ,#####''   ,,,,##########,,,,          '''####'''          '####       
            ,##' ,,,,###########################,,,                        '##       
           ' ,,###''''                  '''############,,,                           
         ,,##''                                '''############,,,,        ,,,,,,###''
      ,#''                                            '''#######################'''  
     '                                                          ''''####''''         
             ,#######,   #######,   ,#######,      ##                                
            ,#'     '#,  ##    ##  ,#'     '#,    #''#        ,####,   ,####,        
            ##       ##  ##   ,#'  ##            #'  '#       #'       #'  '#        
            ##       ##  #######   ##           ,######,      #####,   #    #        
            '#,     ,#'  ##    ##  '#,     ,#' ,#      #,     #,   #   #,  ,#        
             '#######'   ##     ##  '#######'  #'      '#     '####' # '####'        



                #########################################################
                #                        -***-                          #
                #          Department of theory and spectroscopy        #
                #                                                       #
                #                      Frank Neese                      #
                #                                                       #
                #     Directorship, Architecture, Infrastructure        #
                #                    SHARK, DRIVERS                     #
                #        Core code/Algorithms in most modules           #
                #                                                       #
                #        Max Planck Institute fuer Kohlenforschung      #
                #                Kaiser Wilhelm Platz 1                 #
                #                 D-45470 Muelheim/Ruhr                 #
                #                      Germany                          #
                #                                                       #
                #                  All rights reserved                  #
                #                        -***-                          #
                #########################################################


                         Program Version 6.0.1  -  RELEASE   -


 With contributions from (in alphabetic order):
[Max-Planck-Institut fuer Kohlenforschung]                               
  Daniel Aravena         : Magnetic Suceptibility                        
  Michael Atanasov       : Ab Initio Ligand Field Theory (pilot matlab implementation)
  Alexander A. Auer      : GIAO ZORA, VPT2 properties, NMR spectrum      
  Ute Becker             : All parallelization in ORCA, NUMFREQ, NUMCALC 
  Giovanni Bistoni       : ED, misc. LED, open-shell LED, HFLD           
  Martin Brehm           : Molecular dynamics                            
  Dmytro Bykov           : pre 5.0 version of the SCF Hessian            
  Marcos Casanova-Páez   : Triplet and SCS-CIS(D). UHF-(DLPNO)-IP/EA/STEOM-CCSD. UHF-CVS-IP/STEOM-CCSD   
  Vijay G. Chilkuri      : MRCI spin determinant printing, contributions to CSF-ICE 
  Pauline Colinet        : FMM embedding                                 
  Dipayan Datta          : RHF DLPNO-CCSD density                        
  Achintya Kumar Dutta   : EOM-CC, STEOM-CC                              
  Nicolas Foglia         : Exact transition moments, OPA infrastructure, MCD improvements    
  Dmitry Ganyushin       : Spin-Orbit,Spin-Spin,Magnetic field MRCI      
  Miquel Garcia-Rates    : C-PCM and meta-GGA Hessian, CCSD/C-PCM, Gaussian charge scheme 
  Tiago L. C. Gouveia    : GS-ROHF, GS-ROCIS                             
  Yang Guo               : DLPNO-NEVPT2, F12-NEVPT2, CIM, IAO-localization        
  Andreas Hansen         : Spin unrestricted coupled pair/coupled cluster methods 
  Ingolf Harden          : AUTO-CI MPn and infrastructure                
  Benjamin Helmich-Paris : MC-RPA, TRAH-(SCF,CASSCF), AVAS, COSX integrals, SCF dyn. polar. 
  Lee Huntington         : MR-EOM, pCC                                   
  Robert Izsak           : Overlap fitted RIJCOSX, COSX-SCS-MP3, EOM     
  Riya Kayal             : Wick's Theorem for AUTO-CI, AUTO-CI UHF-CCSDT 
  Emily Kempfer          : AUTO-CI, RHF CISDT and CCSDT                  
  Christian Kollmar      : KDIIS, OOCD, Brueckner-CCSD(T), CCSD density, CASPT2, CASPT2-K, improved NEVPT2 
  Axel Koslowski         : Symmetry handling                             
  Simone Kossmann        : meta-GGA functionals, TD-DFT gradient, OOMP2, (MP2 Hessian; deprecated post 5.0) 
  Lucas Lang             : DCDCAS                                        
  Marvin Lechner         : AUTO-CI (C++ implementation), FIC-MRCC        
  Spencer Leger          : CASSCF response                               
  Dagmar Lenk            : GEPOL surface, SMD, ORCA-2-JSON               
  Dimitrios Liakos       : Extrapolation schemes; Compound Job, initial MDCI parallelization 
  Dimitrios Manganas     : Further ROCIS development; embedding schemes. LFT, Crystal Embedding 
  Dimitrios Pantazis     : SARC Basis sets                               
  Anastasios Papadopoulos: AUTO-CI, single reference methods and gradients 
  Taras Petrenko         : pre 6.0 DFT Hessian and TD-DFT gradient, (ASA, deprecated), ECA, 1-Electron XAS/XES, NRVS 
  Peter Pinski           : DLPNO-MP2, DLPNO-MP2 Gradient                 
  Christoph Reimann      : Effective Core Potentials                     
  Marius Retegan         : Local ZFS, SOC                                
  Christoph Riplinger    : Optimizer, TS searches, QM/MM, DLPNO-CCSD(T), (RO)-DLPNO pert. Triples 
  Michael Roemelt        : Original ROCIS implementation                 
  Masaaki Saitow         : Open-shell DLPNO-CCSD energy and density      
  Barbara Sandhoefer     : DKH picture change effects                    
  Kantharuban Sivalingam : CASSCF convergence/infrastructure, NEVPT2 and variants, FIC-MRCI 
  Bernardo de Souza      : ESD, SOC TD-DFT                               
  Georgi L. Stoychev     : AutoAux, RI-MP2 NMR, DLPNO-MP2 response, X2C  
  Van Anh Tran           : RI-MP2 g-tensors                              
  Willem Van den Heuvel  : Paramagnetic NMR                              
  Zikuan Wang            : NOTCH, Electric field optimization            
  Frank Wennmohs         : Technical directorship and infrastructure     
  Hang Xu                : AUTO-CI-Response properties                   
                                                                         
[FACCTs GmbH]                                                            
  Markus Bursch, Miquel Garcia-Rates, Christoph Riplinger, Bernardo de Souza, Georgi L. Stoychev 
                                                                 
  APM, Basis sets (HGBS, AHGBS, def-TZVP (Ac-Lr), def2-XVPD (La-Lu)), CI-OPT, improved COSX, DLPNO-Multilevel,           
  DOCKER, DRACO, updates on ESD, GOAT, IRC, LR-CPCM, MBIS, meta-GGA TD-DFT gradient, ML-optimized integration grids, 
  MM, NACMEs, nearIR, NEB, NEB-TS, NL-DFT gradient (VV10), 2- and 3-layer-ONIOM, interface openCOSMO-RS, QMMM,   
  Crystal-QMMM, SF, symmetry and pop. for TD-DFT, r2SCAN hybrids, SOLVATOR                                   
                                                                         
[Other institutions]                                                     
  V. Asgeirsson          : NEB                                           
  Christoph Bannwarth    : sTDA-DFT, sTD-DFT, PBEh-3c, B97-3c, D3        
  Sebastian Ehlert       : rSCAN, r2SCAN, r2SCAN-3c, D4, dhf basis sets  
  Marvin Friede          : D4 for Fr, Ra, Ac-Lr                          
  Lars Goerigk           : TD-DFT with DH, B97 family of functionals     
  Stefan Grimme          : VdW corrections, initial TS optimization, DFT functionals, gCP, sTDA/sTD-DF 
  Waldemar Hujo          : DFT-NL                                        
  H. Jonsson             : NEB                                           
  Holger Kruse           : gCP                                           
  Marcel Mueller         : wB97X-3c, vDZP basis set                      
  Hagen Neugebauer       : wr2SCAN                                       
  Tobias Risthaus        : range-separated hybrid DFT                    
  Lukas Wittmann         : regularized MP2, r2SCAN double-hybrids, wr2SCAN        
                                                                         
We gratefully acknowledge several colleagues who have allowed us to      
interface, adapt or use parts of their codes:                            
  Ed Valeev, F. Pavosevic, A. Kumar             : LibInt (2-el integral package), F12 methods 
  Garnet Chan, S. Sharma, J. Yang, R. Olivares  : DMRG                   
  Ulf Ekstrom                                   : XCFun DFT Library      
  Mihaly Kallay                                 : mrcc  (arbitrary order and MRCC methods)
  Frank Weinhold                                : gennbo (NPA and NBO analysis)           
  Simon Mueller                                 : openCOSMO-RS                            
  Christopher J. Cramer and Donald G. Truhlar   : smd solvation model                     
  S Lehtola, MJT Oliveira, MAL Marques          : LibXC Library                           
  Liviu Ungur et al                             : ANISO software                          


 Your calculation uses the libint2 library for the computation of 2-el integrals
 For citations please refer to: http://libint.valeyev.net

 Your ORCA version has been built with support for libXC version: 6.2.2
 For citations please refer to: https://libxc.gitlab.io

 This ORCA versions uses:
   CBLAS   interface :  Fast vector & matrix operations
   LAPACKE interface :  Fast linear algebra routines
   SCALAPACK package :  Parallel linear algebra routines
   Shared memory     :  Shared parallel matrices
   BLAS/LAPACK       :  OpenBLAS 0.3.27  USE64BITINT DYNAMIC_ARCH NO_AFFINITY Zen SINGLE_THREADED
        Core in use  :  Zen
   Copyright (c) 2011-2014, The OpenBLAS Project




***************************************
The coordinates will be read from file: xtb_opt.xyz
***************************************


Your calculation utilizes the geometrical counterpoise correction gCP
Please cite in your paper:
H.Kruse, S. Grimme J.Chem.Phys., 136, (2012), 154101 
   

Your calculation utilizes the atom-pairwise dispersion correction
based on EEQ partial charges (D4)


================================================================================

----- Orbital basis set information -----
Your calculation utilizes the basis: def2-mTZVPP
   Stefan Grimme, Andreas Hansen, Sebastian Ehlert, and Jan-Michael Mewes 
   J. Chem. Phys. 154, 064103 (2021). DOI: 10.1063/5.0040021

----- AuxJ basis set information -----
Your calculation utilizes the auxiliary basis: def2/J
   F. Weigend, Phys. Chem. Chem. Phys. 8, 1057 (2006).

================================================================================
                                        WARNINGS
                       Please study these warnings very carefully!
================================================================================

WARNING: Old DensityContainer found on disk!
         Will remove this file - 
         If you want to keep old densities, please start your calculation with a different basename. 



WARNING: SCAN, rSCAN, or r2SCAN functional requested.
  ===> : libXC variant has now been activated.



================================================================================
                                       INPUT FILE
================================================================================
NAME = xtb_opt.inp
|  1> ! r2scan-3c def2/J RI DEFGRID2 scfconv7 ENGRAD tightSCF miniprint
|  2> * xyzfile 0 1 xtb_opt.xyz
|  3> 
|  4>                          ****END OF INPUT****
================================================================================

                     *******************************
                     * Energy+Gradient Calculation *
                     *******************************

---------------------------------
CARTESIAN COORDINATES (ANGSTROEM)
---------------------------------
  C      1.691446    0.393736    0.629960
  C      0.889646    0.361210   -0.670885
  C     -0.571874   -0.055191   -0.492245
  H     -1.057835   -0.006950   -1.483198
  C     -1.340182    0.848448    0.471119
  O     -0.556751   -1.405865   -0.033280
  H      2.751242    0.557672    0.423064
  H      1.589167   -0.555386    1.159514
  H      1.355849    1.195602    1.291630
  H      1.350023   -0.347779   -1.366773
  H      0.904250    1.344453   -1.152792
  H     -2.402212    0.584930    0.483002
  H     -0.949894    0.743197    1.485920
  H     -1.256118    1.895127    0.167681
  H     -1.459151   -1.665905    0.178178

----------------------------
CARTESIAN COORDINATES (A.U.)
----------------------------
  NO LB      ZA    FRAG     MASS         X           Y           Z
   0 C     6.0000    0    12.011    3.196369    0.744053    1.190452
   1 C     6.0000    0    12.011    1.681188    0.682588   -1.267788
   2 C     6.0000    0    12.011   -1.080685   -0.104296   -0.930209
   3 H     1.0000    0     1.008   -1.999018   -0.013134   -2.802839
   4 C     6.0000    0    12.011   -2.532576    1.603334    0.890285
   5 O     8.0000    0    15.999   -1.052107   -2.656701   -0.062890
   6 H     1.0000    0     1.008    5.199095    1.053847    0.799475
   7 H     1.0000    0     1.008    3.003090   -1.049528    2.191165
   8 H     1.0000    0     1.008    2.562184    2.259360    2.440828
   9 H     1.0000    0     1.008    2.551174   -0.657207   -2.582826
  10 H     1.0000    0     1.008    1.708785    2.540649   -2.178461
  11 H     1.0000    0     1.008   -4.539523    1.105357    0.912741
  12 H     1.0000    0     1.008   -1.795040    1.404439    2.807982
  13 H     1.0000    0     1.008   -2.373720    3.581271    0.316870
  14 H     1.0000    0     1.008   -2.757395   -3.148104    0.336707

------------------------------------------------------------------------------
                   ___                                                        
                  /   \      - P O W E R E D   B Y -                         
                 /     \                                                     
                 |  |  |   _    _      __       _____    __    __             
                 |  |  |  | |  | |    /  \     |  _  \  |  |  /  |          
                  \  \/   | |  | |   /    \    | | | |  |  | /  /          
                 / \  \   | |__| |  /  /\  \   | |_| |  |  |/  /          
                |  |  |   |  __  | /  /__\  \  |    /   |      \           
                |  |  |   | |  | | |   __   |  |    \   |  |\   \          
                \     /   | |  | | |  |  |  |  | |\  \  |  | \   \       
                 \___/    |_|  |_| |__|  |__|  |_| \__\ |__|  \__/        
                                                                              
                      - O R C A' S   B I G   F R I E N D -                    
                                      &                                       
                       - I N T E G R A L  F E E D E R -                       
                                                                              
 v1 FN, 2020, v2 2021, v3 2022-2024                                           
------------------------------------------------------------------------------


----------------------
SHARK INTEGRAL PACKAGE
----------------------

Number of atoms                             ...     15
Number of basis functions                   ...    150
Number of shells                            ...     76
Maximum angular momentum                    ...      2
Integral batch strategy                     ... SHARK/LIBINT Hybrid
RI-J (if used) integral strategy            ... SPLIT-RIJ (Revised 2003 algorithm where possible)
Printlevel                                  ...      1
Contraction scheme used                     ... SEGMENTED contraction
Prescreening option                         ... SCHWARTZ
   Thresh                                   ... 3.000e-11
   Tcut                                     ... 1.000e-12
   Tpresel                                  ... 1.000e-12 
Coulomb Range Separation                    ... NOT USED
Exchange Range Separation                   ... NOT USED
Multipole approximations                    ... NOT USED
Finite Nucleus Model                        ... NOT USED
CABS basis                                  ... NOT available
Auxiliary Coulomb fitting basis             ... AVAILABLE
   # of basis functions in Aux-J            ...    355
   # of shells in Aux-J                     ...    125
   Maximum angular momentum in Aux-J        ...      4
Auxiliary J/K fitting basis                 ... NOT available
Auxiliary Correlation fitting basis         ... NOT available
Auxiliary 'external' fitting basis          ... NOT available

Checking pre-screening integrals            ... done (  0.0 sec) Dimension = 76
Check shell pair data                       ... done (  0.0 sec)
Shell pair information
Shell pair cut-off parameter TPreSel        ...   1.0e-12
Total number of shell pairs                 ...      2926
Shell pairs after pre-screening             ...      2843
Total number of primitive shell pairs       ...     10151
Primitive shell pairs kept                  ...      7564
          la=0 lb=0:    991 shell pairs
          la=1 lb=0:   1093 shell pairs
          la=1 lb=1:    319 shell pairs
          la=2 lb=0:    269 shell pairs
          la=2 lb=1:    150 shell pairs
          la=2 lb=2:     21 shell pairs

Calculating one electron integrals          ... done (  0.0 sec)
Calculating RI/J V-Matrix + Cholesky decomp.... done (  0.0 sec)
Calculating Nuclear repulsion               ... done (  0.0 sec) ENN=    195.542963236434 Eh

Diagonalization of the overlap matrix:
Smallest eigenvalue                        ... 2.535e-04
Time for diagonalization                   ...    0.002 sec
Threshold for overlap eigenvalues          ... 1.000e-07
Number of eigenvalues below threshold      ... 0
Time for construction of square roots      ...    0.003 sec
Total time needed                          ...    0.006 sec

-------------------
DFT GRID GENERATION
-------------------

General Integration Accuracy     IntAcc      ... 4.388
Radial Grid Type                 RadialGrid  ... OptM3 with GC (2021)
Angular Grid (max. ang.)         AngularGrid ... 4 (Lebedev-302)
Angular grid pruning method      GridPruning ... 4 (adaptive)
Weight generation scheme         WeightScheme... mBecke (2022)
Basis function cutoff            BFCut       ... 1.0000e-11
Integration weight cutoff        WCut        ... 1.0000e-14
Partially contracted basis set               ... off
Rotationally invariant grid construction     ... off
Angular grids for H and He will be reduced by one unit
Diffuse basis detected: some atoms will have their outermost
                        angular grid increased by 1.

Total number of grid points                  ...    62604
Total number of batches                      ...      985
Average number of points per batch           ...       63
Average number of grid points per atom       ...     4174
Initializing property integral containers    ... done (  0.0 sec)

SHARK setup successfully completed in   0.9 seconds

Maximum memory used throughout the entire STARTUP-calculation: 27.5 MB
Occupation numbers will be reassigned to an Aufbau configuration
             **** ENERGY FILE WAS UPDATED (xtb_opt.en.tmp) ****
Finished Guess after   0.1 sec
Maximum memory used throughout the entire GUESS-calculation: 10.9 MB
----------------------------------------D-I-I-S--------------------------------------------
Iteration    Energy (Eh)           Delta-E    RMSDP     MaxDP     DIISErr   Damp  Time(sec)
-------------------------------------------------------------------------------------------
               ***  Starting incremental Fock matrix formation  ***
    1    -233.6086923822641950     0.00e+00  7.62e-05  1.29e-03  3.48e-03  0.700   1.0
                              *** Initializing SOSCF ***
---------------------------------------S-O-S-C-F--------------------------------------
Iteration    Energy (Eh)           Delta-E    RMSDP     MaxDP     MaxGrad    Time(sec)
--------------------------------------------------------------------------------------
    2    -233.6087432111780515    -5.08e-05  2.31e-04  3.93e-03  2.31e-03     0.8
               *** Restarting incremental Fock matrix formation ***
    3    -233.6088568053473580    -1.14e-04  6.54e-05  9.65e-04  2.55e-04     1.0
    4    -233.6088534794232316     3.33e-06  3.68e-05  4.66e-04  3.49e-04     0.8
    5    -233.6088618758887776    -8.40e-06  9.56e-06  2.08e-04  4.97e-05     0.9
    6    -233.6088617875805937     8.83e-08  5.52e-06  1.26e-04  8.12e-05     0.8
                 **** Energy Check signals convergence ****

               *****************************************************
               *                     SUCCESS                       *
               *           SCF CONVERGED AFTER   6 CYCLES          *
               *****************************************************

             **** ENERGY FILE WAS UPDATED (xtb_opt.en.tmp) ****

----------------
TOTAL SCF ENERGY
----------------

Total Energy       :       -233.60886178758059 Eh           -6356.82030 eV

Components:
Nuclear Repulsion  :        195.54296323643385 Eh            5320.99454 eV
Electronic Energy  :       -429.15182502401444 Eh          -11677.81485 eV
One Electron Energy:       -703.11142316729581 Eh          -19132.63451 eV
Two Electron Energy:        273.95959814328137 Eh            7454.81966 eV

Virial components:
Potential Energy   :       -466.11268513446066 Eh          -12683.57098 eV
Kinetic Energy     :        232.50382334688004 Eh            6326.75068 eV
Virial Ratio       :          2.00475277535136

DFT components:
N(Alpha)           :       21.000053444700 electrons
N(Beta)            :       21.000053444700 electrons
N(Total)           :       42.000106889400 electrons
E(X)               :      -32.641146164063 Eh       
E(C)               :       -1.311476269898 Eh       
E(XC)              :      -33.952622433961 Eh       

---------------
SCF CONVERGENCE
---------------

  Last Energy change         ...   -8.8308e-08  Tolerance :   1.0000e-07
  Last MAX-Density change    ...    1.2556e-04  Tolerance :   1.0000e-07
  Last RMS-Density change    ...    5.5248e-06  Tolerance :   5.0000e-09
  Last DIIS Error            ...    2.3131e-03  Tolerance :   1.0000e-07
  Last Orbital Gradient      ...    8.1215e-05  Tolerance :   1.0000e-04
  Last Orbital Rotation      ...    4.6483e-05  Tolerance :   1.0000e-04


----------------
ORBITAL ENERGIES
----------------

  NO   OCC          E(Eh)            E(eV) 
   0   2.0000     -18.943551      -515.4802 
   1   2.0000     -10.080927      -274.3160 
   2   2.0000     -10.023809      -272.7617 
   3   2.0000     -10.023006      -272.7398 
   4   2.0000     -10.012366      -272.4503 
   5   2.0000      -0.981134       -26.6980 
   6   2.0000      -0.750499       -20.4221 
   7   2.0000      -0.685988       -18.6667 
   8   2.0000      -0.613805       -16.7025 
   9   2.0000      -0.532451       -14.4887 
  10   2.0000      -0.474383       -12.9086 
  11   2.0000      -0.431089       -11.7305 
  12   2.0000      -0.402249       -10.9458 
  13   2.0000      -0.387233       -10.5371 
  14   2.0000      -0.359563        -9.7842 
  15   2.0000      -0.352448        -9.5906 
  16   2.0000      -0.328180        -8.9302 
  17   2.0000      -0.310675        -8.4539 
  18   2.0000      -0.301498        -8.2042 
  19   2.0000      -0.283291        -7.7087 
  20   2.0000      -0.233979        -6.3669 
  21   0.0000       0.062444         1.6992 
  22   0.0000       0.107131         2.9152 
  23   0.0000       0.119473         3.2510 
  24   0.0000       0.130740         3.5576 
  25   0.0000       0.147786         4.0215 
  26   0.0000       0.151034         4.1098 
  27   0.0000       0.153002         4.1634 
  28   0.0000       0.159257         4.3336 
  29   0.0000       0.178758         4.8643 
  30   0.0000       0.188688         5.1345 
  31   0.0000       0.193747         5.2721 
*Only the first 10 virtual orbitals were printed.
Total SCF time: 0 days 0 hours 0 min 5 sec 
Finished LeanSCF after   5.5 sec

Maximum memory used throughout the entire LEANSCF-calculation: 16.6 MB


-------------------------------------------------------------------------------
                          DFT DISPERSION CORRECTION                            
                                                                               
                                DFTD4 V3.4.0                                   
-------------------------------------------------------------------------------
-------------------------   ----------------
Dispersion correction           -0.003237375
-------------------------   ----------------

------------------   -----------------
gCP correction             0.008137936
------------------   -----------------

-------------------------   --------------------
FINAL SINGLE POINT ENERGY      -233.603961226673
-------------------------   --------------------

------------------------------------------------------------------------------
                         ORCA SCF GRADIENT CALCULATION
------------------------------------------------------------------------------

Nuc. rep. gradient        (SHARK) ... done (  0.0 sec)
HCore & Overlap gradient  (SHARK) ... done (  0.1 sec)
Split-RIJ-J gradient      (SHARK) ... done (  0.6 sec)
XC gradient                       ... done (  2.9 sec)
Dispersion correction             ... done (  0.0 sec)

-------------------
DISPERSION GRADIENT
-------------------

   1   C   :    0.000064764    0.000008908    0.000023189
   2   C   :    0.000029589    0.000007817   -0.000025460
   3   C   :   -0.000021763   -0.000003220   -0.000016419
   4   H   :   -0.000013620   -0.000007170   -0.000013069
   5   C   :   -0.000054314    0.000025781    0.000014605
   6   O   :   -0.000041598   -0.000058200   -0.000004609
   7   H   :    0.000034796    0.000004219    0.000006515
   8   H   :    0.000026990   -0.000005799    0.000010479
   9   H   :    0.000027077    0.000009920    0.000014344
  10   H   :    0.000017838   -0.000006388   -0.000015116
  11   H   :    0.000015822    0.000010960   -0.000015254
  12   H   :   -0.000031466    0.000006620    0.000006698
  13   H   :   -0.000021436    0.000007294    0.000013322
  14   H   :   -0.000026046    0.000021714    0.000003446
  15   H   :   -0.000006631   -0.000022456   -0.000002671

Difference to translation invariance:
           :    0.0000000000   -0.0000000000    0.0000000000

Difference to rotation invariance:
           :   -0.0000000000   -0.0000000000   -0.0000000000

Norm of the Dispersion gradient    ...    0.0001561456
RMS gradient                       ...    0.0000232768
MAX gradient                       ...    0.0000647643
gCP correction                   ... done

------------------
CARTESIAN GRADIENT
------------------

   1   C   :    0.000915703    0.000478392    0.001619757
   2   C   :    0.001562151    0.000758824   -0.001490790
   3   C   :   -0.000818182   -0.006612788    0.001333644
   4   H   :   -0.000300069    0.000201625   -0.000333965
   5   C   :   -0.001117954    0.002347936    0.001426792
   6   O   :    0.000070458    0.005406854   -0.001715033
   7   H   :   -0.000987067   -0.000289200    0.000064465
   8   H   :   -0.000396257    0.000641935   -0.000905195
   9   H   :    0.000060218   -0.000711219   -0.000901978
  10   H   :   -0.000208062    0.000175616    0.000827082
  11   H   :   -0.000488156   -0.000758157    0.000827072
  12   H   :    0.001066468   -0.000046929   -0.000251026
  13   H   :   -0.000247668   -0.000244319   -0.000812970
  14   H   :    0.000457401   -0.001337032    0.000197997
  15   H   :    0.000431017   -0.000011537    0.000114146

Difference to translation invariance:
           :   -0.0000000000    0.0000000000   -0.0000000000

Difference to rotation invariance:
           :   -0.0000597979   -0.0003610669    0.0001471162

Norm of the Cartesian gradient     ...    0.0103235643
RMS gradient                       ...    0.0015389461
MAX gradient                       ...    0.0066127877

-------
TIMINGS
-------

Total SCF gradient time     ....        3.685 sec

Densities                   ....       0.000 sec  (  0.0%)
One electron gradient       ....       0.136 sec  (  3.7%)
RI-J Coulomb gradient       ....       0.581 sec  ( 15.8%)
XC gradient                 ....       2.931 sec  ( 79.5%)

Maximum memory used throughout the entire SCFGRAD-calculation: 30.9 MB

------------------------------------------------------------------------------
                              ORCA PROPERTY CALCULATIONS
------------------------------------------------------------------------------

GBWName                                 ... xtb_opt.gbw
Number of atoms                         ...     15
Number of basis functions               ...    150
Max core memory                         ...   1024 MB

Electric properties:
Dipole moment                           ... YES
Quadrupole moment                       ...  NO
Static polarizability (Dipole/Dipole)   ...  NO
Static polarizability (Dipole/Quad.)    ...  NO
Static polarizability (Quad./Quad.)     ...  NO
Static polarizability (Velocity)        ...  NO

Atomic electric properties:
Dipole moment                           ...  NO
Quadrupole moment                       ...  NO
Static polarizability                   ...  NO

Choice of electric origin               ... Center of mass
Position of electric origin             ...    -0.001013    -0.003112    -0.002091

General magnetic properties:
Magnetizability                         ...  NO

EPR properties:
g-Tensor (aka g-matrix)                 ...  NO
Zero-Field splitting spin-orbit         ...  NO
Zero-field splitting spin-spin          ...  NO
Hyperfine couplings                     ...  NO (   0 nuclei)
Quadrupole couplings                    ...  NO (   0 nuclei)
Contact density                         ...  NO (   0 nuclei)

NMR properties:
Chemical shifts                         ...  NO (   0 nuclei)
Spin-rotation constants                 ...  NO (   0 nuclei)
Spin-spin couplings                     ...  NO (   0 nuclei,    0 pairs)

Choice of magnetic origin               ... GIAO
Position of magnetic origin             ...     0.000000     0.000000     0.000000

Properties with geometric perturbations:
SCF Hessian                             ...  NO
IR spectrum                             ...  NO
VCD spectrum                            ...  NO
X-ray spectroscopy properties:
SCF XES/XAS/RIXS spectra                ...  NO


-------------
DIPOLE MOMENT
-------------

Method             : SCF
Type of density    : Electron Density
Multiplicity       :   1
Irrep              :   0
Energy             :  -233.6088617875805937 Eh
Relativity type    : 
Basis              : AO
                                X                 Y                 Z
Electronic contribution:     -1.241001817      -3.159148919      -1.161198504
Nuclear contribution   :      0.771100882       3.508115440       1.122796189
                        -----------------------------------------
Total Dipole Moment    :     -0.469900935       0.348966521      -0.038402314
                        -----------------------------------------
Magnitude (a.u.)       :      0.586565648
Magnitude (Debye)      :      1.490931390



--------------------
Rotational spectrum 
--------------------
 
Rotational constants in cm-1:             0.213910             0.130782             0.107014 
Rotational constants in MHz :          6412.853791          3920.733209          3208.189539 

Dipole components along the rotational axes: 
x,y,z [a.u.] :    -0.370269     0.436416    -0.128458 
x,y,z [Debye]:    -0.941148     1.109281    -0.326515 

 

Dipole moment calculation done in   0.1 sec 

Maximum memory used throughout the entire PROP-calculation: 9.1 MB

--------------------------------
[...]

               *****************************************************
               *                     SUCCESS                       *
               *           SCF CONVERGED AFTER   2 CYCLES          *
               *****************************************************

             **** ENERGY FILE WAS UPDATED (xtb_opt.en.tmp) ****

----------------
TOTAL SCF ENERGY
----------------

Total Energy       :       -233.60899154212896 Eh           -6356.82383 eV

Components:
Nuclear Repulsion  :        195.17818565973127 Eh            5311.06844 eV
Electronic Energy  :       -428.78717720186023 Eh          -11667.89228 eV
One Electron Energy:       -702.39359846764967 Eh          -19113.10151 eV
Two Electron Energy:        273.60642126578944 Eh            7445.20923 eV

Virial components:
Potential Energy   :       -466.08696429354802 Eh          -12682.87108 eV
Kinetic Energy     :        232.47797275141909 Eh            6326.04725 eV
Virial Ratio       :          2.00486505786903

DFT components:
N(Alpha)           :       21.000065087274 electrons
N(Beta)            :       21.000065087274 electrons
N(Total)           :       42.000130174547 electrons
E(X)               :      -32.633886087463 Eh       
E(C)               :       -1.310977153942 Eh       
E(XC)              :      -33.944863241404 Eh       

---------------
SCF CONVERGENCE
---------------

  Last Energy change         ...    9.8061e-10  Tolerance :   1.0000e-07
  Last MAX-Density change    ...    1.3833e-05  Tolerance :   1.0000e-07
  Last RMS-Density change    ...    8.3240e-07  Tolerance :   5.0000e-09
  Last DIIS Error            ...    2.0851e-05  Tolerance :   1.0000e-07
  Last Orbital Gradient      ...    3.7427e-06  Tolerance :   1.0000e-04
  Last Orbital Rotation      ...    6.2663e-06  Tolerance :   1.0000e-04


----------------
ORBITAL ENERGIES
----------------

  NO   OCC          E(Eh)            E(eV) 
   0   2.0000     -18.943167      -515.4698 
   1   2.0000     -10.081308      -274.3263 
   2   2.0000     -10.024667      -272.7851 
   3   2.0000     -10.023627      -272.7568 
   4   2.0000     -10.013157      -272.4719 
   5   2.0000      -0.977125       -26.5889 
   6   2.0000      -0.751167       -20.4403 
   7   2.0000      -0.686658       -18.6849 
   8   2.0000      -0.613879       -16.7045 
   9   2.0000      -0.531239       -14.4557 
  10   2.0000      -0.473351       -12.8805 
  11   2.0000      -0.430922       -11.7260 
  12   2.0000      -0.401791       -10.9333 
  13   2.0000      -0.386171       -10.5082 
  14   2.0000      -0.359910        -9.7936 
  15   2.0000      -0.352461        -9.5910 
  16   2.0000      -0.327996        -8.9252 
  17   2.0000      -0.310186        -8.4406 
  18   2.0000      -0.301131        -8.1942 
  19   2.0000      -0.284765        -7.7489 
  20   2.0000      -0.234086        -6.3698 
  21   0.0000       0.062127         1.6906 
  22   0.0000       0.105988         2.8841 
  23   0.0000       0.119193         3.2434 
  24   0.0000       0.129585         3.5262 
  25   0.0000       0.147524         4.0143 
  26   0.0000       0.149423         4.0660 
  27   0.0000       0.153182         4.1683 
  28   0.0000       0.158224         4.3055 
  29   0.0000       0.178237         4.8501 
  30   0.0000       0.188322         5.1245 
  31   0.0000       0.193548         5.2667 
*Only the first 10 virtual orbitals were printed.
Total SCF time: 0 days 0 hours 0 min 2 sec 
Finished LeanSCF after   2.3 sec

Maximum memory used throughout the entire LEANSCF-calculation: 16.6 MB


-------------------------------------------------------------------------------
                          DFT DISPERSION CORRECTION                            
                                                                               
                                DFTD4 V3.4.0                                   
-------------------------------------------------------------------------------
-------------------------   ----------------
Dispersion correction           -0.003231028
-------------------------   ----------------

------------------   -----------------
gCP correction             0.008118467
------------------   -----------------

-------------------------   --------------------
FINAL SINGLE POINT ENERGY      -233.604104103181
-------------------------   --------------------

------------------------------------------------------------------------------
                         ORCA SCF GRADIENT CALCULATION
------------------------------------------------------------------------------

Nuc. rep. gradient        (SHARK) ... done (  0.0 sec)
HCore & Overlap gradient  (SHARK) ... done (  0.1 sec)
Split-RIJ-J gradient      (SHARK) ... done (  0.6 sec)
XC gradient                       ... done (  3.0 sec)
Dispersion correction             ... done (  0.0 sec)

-------------------
DISPERSION GRADIENT
-------------------

   1   C   :    0.000065474    0.000008823    0.000023235
   2   C   :    0.000029917    0.000007784   -0.000025537
   3   C   :   -0.000021917   -0.000003957   -0.000016329
   4   H   :   -0.000013607   -0.000007072   -0.000013066
   5   C   :   -0.000054979    0.000026005    0.000014558
   6   O   :   -0.000042134   -0.000057557   -0.000005273
   7   H   :    0.000034566    0.000004215    0.000006464
   8   H   :    0.000027411   -0.000005823    0.000010705
   9   H   :    0.000027353    0.000009738    0.000014472
  10   H   :    0.000017805   -0.000006396   -0.000015055
  11   H   :    0.000015990    0.000010921   -0.000015228
  12   H   :   -0.000031219    0.000006449    0.000006742
  13   H   :   -0.000021567    0.000007603    0.000013356
  14   H   :   -0.000026460    0.000021781    0.000003365
  15   H   :   -0.000006632   -0.000022514   -0.000002408

Difference to translation invariance:
           :    0.0000000000    0.0000000000    0.0000000000

Difference to rotation invariance:
           :    0.0000000000   -0.0000000000   -0.0000000000

Norm of the Dispersion gradient    ...    0.0001568798
RMS gradient                       ...    0.0000233863
MAX gradient                       ...    0.0000654737
gCP correction                   ... done

------------------
CARTESIAN GRADIENT
------------------

   1   C   :    0.000011214   -0.000002868    0.000025271
   2   C   :    0.000010495    0.000013458    0.000105473
   3   C   :   -0.000075423    0.000544498   -0.000166940
   4   H   :    0.000004754   -0.000094115    0.000033407
   5   C   :    0.000065384   -0.000070554   -0.000002687
   6   O   :    0.000086870   -0.000422432    0.000032956
   7   H   :   -0.000056339   -0.000026979   -0.000005657
   8   H   :   -0.000013643    0.000103388   -0.000040357
   9   H   :    0.000020973    0.000002808   -0.000087838
  10   H   :   -0.000033966    0.000004012    0.000081976
  11   H   :    0.000000535   -0.000030060    0.000028219
  12   H   :    0.000040913    0.000000939   -0.000077542
  13   H   :   -0.000056044   -0.000044556   -0.000021593
  14   H   :    0.000049218   -0.000053992    0.000047567
  15   H   :   -0.000054941    0.000076454    0.000047745

Difference to translation invariance:
           :   -0.0000000000   -0.0000000000    0.0000000000

Difference to rotation invariance:
           :   -0.0000742042   -0.0003114857    0.0001445325

Norm of the Cartesian gradient     ...    0.0007840767
RMS gradient                       ...    0.0001168832
MAX gradient                       ...    0.0005444981

-------
TIMINGS
-------

Total SCF gradient time     ....        3.694 sec

Densities                   ....       0.000 sec  (  0.0%)
One electron gradient       ....       0.110 sec  (  3.0%)
RI-J Coulomb gradient       ....       0.590 sec  ( 16.0%)
XC gradient                 ....       2.956 sec  ( 80.0%)

Maximum memory used throughout the entire SCFGRAD-calculation: 30.9 MB

------------------------------------------------------------------------------
                              ORCA PROPERTY CALCULATIONS
------------------------------------------------------------------------------

GBWName                                 ... xtb_opt.gbw
Number of atoms                         ...     15
Number of basis functions               ...    150
Max core memory                         ...   1024 MB

Electric properties:
Dipole moment                           ... YES
Quadrupole moment                       ...  NO
Static polarizability (Dipole/Dipole)   ...  NO
Static polarizability (Dipole/Quad.)    ...  NO
Static polarizability (Quad./Quad.)     ...  NO
Static polarizability (Velocity)        ...  NO

Atomic electric properties:
Dipole moment                           ...  NO
Quadrupole moment                       ...  NO
Static polarizability                   ...  NO

Choice of electric origin               ... Center of mass
Position of electric origin             ...    -0.002940    -0.003439     0.002176

General magnetic properties:
Magnetizability                         ...  NO

EPR properties:
g-Tensor (aka g-matrix)                 ...  NO
Zero-Field splitting spin-orbit         ...  NO
Zero-field splitting spin-spin          ...  NO
Hyperfine couplings                     ...  NO (   0 nuclei)
Quadrupole couplings                    ...  NO (   0 nuclei)
Contact density                         ...  NO (   0 nuclei)

NMR properties:
Chemical shifts                         ...  NO (   0 nuclei)
Spin-rotation constants                 ...  NO (   0 nuclei)
Spin-spin couplings                     ...  NO (   0 nuclei,    0 pairs)

Choice of magnetic origin               ... GIAO
Position of magnetic origin             ...     0.000000     0.000000     0.000000

Properties with geometric perturbations:
SCF Hessian                             ...  NO
IR spectrum                             ...  NO
VCD spectrum                            ...  NO
X-ray spectroscopy properties:
SCF XES/XAS/RIXS spectra                ...  NO


-------------
DIPOLE MOMENT
-------------

Method             : SCF
Type of density    : Electron Density
Multiplicity       :   1
Irrep              :   0
Energy             :  -233.6089915421289618 Eh
Relativity type    : 
Basis              : AO
                                X                 Y                 Z
Electronic contribution:     -1.250029463      -3.137248281      -1.146247303
Nuclear contribution   :      0.784282057       3.509482760       1.089432216
                        -----------------------------------------
Total Dipole Moment    :     -0.465747406       0.372234479      -0.056815087
                        -----------------------------------------
Magnitude (a.u.)       :      0.598921621
Magnitude (Debye)      :      1.522337778



--------------------
Rotational spectrum 
--------------------
 
Rotational constants in cm-1:             0.213822             0.129930             0.106342 
Rotational constants in MHz :          6410.233024          3895.198227          3188.054672 

Dipole components along the rotational axes: 
x,y,z [a.u.] :    -0.363247     0.452593    -0.148047 
x,y,z [Debye]:    -0.923301     1.150400    -0.376306 

 

Dipole moment calculation done in   0.0 sec 

Maximum memory used throughout the entire PROP-calculation: 9.1 MB

--------------------------------
SUGGESTED CITATIONS FOR THIS RUN
--------------------------------

Below you find a list of papers that are relevant to this ORCA run
We neither can nor want to force you to cite these papers, but we appreciate if you do
You receive ORCA, which is the product of decades of hard work by many enthusiastic individuals, for free
The only thing we kindly ask in return is that you cite our papers,
We deeply appreciate it, if you show your appreciation for ORCA by not just citing the generic ORCA reference.

Please note that relegating all ORCA citations to the supporting information does *not* help us.
SI sections are not indexed - citations you put there will not count into any citation statistics
But we need these citations in order to attract the funding resources that allow us to do what we are doing

Therefore, if you are a happy ORCA user, please consider citing a few of the papers listed below in the main body of your paper

In addition to the list printed below, the program has created the file xtb_opt.bibtex that contains the list in bibtex format
You can import this file easily into all common literature databanks and citation aid programs


List of essential papers. We consider these as the minimum necessary citations

  1. Neese,F.
     Software update: the ORCA program system, version 5.0
     WIRES Comput. Molec. Sci., 2022 12(1)e1606
     doi.org/10.1002/wcms.1606
  2. Grimme,S.; Hansen,A.; Ehlert,S.; Mewes,J.
     r2SCAN-3c: A 'Swiss army knife' composite electronic-structure method
     J. Chem. Phys., 2021 154 064103
     doi.org/10.1063/5.0040021

List of papers to cite with high priority. The work reported in these papers was absolutely
necessary for this run to complete.
Our perspective: the developers of density functionals and basis sets usually get cited in chemistry papers
Good! But without the algorithms to do something with them, the functionals or basis sets would not do anything.
Hence, in our opinion, the algorithm design and method developments papers are equally worthy of getting cited

  1. Neese,F.
     An improvement of the resolution of the identity approximation for the formation of the Coulomb matrix
     J. Comp. Chem., 2003 24(14)1740-1747
     doi.org/10.1002/jcc.10318
  2. Neese,F.
     The SHARK Integral Generation and Digestion System
     J. Comp. Chem., 2022  1-16
     doi.org/10.1002/jcc.26942
  3. Lehtola,S.; Steigemann,C.; Oliveira,M.; Marques,M.
     Recent developments in Libxc - A comprehensive library of functionals for density functional theory
     Software X, 2018 7 
     doi.org/10.1016/j.softx.2017.11.002
  4. Caldeweyher,E.; Bannwarth,C.; Grimme,S.
     Extension of the D3 dispersion coefficient model
     J. Chem. Phys., 2017 147 034112
     doi.org/10.1063/1.4993215
  5. Caldeweyher,E.; Ehlert,S.; Hansen,A.; Neugebauer,H.; Spicher,S.; Bannwarth,C.; Grimme,S.
     A generally applicable atomic-charge dependent London dispersion correction
     J. Chem. Phys., 2019 150 154122
     doi.org/10.1063/1.5090222
  6. Caldeweyher,E.; Mewes,J.; Ehlert,S.; Grimme,S.
     Extension and evaluation of the D4 London-dispersion model for periodic systems
     Phys. Chem. Chem. Phys., 2020 22(16)8499-8512
     doi.org/10.1039/D0CP00502A
  7. Wittmann,L.; Gordiy,I.; Friede,M.; Helmich-Paris,B.; Grimme,S.; Hansen,A.; Bursch,M.
     Extension of the D3 and D4 London Dispersion Corrections to the full Actinides Series
     Phys. Chem. Chem. Phys., 2024 26(32)21379-21394
     doi.org/https://doi.org/10.1039/D4CP01514B 

List of suggested additional citations. These are papers that are important in the 'surrounding' of 
of this run, or papers that preceded the highly important papers. If you like your results we are grateful for a citation.

  1. Neese,F.
     The ORCA program system
     WIRES Comput. Molec. Sci., 2012 2(1)73-78
     doi.org/10.1002/wcms.81
  2. Neese,F.
     Software update: the ORCA program system, version 4.0
     WIRES Comput. Molec. Sci., 2018 8(1)1-6
     doi.org/10.1002/wcms.1327
  3. Neese,F.; Wennmohs,F.; Becker,U.; Riplinger,C.
     The ORCA quantum chemistry program package
     J. Chem. Phys., 2020 152 Art. No. L224108
     doi.org/10.1063/5.0004608

List of optional additional citations

  1. Neese,F.
     Approximate second-order SCF convergence for spin unrestricted wavefunctions
     Chem. Phys. Lett., 2000 325(1-3)93-98
     doi.org/10.1016/s0009-2614(00)00662-x

Timings for individual modules:

Sum of individual times          ...        6.871 sec (=   0.115 min)
Startup calculation              ...        0.533 sec (=   0.009 min)   7.8 %
SCF iterations                   ...        2.392 sec (=   0.040 min)  34.8 %
Property calculations            ...        0.062 sec (=   0.001 min)   0.9 %
SCF Gradient evaluation          ...        3.883 sec (=   0.065 min)  56.5 %
                             ****ORCA TERMINATED NORMALLY****
TOTAL RUN TIME: 0 days 0 hours 0 minutes 7 seconds 426 msec
  ------------------------------------------------------------------------
          * successful ORCA run, taking over control again...

         :::::::::::::::::::::::::::::::::::::::::::::::::::::
         ::                  ORCA SUMMARY                   ::
         :::::::::::::::::::::::::::::::::::::::::::::::::::::
         :: total energy            -233.604104103181 Eh    ::
         :: gradient norm              0.000784076660 Eh/a0 ::
         :: HOMO-LUMO gap              0.000000000000 eV    ::
         :::::::::::::::::::::::::::::::::::::::::::::::::::::

           -------------------------------------------------
          |                Property Printout                |
           -------------------------------------------------
           -------------------------------------------------
          |                Geometry Summary                 |
           -------------------------------------------------

      molecular mass/u    :       74.1217560
   center of mass at/Å    :       -0.0015617      -0.0018363       0.0011505
  moments of inertia/u·Å² :        0.7883806E+02   0.1297407E+03   0.1585196E+03
rotational constants/cm⁻¹ :        0.2138261E+00   0.1299332E+00   0.1063441E+00

 * 14 selected distances

     #   Z          #   Z                                           value/Å
     1   6 C        2   6 C                                       1.5276502 (max)
     2   6 C        3   6 C                                       1.5267378
     3   6 C        4   1 H                                       1.1033351
     3   6 C        5   6 C                                       1.5239260
     3   6 C        6   8 O                                       1.4395058
     1   6 C        7   1 H                                       1.0937938
     1   6 C        8   1 H                                       1.0929286
     1   6 C        9   1 H                                       1.0942180
     2   6 C       10   1 H                                       1.0961060
     2   6 C       11   1 H                                       1.0969592
     5   6 C       12   1 H                                       1.0958818
     5   6 C       13   1 H                                       1.0935269
     5   6 C       14   1 H                                       1.0952342
     6   8 O       15   1 H                                       0.9631356 (min)

 * 4 distinct bonds (by element types)

   Z      Z             #   av. dist./Å        max./Å        min./Å
   1 H    6 C           9     1.0957760     1.1033351     1.0929286
   6 C    6 C           3     1.5261047     1.5276502     1.5239260
   1 H    8 O           1     0.9631356     0.9631356     0.9631356
   6 C    8 O           1     1.4395058     1.4395058     1.4395058


optimized geometry written to: xtbopt.coord


           -------------------------------------------------
          | TOTAL ENERGY             -233.604104103181 Eh   |
          | GRADIENT NORM               0.000784076660 Eh/α |
           -------------------------------------------------

------------------------------------------------------------------------
 * finished run on 2025/04/15 at 19:32:05.792     
------------------------------------------------------------------------
 total:
 * wall-time:     0 d,  0 h,  1 min, 16.719 sec
 *  cpu-time:     0 d,  0 h,  0 min,  6.011 sec
 * ratio c/w:     0.078 speedup
 SCF:
 * wall-time:     0 d,  0 h,  0 min,  8.966 sec
 *  cpu-time:     0 d,  0 h,  0 min,  0.626 sec
 * ratio c/w:     0.070 speedup
 ANC optimizer:
 * wall-time:     0 d,  0 h,  1 min,  7.506 sec
 *  cpu-time:     0 d,  0 h,  0 min,  4.834 sec
 * ratio c/w:     0.072 speedup

