 Entering Gaussian System
 *********************************************
 Gaussian 98:
 frequency output generated by the xtb code
 *********************************************
                         Standard orientation:
 --------------------------------------------------------------------
  Center     Atomic     Atomic              Coordinates (Angstroms)
  Number     Number      Type              X           Y           Z
 --------------------------------------------------------------------
    1          6             0       -1.739593    1.446364   -0.065712
    2          6             0       -1.619504   -0.024778    0.321271
    3          6             0       -2.944025   -0.753720    0.077380
    4          6             0       -0.518887   -0.715945   -0.471870
    5         35             0        1.247666    0.018866   -0.073470
    6          1             0       -2.547983    1.917031    0.488108
    7          1             0       -0.818894    1.983213    0.151865
    8          1             0       -1.950882    1.541802   -1.129897
    9          1             0       -1.367966   -0.092416    1.385734
   10          1             0       -3.645792   -0.536772    0.877969
   11          1             0       -2.800378   -1.831195    0.036257
   12          1             0       -3.388744   -0.433199   -0.861837
   13          1             0       -0.663192   -0.599503   -1.545532
   14          1             0       -0.456074   -1.774838   -0.222072
 --------------------------------------------------------------------
     1 basis functions        1 primitive gaussians
     1 alpha electrons        1 beta electrons
 
 Harmonic frequencies (cm**-1), IR intensities (km*mol⁻¹),
 Raman scattering activities (A**4/amu), Raman depolarization ratios,
 reduced masses (AMU), force constants (mDyne/A) and normal coordinates:
                      1                      2                      3
                        a                      a                      a 
 Frequencies --    94.4370               137.5377               184.3840
 Red. masses --    14.0976                 2.2436                25.1508
 Frc consts  --     0.0000                 0.0000                 0.0000
 IR Inten    --     3.3623                 0.0825                 2.0800
 Raman Activ --     0.0000                 0.0000                 0.0000
 Depolar     --     0.0000                 0.0000                 0.0000
 Atom AN      X      Y      Z        X      Y      Z        X      Y      Z
   1   6    -0.33   0.09  -0.16     0.11  -0.03  -0.14     0.47  -0.12  -0.04
   2   6     0.04   0.13  -0.14     0.04  -0.02  -0.05     0.26  -0.16  -0.12
   3   6     0.10  -0.13   0.30    -0.04   0.03   0.09     0.11   0.07   0.19
   4   6    -0.03   0.34  -0.42     0.02  -0.07  -0.03     0.09  -0.15  -0.34
   5  35     0.11  -0.20   0.18    -0.06   0.04   0.05    -0.44   0.15   0.13
   6   1    -0.04   0.01   0.06     0.02   0.00  -0.06     0.20   0.01   0.04
   7   1    -0.09   0.06  -0.17     0.03  -0.01  -0.03     0.18  -0.09  -0.07
   8   1    -0.24   0.01  -0.02     0.06  -0.02  -0.05     0.07  -0.01   0.00
   9   1     0.10   0.06  -0.06     0.04   0.02  -0.02     0.14  -0.07  -0.05
  10   1     0.08  -0.04   0.13     0.19  -0.42   0.32     0.05   0.16   0.04
  11   1     0.08  -0.03   0.12     0.05   0.04  -0.51    -0.04   0.01   0.18
  12   1    -0.06  -0.10   0.11    -0.30   0.40   0.30     0.04  -0.06   0.02
  13   1     0.02   0.24  -0.11     0.01  -0.04  -0.01     0.03   0.02  -0.09
  14   1    -0.05   0.06  -0.25     0.01  -0.01   0.01     0.03  -0.06  -0.16
                      4                      5                      6
                        a                      a                      a 
 Frequencies --   227.2835               293.9086               380.6717
 Red. masses --     2.7198                20.1531                 8.9829
 Frc consts  --     0.0000                 0.0000                 0.0000
 IR Inten    --     0.8197                 4.3686                 1.7322
 Raman Activ --     0.0000                 0.0000                 0.0000
 Depolar     --     0.0000                 0.0000                 0.0000
 Atom AN      X      Y      Z        X      Y      Z        X      Y      Z
   1   6    -0.02  -0.05   0.02    -0.08  -0.25  -0.02    -0.39   0.02   0.11
   2   6    -0.07  -0.05  -0.01    -0.15  -0.26  -0.11     0.33   0.00  -0.17
   3   6    -0.12   0.05  -0.12    -0.51   0.24   0.17     0.19   0.34  -0.03
   4   6    -0.01  -0.10   0.09    -0.06  -0.11  -0.18     0.25  -0.30  -0.03
   5  35     0.10   0.06   0.01     0.37   0.14   0.05    -0.12  -0.04   0.01
   6   1     0.35   0.13   0.41    -0.08  -0.09  -0.07    -0.19  -0.20   0.10
   7   1     0.18  -0.14  -0.49    -0.05  -0.06   0.08    -0.21   0.17   0.04
   8   1    -0.54  -0.02   0.11     0.07  -0.06  -0.02    -0.18   0.04   0.05
   9   1    -0.04  -0.02  -0.00    -0.02  -0.10  -0.04     0.13   0.00  -0.05
  10   1    -0.03   0.01  -0.03    -0.07   0.23   0.08     0.10   0.16   0.02
  11   1    -0.06   0.01  -0.07    -0.31   0.05   0.10    -0.06   0.08  -0.02
  12   1    -0.03   0.05  -0.02    -0.15   0.08   0.06     0.05   0.15   0.01
  13   1     0.01  -0.07   0.02     0.02   0.02  -0.05     0.09  -0.23  -0.03
  14   1     0.01  -0.02   0.07     0.02  -0.04  -0.10     0.05  -0.05   0.14
                      7                      8                      9
                        a                      a                      a 
 Frequencies --   433.8189               645.8592               842.5786
 Red. masses --     7.9470                14.2279                 6.4603
 Frc consts  --     0.0000                 0.0000                 0.0000
 IR Inten    --     3.1451                 9.2901                 1.1569
 Raman Activ --     0.0000                 0.0000                 0.0000
 Depolar     --     0.0000                 0.0000                 0.0000
 Atom AN      X      Y      Z        X      Y      Z        X      Y      Z
   1   6    -0.07  -0.36  -0.14     0.02  -0.06   0.00     0.00  -0.38   0.09
   2   6     0.17  -0.12   0.47    -0.04  -0.08  -0.16    -0.05   0.04  -0.15
   3   6     0.13   0.25  -0.11    -0.19  -0.04   0.02     0.18   0.10  -0.02
   4   6     0.03   0.23   0.05     0.67   0.43   0.27    -0.24   0.43  -0.12
   5  35    -0.09  -0.03  -0.03    -0.19  -0.12  -0.09     0.01  -0.03   0.03
   6   1    -0.05  -0.05  -0.12     0.03  -0.01   0.03     0.03  -0.02  -0.01
   7   1    -0.06   0.01  -0.17     0.02  -0.06   0.03     0.05  -0.19   0.03
   8   1    -0.05  -0.32  -0.06     0.01   0.04   0.01     0.05  -0.13   0.01
   9   1     0.03  -0.03   0.13    -0.09  -0.01  -0.02     0.07  -0.09  -0.06
  10   1    -0.04   0.06  -0.10     0.04   0.07   0.07     0.11   0.06   0.04
  11   1    -0.07   0.06  -0.13    -0.11  -0.02   0.06     0.05   0.03   0.03
  12   1     0.18   0.21  -0.05    -0.14  -0.04   0.04    -0.01   0.01   0.02
  13   1    -0.08   0.28   0.05     0.21   0.09   0.06    -0.06  -0.38  -0.08
  14   1     0.01   0.02  -0.21     0.16   0.11   0.05    -0.02   0.23   0.46
                     10                     11                     12
                        a                      a                      a 
 Frequencies --   887.1076               956.3619               979.7390
 Red. masses --     6.2585                 2.7417                 6.4593
 Frc consts  --     0.0000                 0.0000                 0.0000
 IR Inten    --     4.2857                 2.4690                 8.8847
 Raman Activ --     0.0000                 0.0000                 0.0000
 Depolar     --     0.0000                 0.0000                 0.0000
 Atom AN      X      Y      Z        X      Y      Z        X      Y      Z
   1   6     0.03  -0.27  -0.09     0.19  -0.02   0.17    -0.19  -0.20   0.07
   2   6    -0.01  -0.01  -0.31     0.06   0.12  -0.02    -0.36   0.13   0.01
   3   6     0.26   0.13  -0.07    -0.13   0.15  -0.18     0.13   0.35   0.12
   4   6    -0.25  -0.01   0.38    -0.02  -0.04   0.02     0.23  -0.20  -0.12
   5  35     0.01   0.02  -0.02     0.00   0.00  -0.00    -0.01   0.00  -0.01
   6   1     0.03  -0.26   0.16    -0.10  -0.12  -0.08     0.06   0.19  -0.04
   7   1    -0.00  -0.12   0.14    -0.10   0.33  -0.19     0.09  -0.32   0.08
   8   1    -0.03   0.23   0.02    -0.08  -0.39   0.03     0.09  -0.02  -0.00
   9   1    -0.15   0.13  -0.04    -0.14  -0.26   0.01    -0.08   0.04  -0.00
  10   1     0.24   0.11   0.11     0.10  -0.09   0.11    -0.13  -0.20  -0.04
  11   1     0.06   0.03   0.08     0.32   0.07   0.17     0.43   0.14   0.03
  12   1    -0.12  -0.04   0.05    -0.37  -0.31  -0.00     0.06  -0.09  -0.04
  13   1    -0.05   0.33   0.13     0.01   0.03   0.01     0.17   0.02  -0.04
  14   1    -0.15  -0.07  -0.20    -0.02  -0.02  -0.03     0.05  -0.08  -0.12
                     13                     14                     15
                        a                      a                      a 
 Frequencies --   989.9277              1088.3314              1132.0566
 Red. masses --     3.9024                 3.1409                 7.5551
 Frc consts  --     0.0000                 0.0000                 0.0000
 IR Inten    --     0.0338                 0.6541                 3.3454
 Raman Activ --     0.0000                 0.0000                 0.0000
 Depolar     --     0.0000                 0.0000                 0.0000
 Atom AN      X      Y      Z        X      Y      Z        X      Y      Z
   1   6    -0.23   0.22   0.13     0.03  -0.08   0.16    -0.10  -0.26   0.10
   2   6    -0.09  -0.14   0.01     0.06   0.15  -0.23     0.28   0.47   0.17
   3   6     0.29  -0.05  -0.15    -0.05  -0.10   0.12    -0.21  -0.15  -0.23
   4   6     0.00  -0.10   0.04    -0.09  -0.01   0.18     0.15  -0.12  -0.14
   5  35     0.00   0.01  -0.00    -0.01   0.03  -0.04    -0.00   0.02   0.01
   6   1     0.03   0.47  -0.20    -0.02   0.06  -0.08     0.05   0.07   0.01
   7   1     0.09  -0.16  -0.07     0.01   0.02  -0.08     0.06  -0.22   0.07
   8   1     0.12  -0.19  -0.03     0.03  -0.23   0.01     0.08  -0.04   0.01
   9   1    -0.10  -0.23   0.01     0.23  -0.07  -0.11     0.07   0.40   0.06
  10   1     0.37   0.27   0.15    -0.14  -0.04  -0.08     0.09   0.06   0.05
  11   1    -0.21  -0.05   0.07    -0.09  -0.03  -0.10    -0.14  -0.05   0.06
  12   1    -0.15   0.04   0.09     0.18   0.09  -0.02    -0.25  -0.09   0.02
  13   1     0.03   0.05   0.01     0.56   0.14  -0.02    -0.11  -0.00  -0.01
  14   1    -0.07  -0.05  -0.06    -0.51  -0.04   0.01    -0.19  -0.04  -0.01
                     16                     17                     18
                        a                      a                      a 
 Frequencies --  1186.8772              1211.5049              1244.2089
 Red. masses --     6.6008                 5.0891                 2.7149
 Frc consts  --     0.0000                 0.0000                 0.0000
 IR Inten    --     6.1893                 4.2915                29.0518
 Raman Activ --     0.0000                 0.0000                 0.0000
 Depolar     --     0.0000                 0.0000                 0.0000
 Atom AN      X      Y      Z        X      Y      Z        X      Y      Z
   1   6    -0.24   0.09  -0.09    -0.00  -0.05   0.29     0.01   0.03  -0.05
   2   6     0.48  -0.23  -0.06     0.04   0.10  -0.47     0.01  -0.08  -0.06
   3   6    -0.24   0.13  -0.05    -0.02  -0.05   0.15     0.04   0.04   0.12
   4   6    -0.13   0.09   0.20     0.01  -0.03   0.15     0.33   0.02  -0.07
   5  35    -0.00  -0.00   0.00     0.00  -0.01   0.02     0.02   0.03   0.02
   6   1     0.07   0.23  -0.02    -0.05   0.14  -0.14     0.00  -0.01   0.01
   7   1     0.07  -0.22   0.05     0.03   0.02  -0.13    -0.01   0.01   0.00
   8   1     0.11   0.15  -0.04     0.05  -0.32   0.03    -0.01   0.05  -0.01
   9   1     0.33  -0.23  -0.07     0.02   0.19  -0.11    -0.28  -0.20   0.04
  10   1    -0.11  -0.17  -0.01    -0.13  -0.01  -0.08    -0.10  -0.07  -0.04
  11   1     0.23   0.06   0.04    -0.03  -0.01  -0.10    -0.00   0.01  -0.04
  12   1    -0.10  -0.18  -0.06     0.16   0.09  -0.02     0.07   0.01  -0.00
  13   1    -0.13   0.07   0.07    -0.48   0.08   0.10    -0.49  -0.06   0.05
  14   1    -0.01   0.02   0.02     0.30  -0.02  -0.11    -0.68  -0.03   0.07
                     19                     20                     21
                        a                      a                      a 
 Frequencies --  1314.6154              1332.4769              1413.0665
 Red. masses --     4.5919                 4.3803                 3.0635
 Frc consts  --     0.0000                 0.0000                 0.0000
 IR Inten    --     3.1230                 3.8897                 8.6208
 Raman Activ --     0.0000                 0.0000                 0.0000
 Depolar     --     0.0000                 0.0000                 0.0000
 Atom AN      X      Y      Z        X      Y      Z        X      Y      Z
   1   6     0.09   0.07   0.09    -0.04   0.06   0.12    -0.01   0.31  -0.06
   2   6    -0.31  -0.40   0.05     0.31  -0.38  -0.07    -0.01  -0.06  -0.00
   3   6     0.02   0.10  -0.15    -0.03   0.09   0.06     0.24   0.15   0.03
   4   6     0.11   0.06   0.03    -0.14   0.07  -0.10    -0.01   0.04   0.03
   5  35     0.01   0.01   0.00    -0.00  -0.00  -0.01     0.00   0.00   0.00
   6   1    -0.04   0.03  -0.07    -0.00   0.14  -0.07    -0.09  -0.31   0.15
   7   1    -0.04   0.15  -0.07     0.00   0.04  -0.09     0.17  -0.32   0.14
   8   1    -0.04  -0.03   0.02     0.05  -0.02   0.01    -0.02  -0.39  -0.04
   9   1     0.52   0.48  -0.09    -0.54   0.49   0.16     0.05   0.07  -0.01
  10   1     0.12   0.00   0.07    -0.05  -0.09  -0.00    -0.22  -0.21  -0.15
  11   1     0.12   0.03   0.08     0.05   0.02  -0.02    -0.35  -0.03  -0.03
  12   1    -0.06  -0.05  -0.02     0.01  -0.07  -0.03    -0.27  -0.23   0.05
  13   1    -0.11  -0.06   0.01     0.23  -0.00  -0.06     0.01  -0.08  -0.01
  14   1    -0.24  -0.01  -0.01    -0.06   0.05   0.12     0.00  -0.01  -0.08
                     22                     23                     24
                        a                      a                      a 
 Frequencies --  1424.7393              1439.4545              1490.8778
 Red. masses --     2.9053                 2.0596                 1.5615
 Frc consts  --     0.0000                 0.0000                 0.0000
 IR Inten    --     8.4500                 1.1891                 0.9884
 Raman Activ --     0.0000                 0.0000                 0.0000
 Depolar     --     0.0000                 0.0000                 0.0000
 Atom AN      X      Y      Z        X      Y      Z        X      Y      Z
   1   6     0.04  -0.26   0.06    -0.02  -0.12   0.03     0.14  -0.02  -0.08
   2   6    -0.05   0.03  -0.00     0.05   0.04  -0.00     0.03   0.01   0.01
   3   6     0.27   0.13   0.04     0.04   0.01   0.00    -0.06   0.03   0.13
   4   6     0.00  -0.06  -0.03    -0.05   0.20   0.18    -0.01   0.02   0.02
   5  35    -0.00  -0.00  -0.00     0.01   0.01   0.00     0.00   0.00   0.00
   6   1     0.06   0.27  -0.17     0.05   0.11  -0.02    -0.01   0.18  -0.20
   7   1    -0.15   0.27  -0.08    -0.06   0.12  -0.08    -0.06  -0.05   0.42
   8   1    -0.05   0.33   0.05     0.07   0.14   0.00    -0.49  -0.08   0.09
   9   1     0.08  -0.04  -0.03    -0.05  -0.01   0.01     0.00   0.01   0.00
  10   1    -0.26  -0.19  -0.19    -0.06  -0.05  -0.04     0.12   0.21   0.07
  11   1    -0.37  -0.04  -0.05    -0.07  -0.01   0.02     0.01   0.02  -0.46
  12   1    -0.31  -0.22   0.08    -0.05  -0.01   0.02     0.06  -0.36  -0.15
  13   1    -0.01   0.18   0.02     0.05  -0.64  -0.07     0.00  -0.07  -0.01
  14   1     0.06   0.04   0.16    -0.04  -0.14  -0.62    -0.00  -0.02  -0.06
                     25                     26                     27
                        a                      a                      a 
 Frequencies --  1495.4462              1502.1914              1503.9685
 Red. masses --     1.5573                 1.5565                 1.5197
 Frc consts  --     0.0000                 0.0000                 0.0000
 IR Inten    --     6.4309                 3.7721                 2.8943
 Raman Activ --     0.0000                 0.0000                 0.0000
 Depolar     --     0.0000                 0.0000                 0.0000
 Atom AN      X      Y      Z        X      Y      Z        X      Y      Z
   1   6     0.05   0.01   0.13     0.12  -0.01  -0.06     0.08   0.05   0.12
   2   6    -0.01   0.07   0.03     0.06  -0.01  -0.06     0.05  -0.02   0.03
   3   6    -0.07   0.14  -0.04     0.00  -0.01  -0.15     0.05  -0.13   0.02
   4   6     0.00  -0.00  -0.00    -0.02   0.01   0.01    -0.01   0.01   0.01
   5  35    -0.00  -0.00   0.00    -0.00  -0.00   0.00    -0.00   0.00  -0.00
   6   1    -0.30  -0.17  -0.29    -0.02   0.17  -0.19    -0.35  -0.15  -0.37
   7   1     0.19  -0.19  -0.30    -0.05  -0.05   0.37     0.21  -0.25  -0.20
   8   1    -0.08   0.25   0.05    -0.44  -0.09   0.08    -0.22   0.23   0.07
   9   1    -0.00  -0.05   0.00    -0.04   0.00  -0.00    -0.00  -0.01   0.01
  10   1     0.23  -0.34   0.30    -0.06  -0.32   0.02    -0.20   0.30  -0.26
  11   1    -0.28  -0.03   0.05    -0.05  -0.03   0.52     0.25   0.03  -0.04
  12   1     0.31  -0.20  -0.22     0.06   0.37   0.09    -0.28   0.18   0.20
  13   1     0.00  -0.01  -0.00     0.00  -0.01   0.00     0.02  -0.03  -0.01
  14   1     0.02  -0.00  -0.01     0.01  -0.00  -0.01    -0.02  -0.01  -0.02
                     28                     29                     30
                        a                      a                      a 
 Frequencies --  2934.9597              2989.2084              2993.1076
 Red. masses --     1.7470                 1.8724                 1.6388
 Frc consts  --     0.0000                 0.0000                 0.0000
 IR Inten    --    26.6265                11.1805                10.3125
 Raman Activ --     0.0000                 0.0000                 0.0000
 Depolar     --     0.0000                 0.0000                 0.0000
 Atom AN      X      Y      Z        X      Y      Z        X      Y      Z
   1   6     0.00   0.00   0.01     0.01   0.00  -0.01     0.00  -0.00  -0.02
   2   6    -0.06   0.01  -0.25     0.00  -0.01   0.02     0.00  -0.00   0.02
   3   6    -0.00  -0.00   0.01    -0.00   0.02   0.00     0.00  -0.01  -0.01
   4   6     0.00  -0.01   0.02     0.03  -0.25   0.12     0.02   0.02   0.23
   5  35     0.00   0.00   0.00    -0.00  -0.00   0.00     0.00   0.00   0.00
   6   1     0.01  -0.01  -0.01    -0.01   0.01   0.01    -0.02   0.01   0.01
   7   1    -0.02  -0.01  -0.00    -0.01  -0.01  -0.00    -0.00  -0.00  -0.00
   8   1    -0.01   0.01  -0.05     0.01  -0.00   0.04     0.01  -0.00   0.06
   9   1     0.21  -0.06   0.93    -0.01   0.00  -0.05    -0.02   0.00  -0.06
  10   1     0.02  -0.01  -0.02     0.00   0.00  -0.01    -0.02   0.00   0.02
  11   1    -0.00   0.00   0.00     0.01  -0.05  -0.00    -0.01   0.03   0.00
  12   1    -0.02   0.01  -0.04     0.00  -0.00   0.01     0.02  -0.01   0.03
  13   1    -0.01   0.01  -0.08    -0.02  -0.01  -0.19    -0.12   0.12  -0.92
  14   1    -0.00   0.03  -0.01    -0.06   0.91  -0.22     0.02  -0.21   0.08
                     31                     32                     33
                        a                      a                      a 
 Frequencies --  3019.9224              3031.2275              3037.0869
 Red. masses --     1.8040                 1.9099                 1.7449
 Frc consts  --     0.0000                 0.0000                 0.0000
 IR Inten    --    22.5818                33.7043                27.4908
 Raman Activ --     0.0000                 0.0000                 0.0000
 Depolar     --     0.0000                 0.0000                 0.0000
 Atom AN      X      Y      Z        X      Y      Z        X      Y      Z
   1   6    -0.06  -0.00  -0.26     0.06   0.00  -0.05     0.18   0.05  -0.03
   2   6    -0.00   0.00  -0.02    -0.00   0.01  -0.01     0.00  -0.00  -0.01
   3   6     0.02  -0.04   0.04    -0.09   0.25  -0.05    -0.02  -0.06  -0.16
   4   6    -0.00   0.01  -0.02    -0.00   0.01  -0.01    -0.00   0.00  -0.01
   5  35    -0.00   0.00  -0.00     0.00  -0.00   0.00    -0.00  -0.00  -0.00
   6   1    -0.07   0.03   0.00    -0.12   0.07   0.08    -0.17   0.12   0.13
   7   1     0.09   0.05  -0.01    -0.12  -0.07  -0.04    -0.53  -0.30  -0.14
   8   1     0.18  -0.07   0.92     0.04  -0.01   0.13     0.05  -0.00   0.10
   9   1     0.01  -0.00   0.05     0.00  -0.00   0.02     0.01  -0.00   0.03
  10   1     0.01  -0.01  -0.01     0.07   0.01  -0.11    -0.10   0.03   0.10
  11   1    -0.01   0.09   0.01     0.12  -0.83  -0.04    -0.06   0.38  -0.01
  12   1    -0.06   0.04  -0.13     0.13  -0.08   0.31     0.22  -0.18   0.47
  13   1     0.01  -0.01   0.06     0.00   0.00   0.01     0.01  -0.01   0.05
  14   1     0.00  -0.02   0.00     0.01  -0.06   0.01    -0.00   0.01  -0.00
                     34                     35                     36
                        a                      a                      a 
 Frequencies --  3038.7815              3045.9419              3050.4829
 Red. masses --     1.8692                 1.4523                 1.5072
 Frc consts  --     0.0000                 0.0000                 0.0000
 IR Inten    --    38.4845                16.8593                27.7305
 Raman Activ --     0.0000                 0.0000                 0.0000
 Depolar     --     0.0000                 0.0000                 0.0000
 Atom AN      X      Y      Z        X      Y      Z        X      Y      Z
   1   6     0.19   0.05   0.01    -0.08   0.14   0.10     0.06  -0.04  -0.03
   2   6     0.01   0.00   0.02    -0.00   0.01   0.00     0.01  -0.00  -0.01
   3   6     0.02  -0.01   0.20     0.04   0.02  -0.04     0.16  -0.02  -0.11
   4   6     0.00   0.00   0.01     0.00   0.00   0.00    -0.00   0.00  -0.00
   5  35    -0.00  -0.00  -0.00    -0.00  -0.00  -0.00     0.00   0.00  -0.00
   6   1    -0.18   0.12   0.14     0.62  -0.34  -0.42    -0.23   0.13   0.16
   7   1    -0.50  -0.29  -0.13    -0.36  -0.18  -0.07     0.03   0.01   0.00
   8   1     0.02   0.01  -0.04     0.01   0.01   0.13     0.00  -0.00  -0.04
   9   1    -0.01   0.00  -0.05    -0.00   0.00  -0.01     0.01  -0.00   0.02
  10   1     0.18  -0.06  -0.18    -0.16   0.06   0.19    -0.55   0.18   0.65
  11   1     0.01  -0.09   0.03     0.03  -0.14  -0.01     0.05  -0.19  -0.02
  12   1    -0.27   0.20  -0.56    -0.02   0.02  -0.06    -0.08   0.07  -0.23
  13   1    -0.00   0.00  -0.03    -0.00   0.00  -0.01     0.00  -0.00   0.01
  14   1     0.00  -0.02   0.01     0.00  -0.00   0.00    -0.00   0.00  -0.00
