      -----------------------------------------------------------      
     |                   =====================                   |     
     |                           x T B                           |     
     |                   =====================                   |     
     |                         S. Grimme                         |     
     |          Mulliken Center for Theoretical Chemistry        |     
     |                    University of Bonn                     |     
      -----------------------------------------------------------      

   * xtb version 6.7.1 (edcfbbe) compiled by 'albert@albert-system' on 2024-07-22

   xtb is free software: you can redistribute it and/or modify it under
   the terms of the GNU Lesser General Public License as published by
   the Free Software Foundation, either version 3 of the License, or
   (at your option) any later version.
   
   xtb is distributed in the hope that it will be useful,
   but WITHOUT ANY WARRANTY; without even the implied warranty of
   MERCHANTABILITY or FITNESS FOR A PARTICULAR PURPOSE.  See the
   GNU Lesser General Public License for more details.
   
   Cite this work as:
   * C. Bannwarth, E. Caldeweyher, S. Ehlert, A. Hansen, P. Pracht,
     J. Seibert, S. Spicher, S. Grimme, WIREs Comput. Mol. Sci., 2020, 11,
     e01493. DOI: 10.1002/wcms.1493
   
   for GFN2-xTB:
   * C. Bannwarth, S. Ehlert and S. Grimme., J. Chem. Theory Comput., 2019,
     15, 1652-1671. DOI: 10.1021/acs.jctc.8b01176
   for GFN1-xTB:
   * S. Grimme, C. Bannwarth, P. Shushkov, J. Chem. Theory Comput., 2017,
     13, 1989-2009. DOI: 10.1021/acs.jctc.7b00118
   for GFN0-xTB:
   * P. Pracht, E. Caldeweyher, S. Ehlert, S. Grimme, ChemRxiv, 2019, preprint.
     DOI: 10.26434/chemrxiv.8326202.v1
   for GFN-FF:
   * S. Spicher and S. Grimme, Angew. Chem. Int. Ed., 2020, 59, 15665-15673.
     DOI: 10.1002/anie.202004239
   
   for ALPB and GBSA implicit solvation:
   * S. Ehlert, M. Stahn, S. Spicher, S. Grimme, J. Chem. Theory Comput.,
     2021, 17, 4250-4261. DOI: 10.1021/acs.jctc.1c00471
   
   for ddCOSMO and CPCM-X implicit solvation:
   * M. Stahn, S. Ehlert, S. Grimme, J. Phys. Chem. A,
     2023, XX, XXXX-XXXX. DOI: 10.1021/acs.jpca.3c04382
   
   for DFT-D4:
   * E. Caldeweyher, C. Bannwarth and S. Grimme, J. Chem. Phys., 2017,
     147, 034112. DOI: 10.1063/1.4993215
   * E. Caldeweyher, S. Ehlert, A. Hansen, H. Neugebauer, S. Spicher,
     C. Bannwarth and S. Grimme, J. Chem. Phys., 2019, 150, 154122.
     DOI: 10.1063/1.5090222
   * E. Caldeweyher, J.-M. Mewes, S. Ehlert and S. Grimme, Phys. Chem. Chem. Phys.
     2020, 22, 8499-8512. DOI: 10.1039/D0CP00502A
   
   for sTDA-xTB:
   * S. Grimme and C. Bannwarth, J. Chem. Phys., 2016, 145, 054103.
     DOI: 10.1063/1.4959605
   
   in the mass-spec context:
   * V. Asgeirsson, C. Bauer and S. Grimme, Chem. Sci., 2017, 8, 4879.
     DOI: 10.1039/c7sc00601b
   * J. Koopman and S. Grimme, ACS Omega 2019, 4, 12, 15120-15133.
     DOI: 10.1021/acsomega.9b02011
   
   for metadynamics refer to:
   * S. Grimme, J. Chem. Theory Comput., 2019, 155, 2847-2862
     DOI: 10.1021/acs.jctc.9b00143
   
   for SPH calculations refer to:
   * S. Spicher and S. Grimme, J. Chem. Theory Comput., 2021, 17, 1701-1714
     DOI: 10.1021/acs.jctc.0c01306
   
   for ONIOM refer to:
   * C. Plett, A. Katbashev, S. Ehlert, S. Grimme, M. Bursch,
     Phys. Chem. Chem. Phys., 2023, 25, 17860-17868. DOI: 10.1039/D3CP02178E
   
   for DIPRO refer to:
   * J. Kohn, N. Gildemeister, S. Grimme, D. Fazzi, A. Hansen,
     J. Chem. Phys., 2023, just accepted.
   
   for PTB refer to:
   * S. Grimme, M. Mueller, A. Hansen, J. Chem. Phys., 2023, 158, 124111.
     DOI: 10.1063/5.0137838
   
   with help from (in alphabetical order)
   P. Atkinson, C. Bannwarth, F. Bohle, G. Brandenburg, E. Caldeweyher
   M. Checinski, S. Dohm, S. Ehlert, S. Ehrlich, I. Gerasimov, C. Hölzer
   A. Katbashev, J. Kohn, J. Koopman, C. Lavigne, S. Lehtola, F. März, M. Müller,
   F. Musil, H. Neugebauer, J. Pisarek, C. Plett, P. Pracht, F. Pultar,
   J. Seibert, P. Shushkov, S. Spicher, M. Stahn, M. Steiner, T. Strunk,
   J. Stückrath, T. Rose, and J. Unsleber
   
 * started run on 2025/04/15 at 19:31:40.343     
   ID    Z sym.   atoms
    1    6 C      1-8
    2    1 H      9-26

           -------------------------------------------------
          |                Calculation Setup                |
           -------------------------------------------------

          program call               : /software/projects/pawsey0265/mwang1/xtb/bin/xtb xtb_rrho.coord --gfn2 --bhess vtight --chrg 0 --enso --norestart -I rrho-xcontrol-inp --parallel 1
          hostname                   : nid002803
          coordinate file            : xtb_rrho.coord
          omp threads                :                     1


           -------------------------------------------------
          |                 G F N 2 - x T B                 |
           -------------------------------------------------

        Reference                      10.1021/acs.jctc.8b01176
      * Hamiltonian:
        H0-scaling (s, p, d)           1.850000    2.230000    2.230000
        zeta-weighting                 0.500000
      * Dispersion:
        s8                             2.700000
        a1                             0.520000
        a2                             5.000000
        s9                             5.000000
      * Repulsion:
        kExp                           1.500000    1.000000
        rExp                           1.000000
      * Coulomb:
        alpha                          2.000000
        third order                    shell-resolved
        anisotropic                    true
        a3                             3.000000
        a5                             4.000000
        cn-shift                       1.200000
        cn-exp                         4.000000
        max-rad                        5.000000


          ...................................................
          :                      SETUP                      :
          :.................................................:
          :  # basis functions                  50          :
          :  # atomic orbitals                  50          :
          :  # shells                           34          :
          :  # electrons                        50          :
          :  max. iterations                   250          :
          :  Hamiltonian                  GFN2-xTB          :
          :  restarted?                      false          :
          :  GBSA solvation                  false          :
          :  PC potential                    false          :
          :  electronic temp.          300.0000000     K    :
          :  accuracy                    1.0000000          :
          :  -> integral cutoff          0.2500000E+02      :
          :  -> integral neglect         0.1000000E-07      :
          :  -> SCF convergence          0.1000000E-05 Eh   :
          :  -> wf. convergence          0.1000000E-03 e    :
          :  Broyden damping             0.4000000          :
          :  net charge                          0          :
          :  unpaired electrons                  0          :
          ...................................................

 iter      E             dE          RMSdq      gap      omega  full diag
   1    -26.6336105 -0.266336E+02  0.233E+00   12.32       0.0  T
   2    -26.6974672 -0.638567E-01  0.129E+00   12.10       1.0  T
   3    -26.6986926 -0.122543E-02  0.668E-01   12.12       1.0  T
   4    -26.6988126 -0.119948E-03  0.198E-01   12.10       1.0  T
   5    -26.6991273 -0.314705E-03  0.627E-02   12.11       1.0  T
   6    -26.6991263  0.948057E-06  0.105E-02   12.11       1.9  T
   7    -26.6991279 -0.162551E-05  0.189E-03   12.11      10.4  T
   8    -26.6991280 -0.120625E-07  0.604E-04   12.11      32.5  T
   9    -26.6991280 -0.168428E-08  0.164E-04   12.11     119.6  T

   *** convergence criteria satisfied after 9 iterations ***

         #    Occupation            Energy/Eh            Energy/eV
      -------------------------------------------------------------
         1        2.0000           -0.6236932             -16.9716
       ...           ...                  ...                  ...
        19        2.0000           -0.4428366             -12.0502
        20        2.0000           -0.4407213             -11.9926
        21        2.0000           -0.4311120             -11.7312
        22        2.0000           -0.4275442             -11.6341
        23        2.0000           -0.4173504             -11.3567
        24        2.0000           -0.4148744             -11.2893
        25        2.0000           -0.4012960             -10.9198 (HOMO)
        26                          0.0435978               1.1864 (LUMO)
        27                          0.0702127               1.9106
        28                          0.0805723               2.1925
        29                          0.0825140               2.2453
        30                          0.0959841               2.6119
       ...                                ...                  ...
        50                          0.3160373               8.5998
      -------------------------------------------------------------
                  HL-Gap            0.4448938 Eh           12.1062 eV
             Fermi-level           -0.1788491 Eh           -4.8667 eV

 SCC (total)                   0 d,  0 h,  0 min,  0.030 sec
 SCC setup                      ...        0 min,  0.000 sec (  0.934%)
 Dispersion                     ...        0 min,  0.000 sec (  0.807%)
 classical contributions        ...        0 min,  0.000 sec (  0.188%)
 integral evaluation            ...        0 min,  0.003 sec ( 11.206%)
 iterations                     ...        0 min,  0.016 sec ( 53.748%)
 molecular gradient             ...        0 min,  0.010 sec ( 32.444%)
 printout                       ...        0 min,  0.000 sec (  0.592%)

         :::::::::::::::::::::::::::::::::::::::::::::::::::::
         ::                     SUMMARY                     ::
         :::::::::::::::::::::::::::::::::::::::::::::::::::::
         :: total energy             -26.318558479895 Eh    ::
         :: gradient norm              0.020948036336 Eh/a0 ::
         :: HOMO-LUMO gap             12.106176042611 eV    ::
         ::.................................................::
         :: SCC energy               -26.698949319959 Eh    ::
         :: -> isotropic ES            0.005724170651 Eh    ::
         :: -> anisotropic ES          0.010244338338 Eh    ::
         :: -> anisotropic XC          0.016410841529 Eh    ::
         :: -> dispersion             -0.018742677263 Eh    ::
         :: repulsion energy           0.380390840064 Eh    ::
         :: add. restraining           0.000000000000 Eh    ::
         :: total charge               0.000000000000 e     ::
         :::::::::::::::::::::::::::::::::::::::::::::::::::::

metadynamics with 1 initial structures loaded
           -------------------------------------------------
          |           Optimal kpush determination           |
           -------------------------------------------------
      ----------------------------------------------------------- 
     |                   =====================                   |
     |                        A N C O P T                        |
     |                   =====================                   |
     |               Approximate Normal Coordinate               |
     |                Rational Function Optimizer                |
      ----------------------------------------------------------- 
target rmsd / Å         0.100000
unbiased initial rmsd   0.024496
 
iter. min.        max.        rmsd       kpush
final kpush:  0.000000
           -------------------------------------------------
          |            Biased Numerical Hessian             |
           -------------------------------------------------
kpush                :   0.00000
alpha                :   1.00000
step length          :   0.00500
SCC accuracy         :   0.30000
Hessian scale factor :   1.00000
frozen atoms in %    :   0.00000    0
RMS gradient         :   0.00003
estimated CPU  time      0.04 min
estimated wall time      0.04 min

writing file <hessian>.

 projected vibrational frequencies (cm⁻¹)
eigval :       -0.00    -0.00    -0.00     0.00     0.00     0.00
eigval :       62.90   111.98   193.11   215.89   237.70   243.27
eigval :      277.85   286.70   293.96   300.09   371.64   377.02
eigval :      418.29   418.99   431.29   594.55   756.56   855.52
eigval :      883.55   942.59   945.46   960.24   963.59   968.59
eigval :      991.39  1016.12  1039.92  1041.56  1121.67  1125.98
eigval :     1211.30  1225.86  1231.85  1278.99  1312.13  1347.56
eigval :     1352.81  1384.91  1406.02  1408.29  1410.95  1424.25
eigval :     1433.50  1484.50  1489.66  1493.10  1499.57  1500.95
eigval :     1506.65  1510.88  1514.04  1521.41  1524.88  1528.69
eigval :     2891.00  2947.43  2963.82  3016.45  3017.97  3020.05
eigval :     3022.85  3023.34  3027.79  3030.46  3031.81  3035.47
eigval :     3039.55  3041.14  3042.40  3048.80  3069.60  3076.32
           -------------------------------------------------
          |                Property Printout                |
           -------------------------------------------------

    * Orbital Energies and Occupations

         #    Occupation            Energy/Eh            Energy/eV
      -------------------------------------------------------------
         1        2.0000           -0.6252588             -17.0142
       ...           ...                  ...                  ...
        13        2.0000           -0.4810574             -13.0902
        14        2.0000           -0.4759943             -12.9525
        15        2.0000           -0.4632616             -12.6060
        16        2.0000           -0.4573172             -12.4442
        17        2.0000           -0.4510029             -12.2724
        18        2.0000           -0.4438263             -12.0771
        19        2.0000           -0.4432336             -12.0610
        20        2.0000           -0.4407943             -11.9946
        21        2.0000           -0.4309070             -11.7256
        22        2.0000           -0.4270774             -11.6214
        23        2.0000           -0.4171096             -11.3501
        24        2.0000           -0.4141738             -11.2702
        25        2.0000           -0.4015666             -10.9272 (HOMO)
        26                          0.0499626               1.3596 (LUMO)
        27                          0.0781257               2.1259
        28                          0.0884121               2.4058
        29                          0.0893981               2.4326
        30                          0.1058284               2.8797
        31                          0.1244129               3.3854
        32                          0.1292873               3.5181
        33                          0.1403498               3.8191
        34                          0.1735107               4.7215
        35                          0.1828394               4.9753
        36                          0.1894115               5.1541
       ...                                ...                  ...
        50                          0.3291442               8.9565
      -------------------------------------------------------------
                  HL-Gap            0.4515292 Eh           12.2867 eV
             Fermi-level           -0.1758020 Eh           -4.7838 eV

     #   Z          covCN         q      C6AA      α(0)
     1   6 C        3.754    -0.106    22.591     6.777
     2   6 C        3.847    -0.007    20.668     6.467
     3   6 C        3.754    -0.102    22.506     6.765
     4   6 C        3.806    -0.071    21.853     6.655
     5   6 C        3.896     0.031    19.994     6.356
     6   6 C        3.766    -0.109    22.624     6.779
     7   6 C        3.760    -0.105    22.562     6.771
     8   6 C        3.761    -0.110    22.642     6.783
     9   1 H        0.925     0.030     2.592     2.518
    10   1 H        0.925     0.029     2.605     2.524
    11   1 H        0.925     0.040     2.452     2.449
    12   1 H        0.923     0.024     2.675     2.558
    13   1 H        0.925     0.035     2.523     2.484
    14   1 H        0.925     0.034     2.535     2.490
    15   1 H        0.925     0.029     2.596     2.520
    16   1 H        0.924     0.029     2.600     2.522
    17   1 H        0.924     0.033     2.551     2.498
    18   1 H        0.925     0.033     2.541     2.493
    19   1 H        0.925     0.031     2.573     2.508
    20   1 H        0.925     0.031     2.569     2.506
    21   1 H        0.925     0.035     2.521     2.483
    22   1 H        0.925     0.036     2.505     2.475
    23   1 H        0.925     0.031     2.570     2.507
    24   1 H        0.925     0.030     2.588     2.516
    25   1 H        0.925     0.040     2.451     2.448
    26   1 H        0.925     0.031     2.570     2.507

 Mol. C6AA /au·bohr⁶  :       4373.182838
 Mol. C8AA /au·bohr⁸  :      90637.546231
 Mol. α(0) /au        :         98.358949


Wiberg/Mayer (AO) data.
largest (>0.10) Wiberg bond orders for each atom

 ---------------------------------------------------------------------------
     #   Z sym  total        # sym  WBO       # sym  WBO       # sym  WBO
 ---------------------------------------------------------------------------
     1   6 C    3.997 --     2 C    1.009    10 H    0.987     9 H    0.986
                            11 H    0.983
     2   6 C    3.995 --     3 C    1.010     1 C    1.009     4 C    0.993
                            12 H    0.969
     3   6 C    3.997 --     2 C    1.010    15 H    0.986    13 H    0.986
                            14 H    0.982
     4   6 C    3.994 --     2 C    0.993     5 C    0.984    16 H    0.976
                            17 H    0.974
     5   6 C    3.991 --     7 C    1.000     8 C    1.000     6 C    0.995
                             4 C    0.984
     6   6 C    3.996 --     5 C    0.995    20 H    0.987    19 H    0.986
                            18 H    0.985
     7   6 C    3.997 --     5 C    1.000    22 H    0.985    23 H    0.985
                            21 H    0.981
     8   6 C    3.996 --     5 C    1.000    24 H    0.986    26 H    0.986
                            25 H    0.981
     9   1 H    0.999 --     1 C    0.986
    10   1 H    0.999 --     1 C    0.987
    11   1 H    0.998 --     1 C    0.983
    12   1 H    0.999 --     2 C    0.969
    13   1 H    0.999 --     3 C    0.986
    14   1 H    0.999 --     3 C    0.982
    15   1 H    0.999 --     3 C    0.986
    16   1 H    0.999 --     4 C    0.976
    17   1 H    0.999 --     4 C    0.974
    18   1 H    0.999 --     6 C    0.985
    19   1 H    0.999 --     6 C    0.986
    20   1 H    0.999 --     6 C    0.987
    21   1 H    0.999 --     7 C    0.981
    22   1 H    0.999 --     7 C    0.985
    23   1 H    0.999 --     7 C    0.985
    24   1 H    0.999 --     8 C    0.986
    25   1 H    0.998 --     8 C    0.981
    26   1 H    0.999 --     8 C    0.986
 ---------------------------------------------------------------------------

Topologies differ in total number of bonds
Writing topology from bond orders to xtbtopo.mol

molecular dipole:
                 x           y           z       tot (Debye)
 q only:       -0.007       0.021       0.018
   full:       -0.005       0.002       0.002       0.014
molecular quadrupole (traceless):
                xx          xy          yy          xz          yz          zz
 q only:       -0.332       0.070       0.147      -0.034      -0.002       0.185
  q+dip:        0.057       0.555       0.151       0.192       0.222      -0.208
   full:        0.018       0.297       0.070       0.059       0.126      -0.088

           -------------------------------------------------
          |                Geometry Summary                 |
           -------------------------------------------------

      molecular mass/u    :      114.2288207
   center of mass at/Å    :        0.0000064       0.0000204      -0.0000004
  moments of inertia/u·Å² :        0.1784940E+03   0.3753412E+03   0.4156198E+03
rotational constants/cm⁻¹ :        0.9444367E-01   0.4491282E-01   0.4056022E-01

 * 23 selected distances

     #   Z          #   Z                                           value/Å
     1   6 C        2   6 C                                       1.5292875
     2   6 C        3   6 C                                       1.5260200
     5   6 C        6   6 C                                       1.5367973 (max)
     5   6 C        7   6 C                                       1.5284044
     5   6 C        8   6 C                                       1.5318320
     1   6 C        9   1 H                                       1.0877669
     1   6 C       10   1 H                                       1.0887099
     1   6 C       11   1 H                                       1.0848154
     2   6 C       12   1 H                                       1.0989866
     3   6 C       13   1 H                                       1.0870974
     3   6 C       14   1 H                                       1.0866112
     3   6 C       15   1 H                                       1.0888121
     4   6 C       16   1 H                                       1.0940372
     4   6 C       17   1 H                                       1.0938234
     6   6 C       18   1 H                                       1.0879243
     6   6 C       19   1 H                                       1.0880236
     6   6 C       20   1 H                                       1.0879800
     7   6 C       21   1 H                                       1.0860248
     7   6 C       22   1 H                                       1.0870067
     7   6 C       23   1 H                                       1.0888624
     8   6 C       24   1 H                                       1.0879720
     8   6 C       25   1 H                                       1.0843438 (min)
     8   6 C       26   1 H                                       1.0886259

 * 2 distinct bonds (by element types)

   Z      Z             #   av. dist./Å        max./Å        min./Å
   1 H    6 C          18     1.0887458     1.0989866     1.0843438
   6 C    6 C           5     1.5304682     1.5367973     1.5260200

           -------------------------------------------------
          |               Frequency Printout                |
           -------------------------------------------------
 projected vibrational frequencies (cm⁻¹)
eigval :       -0.00    -0.00    -0.00     0.00     0.00     0.00
eigval :       62.90   111.98   193.11   215.89   237.70   243.27
eigval :      277.85   286.70   293.96   300.09   371.64   377.02
eigval :      418.29   418.99   431.29   594.55   756.56   855.52
eigval :      883.55   942.59   945.46   960.24   963.59   968.59
eigval :      991.39  1016.12  1039.92  1041.56  1121.67  1125.98
eigval :     1211.30  1225.86  1231.85  1278.99  1312.13  1347.56
eigval :     1352.81  1384.91  1406.02  1408.29  1410.95  1424.25
eigval :     1433.50  1484.50  1489.66  1493.10  1499.57  1500.95
eigval :     1506.65  1510.88  1514.04  1521.41  1524.88  1528.69
eigval :     2891.00  2947.43  2963.82  3016.45  3017.97  3020.05
eigval :     3022.85  3023.34  3027.79  3030.46  3031.81  3035.47
eigval :     3039.55  3041.14  3042.40  3048.80  3069.60  3076.32
 reduced masses (amu)
   1:  9.93   2:  9.73   3:  9.29   4: 10.06   5:  9.42   6:  9.26   7:  8.30   8:  5.97
   9:  3.93  10:  5.33  11:  4.00  12:  3.22  13:  8.17  14:  1.47  15:  4.53  16:  4.39
  17:  7.37  18:  7.58  19:  7.42  20:  7.37  21:  7.22  22:  8.10  23:  9.83  24:  8.78
  25:  5.69  26:  5.90  27:  3.45  28:  4.91  29:  3.30  30:  5.05  31:  4.15  32:  5.75
  33:  4.34  34:  4.23  35:  6.13  36:  5.11  37:  7.47  38:  7.37  39:  7.23  40:  9.52
  41:  4.97  42:  4.84  43:  4.22  44:  3.77  45:  3.34  46:  3.39  47:  3.15  48:  3.13
  49:  2.99  50:  1.81  51:  1.58  52:  1.60  53:  1.67  54:  1.57  55:  1.59  56:  1.59
  57:  1.59  58:  1.58  59:  1.59  60:  1.56  61:  1.74  62:  1.97  63:  1.50  64:  1.87
  65:  1.86  66:  1.89  67:  1.91  68:  1.88  69:  1.87  70:  1.61  71:  1.64  72:  1.34
  73:  1.85  74:  1.74  75:  1.39  76:  1.56  77:  1.65  78:  1.65
 IR intensities (km·mol⁻¹)
   1:  0.00   2:  0.00   3:  0.00   4:  0.00   5:  0.00   6:  0.00   7:  0.00   8:  0.06
   9:  0.01  10:  0.38  11:  0.17  12:  0.21  13:  0.17  14:  0.18  15:  0.12  16:  0.17
  17:  0.16  18:  0.17  19:  1.80  20:  0.23  21:  0.13  22:  1.32  23:  0.15  24:  0.42
  25:  1.60  26:  3.67  27:  2.62  28:  1.11  29:  0.37  30:  1.13  31:  0.21  32:  6.91
  33:  0.42  34:  0.30  35:  0.52  36:  3.39  37:  4.41  38: 14.58  39: 16.60  40: 21.11
  41: 10.72  42:  5.95  43:  7.32  44:  0.29  45:  3.93  46:  0.38  47:  4.90  48:  3.40
  49:  2.74  50:  0.04  51:  0.02  52:  3.23  53:  0.82  54:  0.18  55:  0.83  56:  2.67
  57:  2.32  58:  2.08  59:  1.71  60:  2.05  61: 54.25  62: 48.35  63: 40.47  64:  3.82
  65: 16.61  66: 15.82  67: 48.01  68: 73.61  69:102.41  70: 38.84  71: 50.48  72: 51.78
  73: 33.50  74: 38.04  75: 43.70  76: 30.04  77: 35.19  78: 35.54
 Raman intensities (Ä⁴*amu⁻¹)
   1:  0.00   2:  0.00   3:  0.00   4:  0.00   5:  0.00   6:  0.00   7:  0.00   8:  0.00
   9:  0.00  10:  0.00  11:  0.00  12:  0.00  13:  0.00  14:  0.00  15:  0.00  16:  0.00
  17:  0.00  18:  0.00  19:  0.00  20:  0.00  21:  0.00  22:  0.00  23:  0.00  24:  0.00
  25:  0.00  26:  0.00  27:  0.00  28:  0.00  29:  0.00  30:  0.00  31:  0.00  32:  0.00
  33:  0.00  34:  0.00  35:  0.00  36:  0.00  37:  0.00  38:  0.00  39:  0.00  40:  0.00
  41:  0.00  42:  0.00  43:  0.00  44:  0.00  45:  0.00  46:  0.00  47:  0.00  48:  0.00
  49:  0.00  50:  0.00  51:  0.00  52:  0.00  53:  0.00  54:  0.00  55:  0.00  56:  0.00
  57:  0.00  58:  0.00  59:  0.00  60:  0.00  61:  0.00  62:  0.00  63:  0.00  64:  0.00
  65:  0.00  66:  0.00  67:  0.00  68:  0.00  69:  0.00  70:  0.00  71:  0.00  72:  0.00
  73:  0.00  74:  0.00  75:  0.00  76:  0.00  77:  0.00  78:  0.00
 output can be read by thermo (or use thermo option).
 writing <g98.out> molden fake output.
 recommended (thermochemical) frequency scaling factor: 1.0
           -------------------------------------------------
          |             Thermodynamic Functions             |
           -------------------------------------------------

Molecule has no symmetry elements
It seems to be the C1 point group
c1  symmetry found (for desy threshold:  0.10E+00) used in thermo

          ...................................................
          :                      SETUP                      :
          :.................................................:
          :  # frequencies                          72      :
          :  # imaginary freq.                       0      :
          :  linear?                             false      :
          :  only rotor calc.                    false      :
          :  symmetry                               c1      :
          :  rotational number                       1      :
          :  scaling factor                  1.0000000      :
          :  rotor cutoff                    0.0000000 cm⁻¹ :
          :  imag. cutoff                 -100.0000000 cm⁻¹ :
          :.................................................:

    mode    ω/cm⁻¹     T·S(HO)/kcal·mol⁻¹    T·S(FR)/kcal·mol⁻¹   T·S(vib)
   ------------------------------------------------------------------------
       1     62.90    -1.30111 (100.00%)    -0.98829 (  0.00%)    -1.30111
       2    111.98    -0.96432 (100.00%)    -0.81756 (  0.00%)    -0.96432
       3    193.11    -0.65525 (100.00%)    -0.65617 (  0.00%)    -0.65525
       4    215.89    -0.59429 (100.00%)    -0.62315 (  0.00%)    -0.59429
       5    237.70    -0.54264 (100.00%)    -0.59465 (  0.00%)    -0.54264
       6    243.27    -0.53036 (100.00%)    -0.58779 (  0.00%)    -0.53036
       7    277.85    -0.46119 (100.00%)    -0.54842 (  0.00%)    -0.46119
       8    286.70    -0.44525 (100.00%)    -0.53914 (  0.00%)    -0.44525
       9    293.96    -0.43263 (100.00%)    -0.53172 (  0.00%)    -0.43263
   ------------------------------------------------------------------------

   temp. (K)  partition function   enthalpy   heat capacity  entropy
                                   cal/mol     cal/K/mol   cal/K/mol   J/K/mol
 298.15  VIB   423.                 4927.918     34.692     28.546
         ROT  0.403E+06              888.752      2.981     28.630
         INT  0.170E+09             5816.671     37.673     57.176
         TR   0.118E+28             1481.254      4.968     40.096
         TOT                        7297.9245    42.6414    97.2724   406.9879

       T/K    H(0)-H(T)+PV         H(T)/Eh          T*S/Eh         G(T)/Eh
   ------------------------------------------------------------------------
    298.15    0.116300E-01    0.254931E+00    0.462173E-01    0.208714E+00
   ------------------------------------------------------------------------

         :::::::::::::::::::::::::::::::::::::::::::::::::::::
         ::                  THERMODYNAMIC                  ::
         :::::::::::::::::::::::::::::::::::::::::::::::::::::
         :: total free energy         -26.110756486580 Eh   ::
         ::.................................................::
         :: total energy              -26.319470609958 Eh   ::
         :: zero point energy           0.243301414070 Eh   ::
         :: G(RRHO) w/o ZPVE           -0.034587290693 Eh   ::
         :: G(RRHO) contrib.            0.208714123378 Eh   ::
         :::::::::::::::::::::::::::::::::::::::::::::::::::::

optimized geometry written to: xtbopt.coord


           -------------------------------------------------
          | TOTAL ENERGY              -26.319470609958 Eh   |
          | TOTAL ENTHALPY            -26.064539212969 Eh   |
          | TOTAL FREE ENERGY         -26.110756486580 Eh   |
          | GRADIENT NORM               0.000028556841 Eh/α |
          | HOMO-LUMO GAP              12.286734723977 eV   |
           -------------------------------------------------

------------------------------------------------------------------------
 * finished run on 2025/04/15 at 19:31:42.776     
------------------------------------------------------------------------
 total:
 * wall-time:     0 d,  0 h,  0 min,  2.432 sec
 *  cpu-time:     0 d,  0 h,  0 min,  1.997 sec
 * ratio c/w:     0.821 speedup
 SCF:
 * wall-time:     0 d,  0 h,  0 min,  0.030 sec
 *  cpu-time:     0 d,  0 h,  0 min,  0.029 sec
 * ratio c/w:     0.974 speedup
 analytical hessian:
 * wall-time:     0 d,  0 h,  0 min,  1.747 sec
 *  cpu-time:     0 d,  0 h,  0 min,  1.745 sec
 * ratio c/w:     0.999 speedup

