
                                 *****************
                                 * O   R   C   A *
                                 *****************

                                            #,                                       
                                            ###                                      
                                            ####                                     
                                            #####                                    
                                            ######                                   
                                           ########,                                 
                                     ,,################,,,,,                         
                               ,,#################################,,                 
                          ,,##########################################,,             
                       ,#########################################, ''#####,          
                    ,#############################################,,   '####,        
                  ,##################################################,,,,####,       
                ,###########''''           ''''###############################       
              ,#####''   ,,,,##########,,,,          '''####'''          '####       
            ,##' ,,,,###########################,,,                        '##       
           ' ,,###''''                  '''############,,,                           
         ,,##''                                '''############,,,,        ,,,,,,###''
      ,#''                                            '''#######################'''  
     '                                                          ''''####''''         
             ,#######,   #######,   ,#######,      ##                                
            ,#'     '#,  ##    ##  ,#'     '#,    #''#        ,####,   ,####,        
            ##       ##  ##   ,#'  ##            #'  '#       #'       #'  '#        
            ##       ##  #######   ##           ,######,      #####,   #    #        
            '#,     ,#'  ##    ##  '#,     ,#' ,#      #,     #,   #   #,  ,#        
             '#######'   ##     ##  '#######'  #'      '#     '####' # '####'        



                #########################################################
                #                        -***-                          #
                #          Department of theory and spectroscopy        #
                #                                                       #
                #                      Frank Neese                      #
                #                                                       #
                #     Directorship, Architecture, Infrastructure        #
                #                    SHARK, DRIVERS                     #
                #        Core code/Algorithms in most modules           #
                #                                                       #
                #        Max Planck Institute fuer Kohlenforschung      #
                #                Kaiser Wilhelm Platz 1                 #
                #                 D-45470 Muelheim/Ruhr                 #
                #                      Germany                          #
                #                                                       #
                #                  All rights reserved                  #
                #                        -***-                          #
                #########################################################


                         Program Version 6.0.1  -  RELEASE   -


 With contributions from (in alphabetic order):
[Max-Planck-Institut fuer Kohlenforschung]                               
  Daniel Aravena         : Magnetic Suceptibility                        
  Michael Atanasov       : Ab Initio Ligand Field Theory (pilot matlab implementation)
  Alexander A. Auer      : GIAO ZORA, VPT2 properties, NMR spectrum      
  Ute Becker             : All parallelization in ORCA, NUMFREQ, NUMCALC 
  Giovanni Bistoni       : ED, misc. LED, open-shell LED, HFLD           
  Martin Brehm           : Molecular dynamics                            
  Dmytro Bykov           : pre 5.0 version of the SCF Hessian            
  Marcos Casanova-Páez   : Triplet and SCS-CIS(D). UHF-(DLPNO)-IP/EA/STEOM-CCSD. UHF-CVS-IP/STEOM-CCSD   
  Vijay G. Chilkuri      : MRCI spin determinant printing, contributions to CSF-ICE 
  Pauline Colinet        : FMM embedding                                 
  Dipayan Datta          : RHF DLPNO-CCSD density                        
  Achintya Kumar Dutta   : EOM-CC, STEOM-CC                              
  Nicolas Foglia         : Exact transition moments, OPA infrastructure, MCD improvements    
  Dmitry Ganyushin       : Spin-Orbit,Spin-Spin,Magnetic field MRCI      
  Miquel Garcia-Rates    : C-PCM and meta-GGA Hessian, CCSD/C-PCM, Gaussian charge scheme 
  Tiago L. C. Gouveia    : GS-ROHF, GS-ROCIS                             
  Yang Guo               : DLPNO-NEVPT2, F12-NEVPT2, CIM, IAO-localization        
  Andreas Hansen         : Spin unrestricted coupled pair/coupled cluster methods 
  Ingolf Harden          : AUTO-CI MPn and infrastructure                
  Benjamin Helmich-Paris : MC-RPA, TRAH-(SCF,CASSCF), AVAS, COSX integrals, SCF dyn. polar. 
  Lee Huntington         : MR-EOM, pCC                                   
  Robert Izsak           : Overlap fitted RIJCOSX, COSX-SCS-MP3, EOM     
  Riya Kayal             : Wick's Theorem for AUTO-CI, AUTO-CI UHF-CCSDT 
  Emily Kempfer          : AUTO-CI, RHF CISDT and CCSDT                  
  Christian Kollmar      : KDIIS, OOCD, Brueckner-CCSD(T), CCSD density, CASPT2, CASPT2-K, improved NEVPT2 
  Axel Koslowski         : Symmetry handling                             
  Simone Kossmann        : meta-GGA functionals, TD-DFT gradient, OOMP2, (MP2 Hessian; deprecated post 5.0) 
  Lucas Lang             : DCDCAS                                        
  Marvin Lechner         : AUTO-CI (C++ implementation), FIC-MRCC        
  Spencer Leger          : CASSCF response                               
  Dagmar Lenk            : GEPOL surface, SMD, ORCA-2-JSON               
  Dimitrios Liakos       : Extrapolation schemes; Compound Job, initial MDCI parallelization 
  Dimitrios Manganas     : Further ROCIS development; embedding schemes. LFT, Crystal Embedding 
  Dimitrios Pantazis     : SARC Basis sets                               
  Anastasios Papadopoulos: AUTO-CI, single reference methods and gradients 
  Taras Petrenko         : pre 6.0 DFT Hessian and TD-DFT gradient, (ASA, deprecated), ECA, 1-Electron XAS/XES, NRVS 
  Peter Pinski           : DLPNO-MP2, DLPNO-MP2 Gradient                 
  Christoph Reimann      : Effective Core Potentials                     
  Marius Retegan         : Local ZFS, SOC                                
  Christoph Riplinger    : Optimizer, TS searches, QM/MM, DLPNO-CCSD(T), (RO)-DLPNO pert. Triples 
  Michael Roemelt        : Original ROCIS implementation                 
  Masaaki Saitow         : Open-shell DLPNO-CCSD energy and density      
  Barbara Sandhoefer     : DKH picture change effects                    
  Kantharuban Sivalingam : CASSCF convergence/infrastructure, NEVPT2 and variants, FIC-MRCI 
  Bernardo de Souza      : ESD, SOC TD-DFT                               
  Georgi L. Stoychev     : AutoAux, RI-MP2 NMR, DLPNO-MP2 response, X2C  
  Van Anh Tran           : RI-MP2 g-tensors                              
  Willem Van den Heuvel  : Paramagnetic NMR                              
  Zikuan Wang            : NOTCH, Electric field optimization            
  Frank Wennmohs         : Technical directorship and infrastructure     
  Hang Xu                : AUTO-CI-Response properties                   
                                                                         
[FACCTs GmbH]                                                            
  Markus Bursch, Miquel Garcia-Rates, Christoph Riplinger, Bernardo de Souza, Georgi L. Stoychev 
                                                                 
  APM, Basis sets (HGBS, AHGBS, def-TZVP (Ac-Lr), def2-XVPD (La-Lu)), CI-OPT, improved COSX, DLPNO-Multilevel,           
  DOCKER, DRACO, updates on ESD, GOAT, IRC, LR-CPCM, MBIS, meta-GGA TD-DFT gradient, ML-optimized integration grids, 
  MM, NACMEs, nearIR, NEB, NEB-TS, NL-DFT gradient (VV10), 2- and 3-layer-ONIOM, interface openCOSMO-RS, QMMM,   
  Crystal-QMMM, SF, symmetry and pop. for TD-DFT, r2SCAN hybrids, SOLVATOR                                   
                                                                         
[Other institutions]                                                     
  V. Asgeirsson          : NEB                                           
  Christoph Bannwarth    : sTDA-DFT, sTD-DFT, PBEh-3c, B97-3c, D3        
  Sebastian Ehlert       : rSCAN, r2SCAN, r2SCAN-3c, D4, dhf basis sets  
  Marvin Friede          : D4 for Fr, Ra, Ac-Lr                          
  Lars Goerigk           : TD-DFT with DH, B97 family of functionals     
  Stefan Grimme          : VdW corrections, initial TS optimization, DFT functionals, gCP, sTDA/sTD-DF 
  Waldemar Hujo          : DFT-NL                                        
  H. Jonsson             : NEB                                           
  Holger Kruse           : gCP                                           
  Marcel Mueller         : wB97X-3c, vDZP basis set                      
  Hagen Neugebauer       : wr2SCAN                                       
  Tobias Risthaus        : range-separated hybrid DFT                    
  Lukas Wittmann         : regularized MP2, r2SCAN double-hybrids, wr2SCAN        
                                                                         
We gratefully acknowledge several colleagues who have allowed us to      
interface, adapt or use parts of their codes:                            
  Ed Valeev, F. Pavosevic, A. Kumar             : LibInt (2-el integral package), F12 methods 
  Garnet Chan, S. Sharma, J. Yang, R. Olivares  : DMRG                   
  Ulf Ekstrom                                   : XCFun DFT Library      
  Mihaly Kallay                                 : mrcc  (arbitrary order and MRCC methods)
  Frank Weinhold                                : gennbo (NPA and NBO analysis)           
  Simon Mueller                                 : openCOSMO-RS                            
  Christopher J. Cramer and Donald G. Truhlar   : smd solvation model                     
  S Lehtola, MJT Oliveira, MAL Marques          : LibXC Library                           
  Liviu Ungur et al                             : ANISO software                          


 Your calculation uses the libint2 library for the computation of 2-el integrals
 For citations please refer to: http://libint.valeyev.net

 Your ORCA version has been built with support for libXC version: 6.2.2
 For citations please refer to: https://libxc.gitlab.io

 This ORCA versions uses:
   CBLAS   interface :  Fast vector & matrix operations
   LAPACKE interface :  Fast linear algebra routines
   SCALAPACK package :  Parallel linear algebra routines
   Shared memory     :  Shared parallel matrices
   BLAS/LAPACK       :  OpenBLAS 0.3.27  USE64BITINT DYNAMIC_ARCH NO_AFFINITY Zen SINGLE_THREADED
        Core in use  :  Zen
   Copyright (c) 2011-2014, The OpenBLAS Project


Your calculation utilizes the geometrical counterpoise correction gCP
Please cite in your paper:
H.Kruse, S. Grimme J.Chem.Phys., 136, (2012), 154101 
   

Your calculation utilizes the atom-pairwise dispersion correction
based on EEQ partial charges (D4)


================================================================================

----- Orbital basis set information -----
Your calculation utilizes the basis: def2-mTZVPP
   Stefan Grimme, Andreas Hansen, Sebastian Ehlert, and Jan-Michael Mewes 
   J. Chem. Phys. 154, 064103 (2021). DOI: 10.1063/5.0040021

----- AuxJ basis set information -----
Your calculation utilizes the auxiliary basis: def2/J
   F. Weigend, Phys. Chem. Chem. Phys. 8, 1057 (2006).

================================================================================
                                        WARNINGS
                       Please study these warnings very carefully!
================================================================================



WARNING: SCAN, rSCAN, or r2SCAN functional requested.
  ===> : libXC variant has now been activated.



================================================================================
                                       INPUT FILE
================================================================================
NAME = sp.inp
|  1> ! r2scan-3c def2/J RI DEFGRID2 scfconv6 printgap
|  2> %output
|  3>     printlevel normal
|  4> end
|  5> * xyz 0 1
|  6> C 1.6862524757 0.3961870313 0.6284610867
|  7> C 0.8932261964 0.3698935724 -0.6725179026
|  8> C -0.5663272058 -0.0599824752 -0.4856224932
|  9> H -1.0582827005 -0.0168800592 -1.4746126502
| 10> C -1.3358430642 0.8470823664 0.4747970167
| 11> O -0.5601511408 -1.4013146204 -0.0330612993
| 12> H 2.74114404 0.5543188515 0.4175658998
| 13> H 1.5732325949 -0.5536485912 1.1436978873
| 14> H 1.3461816947 1.1962705653 1.2809146175
| 15> H 1.3557210076 -0.3451908491 -1.3548204849
| 16> H 0.9093945915 1.3533440987 -1.1458397163
| 17> H -2.3927519801 0.5829224101 0.4794862927
| 18> H -0.9494275283 0.7385950896 1.4846651117
| 19> H -1.2420046864 1.8848643187 0.1671882881
| 20> H -1.4627576396 -1.659163537 0.1805940896
| 21> *
| 22> 
| 23>                          ****END OF INPUT****
================================================================================

                       ****************************
                       * Single Point Calculation *
                       ****************************

---------------------------------
CARTESIAN COORDINATES (ANGSTROEM)
---------------------------------
  C      1.686252    0.396187    0.628461
  C      0.893226    0.369894   -0.672518
  C     -0.566327   -0.059982   -0.485622
  H     -1.058283   -0.016880   -1.474613
  C     -1.335843    0.847082    0.474797
  O     -0.560151   -1.401315   -0.033061
  H      2.741144    0.554319    0.417566
  H      1.573233   -0.553649    1.143698
  H      1.346182    1.196271    1.280915
  H      1.355721   -0.345191   -1.354820
  H      0.909395    1.353344   -1.145840
  H     -2.392752    0.582922    0.479486
  H     -0.949428    0.738595    1.484665
  H     -1.242005    1.884864    0.167188
  H     -1.462758   -1.659164    0.180594

----------------------------
CARTESIAN COORDINATES (A.U.)
----------------------------
  NO LB      ZA    FRAG     MASS         X           Y           Z
   0 C     6.0000    0    12.011    3.186555    0.748685    1.187619
   1 C     6.0000    0    12.011    1.687953    0.698998   -1.270875
   2 C     6.0000    0    12.011   -1.070203   -0.113350   -0.917694
   3 H     1.0000    0     1.008   -1.999864   -0.031899   -2.786614
   4 C     6.0000    0    12.011   -2.524378    1.600754    0.897236
   5 O     8.0000    0    15.999   -1.058532   -2.648101   -0.062477
   6 H     1.0000    0     1.008    5.180012    1.047511    0.789085
   7 H     1.0000    0     1.008    2.972979   -1.046244    2.161276
   8 H     1.0000    0     1.008    2.543915    2.260624    2.420578
   9 H     1.0000    0     1.008    2.561941   -0.652316   -2.560240
  10 H     1.0000    0     1.008    1.718507    2.557450   -2.165323
  11 H     1.0000    0     1.008   -4.521646    1.101564    0.906098
  12 H     1.0000    0     1.008   -1.794158    1.395742    2.805610
  13 H     1.0000    0     1.008   -2.347049    3.561877    0.315940
  14 H     1.0000    0     1.008   -2.764211   -3.135365    0.341273

--------------------------------
INTERNAL COORDINATES (ANGSTROEM)
--------------------------------
 C      0   0   0     0.000000000000     0.00000000     0.00000000
 C      1   0   0     1.523853128173     0.00000000     0.00000000
 C      2   1   0     1.532977313671   113.34308379     0.00000000
 H      3   2   1     1.105431842166   107.68061900   178.31088070
 C      3   2   1     1.528831880290   112.91979974    58.73202323
 O      3   2   1     1.415634734580   107.48896618   295.56734609
 H      1   2   3     1.087326383773   109.98684087   171.20146703
 H      1   2   3     1.086476030071   109.61199098    51.78695763
 H      1   2   3     1.086957868237   111.24446480   291.11132764
 H      2   1   3     1.091230495391   108.93855981   240.73048308
 H      2   1   3     1.091544728357   110.30090735   122.06049094
 H      5   3   2     1.089430552321   110.31323504   172.82477233
 H      5   3   2     1.086701442399   110.21713629   292.57830585
 H      5   3   2     1.086471422348   110.20516666    53.08973004
 H      6   3   2     0.962721756622   108.70120926   173.99190254

---------------------------
INTERNAL COORDINATES (A.U.)
---------------------------
 C      0   0   0     0.000000000000     0.00000000     0.00000000
 C      1   0   0     2.879665080565     0.00000000     0.00000000
 C      2   1   0     2.896907292352   113.34308379     0.00000000
 H      3   2   1     2.088963441409   107.68061900   178.31088070
 C      3   2   1     2.889073558557   112.91979974    58.73202323
 O      3   2   1     2.675161954023   107.48896618   295.56734609
 H      1   2   3     2.054749083518   109.98684087   171.20146703
 H      1   2   3     2.053142147904   109.61199098    51.78695763
 H      1   2   3     2.054052690078   111.24446480   291.11132764
 H      2   1   3     2.062126785273   108.93855981   240.73048308
 H      2   1   3     2.062720599520   110.30090735   122.06049094
 H      5   3   2     2.058725385814   110.31323504   172.82477233
 H      5   3   2     2.053568115471   110.21713629   292.57830585
 H      5   3   2     2.053133440569   110.20516666    53.08973004
 H      6   3   2     1.819280463184   108.70120926   173.99190254

---------------------
BASIS SET INFORMATION
---------------------
There are 3 groups of distinct atoms

 Group   1 Type C   : 11s6p1d contracted to 5s3p1d pattern {62111/411/1}
 Group   2 Type H   : 4s1p contracted to 2s1p pattern {31/1}
 Group   3 Type O   : 11s6p2d contracted to 5s3p2d pattern {62111/411/11}

Atom   0C    basis set group =>   1
Atom   1C    basis set group =>   1
Atom   2C    basis set group =>   1
Atom   3H    basis set group =>   2
Atom   4C    basis set group =>   1
Atom   5O    basis set group =>   3
Atom   6H    basis set group =>   2
Atom   7H    basis set group =>   2
Atom   8H    basis set group =>   2
Atom   9H    basis set group =>   2
Atom  10H    basis set group =>   2
Atom  11H    basis set group =>   2
Atom  12H    basis set group =>   2
Atom  13H    basis set group =>   2
Atom  14H    basis set group =>   2
---------------------------------
AUXILIARY/J BASIS SET INFORMATION
---------------------------------
There are 3 groups of distinct atoms

 Group   1 Type C   : 12s5p4d2f1g contracted to 6s4p3d1f1g pattern {711111/2111/211/2/1}
 Group   2 Type H   : 5s2p1d contracted to 3s1p1d pattern {311/2/1}
 Group   3 Type O   : 12s5p4d2f1g contracted to 6s4p3d1f1g pattern {711111/2111/211/2/1}

Atom   0C    basis set group =>   1
Atom   1C    basis set group =>   1
Atom   2C    basis set group =>   1
Atom   3H    basis set group =>   2
Atom   4C    basis set group =>   1
Atom   5O    basis set group =>   3
Atom   6H    basis set group =>   2
Atom   7H    basis set group =>   2
Atom   8H    basis set group =>   2
Atom   9H    basis set group =>   2
Atom  10H    basis set group =>   2
Atom  11H    basis set group =>   2
Atom  12H    basis set group =>   2
Atom  13H    basis set group =>   2
Atom  14H    basis set group =>   2

Checking for AutoStart:
The File: sp.gbw exists
Trying to determine its content:
     ... Fine, the file contains calculation information
     ... Fine, the calculation information was read
     ... Fine, the file contains a basis set
     ... Fine, the basis set was read
     ... Fine, the file contains a geometry
     ... Fine, the geometry was read
     ... Fine, the file contains a set of orbitals
     ... Fine, the orbitals can be read
     => possible old guess file was deleted
     => GBW file was renamed to GES file
     => GES file is set as startup file
     => Guess is set to MORead
     ... now leaving AutoStart

------------------------------------------------------------------------------
                             ORCA STARTUP CALCULATIONS
                           -- RI-GTO INTEGRALS CHOSEN --
------------------------------------------------------------------------------
------------------------------------------------------------------------------
                   ___                                                        
                  /   \      - P O W E R E D   B Y -                         
                 /     \                                                     
                 |  |  |   _    _      __       _____    __    __             
                 |  |  |  | |  | |    /  \     |  _  \  |  |  /  |          
                  \  \/   | |  | |   /    \    | | | |  |  | /  /          
                 / \  \   | |__| |  /  /\  \   | |_| |  |  |/  /          
                |  |  |   |  __  | /  /__\  \  |    /   |      \           
                |  |  |   | |  | | |   __   |  |    \   |  |\   \          
                \     /   | |  | | |  |  |  |  | |\  \  |  | \   \       
                 \___/    |_|  |_| |__|  |__|  |_| \__\ |__|  \__/        
                                                                              
                      - O R C A' S   B I G   F R I E N D -                    
                                      &                                       
                       - I N T E G R A L  F E E D E R -                       
                                                                              
 v1 FN, 2020, v2 2021, v3 2022-2024                                           
------------------------------------------------------------------------------


----------------------
SHARK INTEGRAL PACKAGE
----------------------

Number of atoms                             ...     15
Number of basis functions                   ...    150
Number of shells                            ...     76
Maximum angular momentum                    ...      2
Integral batch strategy                     ... SHARK/LIBINT Hybrid
RI-J (if used) integral strategy            ... SPLIT-RIJ (Revised 2003 algorithm where possible)
Printlevel                                  ...      1
Contraction scheme used                     ... SEGMENTED contraction
Prescreening option                         ... SCHWARTZ
   Thresh                                   ... 1.000e-10
   Tcut                                     ... 1.000e-11
   Tpresel                                  ... 1.000e-11 
Coulomb Range Separation                    ... NOT USED
Exchange Range Separation                   ... NOT USED
Multipole approximations                    ... NOT USED
Finite Nucleus Model                        ... NOT USED
CABS basis                                  ... NOT available
Auxiliary Coulomb fitting basis             ... AVAILABLE
   # of basis functions in Aux-J            ...    355
   # of shells in Aux-J                     ...    125
   Maximum angular momentum in Aux-J        ...      4
Auxiliary J/K fitting basis                 ... NOT available
Auxiliary Correlation fitting basis         ... NOT available
Auxiliary 'external' fitting basis          ... NOT available

Checking pre-screening integrals            ... done (  0.0 sec) Dimension = 76
Check shell pair data                       ... done (  0.0 sec)
Shell pair information
Shell pair cut-off parameter TPreSel        ...   1.0e-11
Total number of shell pairs                 ...      2926
Shell pairs after pre-screening             ...      2826
Total number of primitive shell pairs       ...     10151
Primitive shell pairs kept                  ...      7444
          la=0 lb=0:    985 shell pairs
          la=1 lb=0:   1085 shell pairs
          la=1 lb=1:    316 shell pairs
          la=2 lb=0:    269 shell pairs
          la=2 lb=1:    150 shell pairs
          la=2 lb=2:     21 shell pairs

Calculating one electron integrals          ... done (  0.0 sec)
Calculating RI/J V-Matrix + Cholesky decomp.... done (  0.0 sec)
Calculating Nuclear repulsion               ... done (  0.0 sec) ENN=    196.065155048725 Eh

Diagonalization of the overlap matrix:
Smallest eigenvalue                        ... 2.507e-04
Time for diagonalization                   ...    0.004 sec
Threshold for overlap eigenvalues          ... 1.000e-07
Number of eigenvalues below threshold      ... 0
Time for construction of square roots      ...    0.005 sec
Total time needed                          ...    0.010 sec

-------------------
DFT GRID GENERATION
-------------------

General Integration Accuracy     IntAcc      ... 4.388
Radial Grid Type                 RadialGrid  ... OptM3 with GC (2021)
Angular Grid (max. ang.)         AngularGrid ... 4 (Lebedev-302)
Angular grid pruning method      GridPruning ... 4 (adaptive)
Weight generation scheme         WeightScheme... mBecke (2022)
Basis function cutoff            BFCut       ... 1.0000e-10
Integration weight cutoff        WCut        ... 1.0000e-14
Partially contracted basis set               ... off
Rotationally invariant grid construction     ... off
Angular grids for H and He will be reduced by one unit
Diffuse basis detected: some atoms will have their outermost
                        angular grid increased by 1.

Total number of grid points                  ...    62591
Total number of batches                      ...      985
Average number of points per batch           ...       63
Average number of grid points per atom       ...     4173
Initializing property integral containers    ... done (  0.0 sec)

SHARK setup successfully completed in   0.6 seconds

Maximum memory used throughout the entire STARTUP-calculation: 27.4 MB
-------------------------------------------------------------------------------
                                 ORCA GUESS
                   Start orbitals & Density for SCF / CASSCF
-------------------------------------------------------------------------------

------------
SCF SETTINGS
------------
Hamiltonian:
 Density Functional     Method          .... DFT(GTOs)
  Functional kind                       .... Exchange
  Functional name                       .... Re-regularized SCAN exchange by Furness et al
  Functional family                     .... MGGA
  Functional refs                              
    [ 0] J. W. Furness, A. D. Kaplan, J. Ning, J. P. Perdew, and J. Sun.,  J. Phys. Chem. Lett. 11, 8208-8215 (2020), doi: 10.1021/acs.jpclett.0c02405
    [ 1] J. W. Furness, A. D. Kaplan, J. Ning, J. P. Perdew, and J. Sun.,  J. Phys. Chem. Lett. 11, 9248-9248 (2020), doi: 10.1021/acs.jpclett.0c03077
  Functional external parameters        .... 6
    Parameter  0 _c1        =  6.670000e-01 : c1 parameter        
    Parameter  1 _c2        =  8.000000e-01 : c2 parameter        
    Parameter  2 _d         =  1.240000e+00 : d parameter         
    Parameter  3 _k1        =  6.500000e-02 : k1 parameter        
    Parameter  4 _eta       =  1.000000e-03 : eta parameter       
    Parameter  5 _dp2       =  3.610000e-01 : dp2 parameter       
  Functional kind                       .... Correlation
  Functional name                       .... Re-regularized SCAN correlation by Furness et al
  Functional family                     .... MGGA
  Functional refs                              
    [ 0] J. W. Furness, A. D. Kaplan, J. Ning, J. P. Perdew, and J. Sun.,  J. Phys. Chem. Lett. 11, 8208-8215 (2020), doi: 10.1021/acs.jpclett.0c02405
    [ 1] J. W. Furness, A. D. Kaplan, J. Ning, J. P. Perdew, and J. Sun.,  J. Phys. Chem. Lett. 11, 9248-9248 (2020), doi: 10.1021/acs.jpclett.0c03077
  Functional external parameters        .... 1
    Parameter  0 _eta       =  1.000000e-03 : Regularization parameter
 Gradients option       PostSCFGGA      .... off
 RI-approximation to the Coulomb term is turned on
   Number of AuxJ basis functions       .... 355


General Settings:
 Integral files         IntName         .... sp
 Hartree-Fock type      HFTyp           .... RHF
 Total Charge           Charge          ....    0
 Multiplicity           Mult            ....    1
 Number of Electrons    NEL             ....   42
 Basis Dimension        Dim             ....  150
 Nuclear Repulsion      ENuc            ....    196.0651550487 Eh

Convergence Acceleration:
 AO-DIIS                CNVDIIS         .... on
   Start iteration      DIISMaxIt       ....    12
   Startup error        DIISStart       ....  0.200000
   # of expansion vecs  DIISMaxEq       ....     5
   Bias factor          DIISBfac        ....   1.050
   Max. coefficient     DIISMaxC        ....  10.000
 MO-DIIS                CNVKDIIS        .... off
 Trust-Rad. Augm. Hess. CNVTRAH         .... auto
   Auto Start mean grad. ratio tolernc. ....  1.125000
   Auto Start start iteration           ....     1
   Auto Start num. interpolation iter.  ....    10
   Max. Number of Micro iterations      ....    24
   Max. Number of Macro iterations      .... Maxiter - #DIIS iter
   Number of Davidson start vectors     ....     2
   Converg. threshold    (grad. norm)   ....   3.330e-04
   Grad. Scal. Fac. for Micro threshold ....   0.100
   Minimum threshold for Micro iter.    ....   1.000e-02
   NR start threshold (gradient norm)   ....   1.000e-04
   Initial trust radius                 ....   0.400
   Minimum AH scaling param. (alpha)    ....   1.000
   Maximum AH scaling param. (alpha)    .... 1000.000
   Quad. conv. algorithm                .... NR
   White noise on init. David. guess    .... on
   Maximum white noise                  ....   0.010
   Pseudo random numbers                .... off
   Inactive MOs                         .... canonical
   Orbital update algorithm             .... Taylor
   Preconditioner                       .... Diag
   Full preconditioner red. dimension   ....   250
   COSX micro iterations for RIJONX calc.... off
 SOSCF                  CNVSOSCF        .... on
   Start iteration      SOSCFMaxIt      ....   150
   Startup grad/error   SOSCFStart      ....  0.003300
   Hessian update       SOSCFHessUp     .... L-BFGS
 Level Shifting         CNVShift        .... on
   Level shift para.    LevelShift      ....    0.2500
   Turn off err/grad.   ShiftErr        ....    0.0010
 Zerner damping         CNVZerner       .... off
 Static damping         CNVDamp         .... on
   Fraction old density DampFac         ....    0.7000
   Max. Damping (<1)    DampMax         ....    0.9800
   Min. Damping (>=0)   DampMin         ....    0.0000
   Turn off err/grad.   DampErr         ....    0.1000

SCF Procedure:
 Maximum # iterations   MaxIter         ....   125
 SCF integral mode      SCFMode         .... Direct
   Integral package                     .... SHARK and LIBINT hybrid scheme
 Reset frequency        DirectResetFreq ....    20
 Integral Threshold     Thresh          ....  1.000e-10 Eh
 Primitive CutOff       TCut            ....  1.000e-11 Eh

Convergence Tolerance:
 Convergence Check Mode ConvCheckMode   .... Total+1el-Energy
 Convergence forced     ConvForced      .... 0
 Energy Change          TolE            ....  1.000e-06 Eh
 1-El. energy change                    ....  1.000e-03 Eh
 Orbital Gradient       TolG            ....  3.330e-04
 Orbital Rotation angle TolX            ....  3.330e-04
 DIIS Error             TolErr          ....  1.000e-06

---------------------
INITIAL GUESS: MOREAD
---------------------
Guess MOs are being read from file: sp.ges
Input Geometry matches current geometry (good)
Atom 0: N(Shells)= 9 and 6 - projection required
Input basis set needs projection
NBasis(read)= 90
NBasis(calc)= 150
Basis set overlap was calculated
Using GuessMode=FMatrix for the initial guess
C*T matrix was formed
Effective Fockian was calculated
Effective Fockian was diagonalized
Initial density was built
                      ------------------
                      INITIAL GUESS DONE (   0.0 sec)
                      ------------------
             **** ENERGY FILE WAS UPDATED (sp.en.tmp) ****
Finished Guess after   0.1 sec
Maximum memory used throughout the entire GUESS-calculation: 10.8 MB

-------------------------------------------------------------------------------------------
                                      ORCA LEAN-SCF
                              memory conserving SCF solver
-------------------------------------------------------------------------------------------

----------------------------------------D-I-I-S--------------------------------------------
Iteration    Energy (Eh)           Delta-E    RMSDP     MaxDP     DIISErr   Damp  Time(sec)
-------------------------------------------------------------------------------------------
               ***  Starting incremental Fock matrix formation  ***
    1    -233.4734310284971457     0.00e+00  3.79e-03  1.21e-01  6.27e-01  0.700   1.0
    2    -233.5133727776350270    -3.99e-02  3.13e-03  7.96e-02  4.41e-01  0.700   1.1
    3    -233.5416937154853372    -2.83e-02  2.31e-03  5.31e-02  3.09e-01  0.700   0.8
    4    -233.5615916020436771    -1.99e-02  1.66e-03  3.59e-02  2.16e-01  0.700   0.8
                               ***Turning on AO-DIIS***
    5    -233.5755575160783337    -1.40e-02  1.20e-03  2.50e-02  1.51e-01  0.700   0.9
    6    -233.5853535673772399    -9.80e-03  8.54e-04  1.77e-02  1.06e-01  0.700   0.8
    7    -233.5922237320146451    -6.87e-03  6.03e-04  1.25e-02  7.42e-02  0.700   0.8
    8    -233.5970394816964699    -4.82e-03  1.42e-03  2.92e-02  5.20e-02  0.000   0.8
                              *** Initializing SOSCF ***
---------------------------------------S-O-S-C-F--------------------------------------
Iteration    Energy (Eh)           Delta-E    RMSDP     MaxDP     MaxGrad    Time(sec)
--------------------------------------------------------------------------------------
    9    -233.6082975834774516    -1.13e-02  1.09e-05  2.03e-04  1.63e-04     0.8
               *** Restarting incremental Fock matrix formation ***
   10    -233.6082976663679460    -8.29e-08  7.15e-06  1.46e-04  2.84e-05     0.9
                  *** Gradient check signals convergence ***

               *****************************************************
               *                     SUCCESS                       *
               *           SCF CONVERGED AFTER  10 CYCLES          *
               *****************************************************

             **** ENERGY FILE WAS UPDATED (sp.en.tmp) ****

----------------
TOTAL SCF ENERGY
----------------

Total Energy       :       -233.60829766636795 Eh           -6356.80495 eV

Components:
Nuclear Repulsion  :        196.06515504872505 Eh            5335.20411 eV
Electronic Energy  :       -429.67345271509299 Eh          -11692.00906 eV
One Electron Energy:       -704.12851727304678 Eh          -19160.31105 eV
Two Electron Energy:        274.45506455795379 Eh            7468.30199 eV

Virial components:
Potential Energy   :       -466.18719885429118 Eh          -12685.59860 eV
Kinetic Energy     :        232.57890118792321 Eh            6328.79365 eV
Virial Ratio       :          2.00442600972482

DFT components:
N(Alpha)           :       21.000042561620 electrons
N(Beta)            :       21.000042561620 electrons
N(Total)           :       42.000085123240 electrons
E(X)               :      -32.661251904073 Eh       
E(C)               :       -1.312473492359 Eh       
E(XC)              :      -33.973725396433 Eh       

---------------
SCF CONVERGENCE
---------------

  Last Energy change         ...    8.2890e-08  Tolerance :   1.0000e-06
  Last MAX-Density change    ...    1.4595e-04  Tolerance :   1.0000e-05
  Last RMS-Density change    ...    7.1497e-06  Tolerance :   1.0000e-06
  Last DIIS Error            ...    1.6340e-04  Tolerance :   1.0000e-06
  Last Orbital Gradient      ...    2.8373e-05  Tolerance :   3.3300e-04
  Last Orbital Rotation      ...    4.0854e-05  Tolerance :   3.3300e-04


----------------
ORBITAL ENERGIES
----------------

  NO   OCC          E(Eh)            E(eV) 
   0   2.0000     -18.944294      -515.5004 
   1   2.0000     -10.079695      -274.2825 
   2   2.0000     -10.022364      -272.7224 
   3   2.0000     -10.020578      -272.6738 
   4   2.0000     -10.009943      -272.3844 
   5   2.0000      -0.984717       -26.7955 
   6   2.0000      -0.751122       -20.4391 
   7   2.0000      -0.686984       -18.6938 
   8   2.0000      -0.613690       -16.6993 
   9   2.0000      -0.533780       -14.5249 
  10   2.0000      -0.474890       -12.9224 
  11   2.0000      -0.432226       -11.7615 
  12   2.0000      -0.403331       -10.9752 
  13   2.0000      -0.390396       -10.6232 
  14   2.0000      -0.360210        -9.8018 
  15   2.0000      -0.353317        -9.6142 
  16   2.0000      -0.328607        -8.9419 
  17   2.0000      -0.311499        -8.4763 
  18   2.0000      -0.302427        -8.2295 
  19   2.0000      -0.281496        -7.6599 
  20   2.0000      -0.233111        -6.3433 
  21   0.0000       0.062195         1.6924 
  22   0.0000       0.108979         2.9655 
  23   0.0000       0.121240         3.2991 
  24   0.0000       0.131434         3.5765 
  25   0.0000       0.148772         4.0483 
  26   0.0000       0.153152         4.1675 
  27   0.0000       0.153261         4.1705 
  28   0.0000       0.160478         4.3668 
  29   0.0000       0.180102         4.9008 
  30   0.0000       0.190336         5.1793 
  31   0.0000       0.194934         5.3044 
*Only the first 10 virtual orbitals were printed.

                    ********************************
                    * MULLIKEN POPULATION ANALYSIS *
                    ********************************

-----------------------
MULLIKEN ATOMIC CHARGES
-----------------------
   0 C :   -0.519546
   1 C :   -0.220080
   2 C :    0.062009
   3 H :    0.131847
   4 C :   -0.510324
   5 O :   -0.430446
   6 H :    0.144799
   7 H :    0.175758
   8 H :    0.145455
   9 H :    0.146789
  10 H :    0.132762
  11 H :    0.137813
  12 H :    0.169442
  13 H :    0.148961
  14 H :    0.284760
Sum of atomic charges:   -0.0000000

--------------------------------
MULLIKEN REDUCED ORBITAL CHARGES
--------------------------------
  0 C s       :     3.341102  s :     3.341102
      pz      :     0.975442  p :     3.151602
      px      :     1.073267
      py      :     1.102893
      dz2     :     0.004819  d :     0.026842
      dxz     :     0.005212
      dyz     :     0.008154
      dx2y2   :     0.006971
      dxy     :     0.001685

  1 C s       :     3.190413  s :     3.190413
      pz      :     0.975489  p :     2.993660
      px      :     0.935464
      py      :     1.082707
      dz2     :     0.005999  d :     0.036006
      dxz     :     0.008595
      dyz     :     0.008382
      dx2y2   :     0.008489
      dxy     :     0.004542

  2 C s       :     3.164064  s :     3.164064
      pz      :     0.994388  p :     2.705266
      px      :     0.986183
      py      :     0.724694
      dz2     :     0.012626  d :     0.068662
      dxz     :     0.010215
      dyz     :     0.015642
      dx2y2   :     0.017536
      dxy     :     0.012642

  3 H s       :     0.851619  s :     0.851619
      pz      :     0.009518  p :     0.016534
      px      :     0.004759
      py      :     0.002257

  4 C s       :     3.341393  s :     3.341393
      pz      :     1.034884  p :     3.143099
      px      :     1.064223
      py      :     1.043993
      dz2     :     0.007173  d :     0.025831
      dxz     :     0.003979
      dyz     :     0.004167
      dx2y2   :     0.007617
      dxy     :     0.002895

  5 O s       :     3.768732  s :     3.768732
      pz      :     1.822249  p :     4.648972
      px      :     1.454897
      py      :     1.371826
      dz2     :     0.004798  d :     0.012742
      dxz     :     0.003075
      dyz     :    -0.000579
      dx2y2   :     0.004758
      dxy     :     0.000690

  6 H s       :     0.836866  s :     0.836866
      pz      :     0.003888  p :     0.018335
      px      :     0.010540
      py      :     0.003906

  7 H s       :     0.805937  s :     0.805937
      pz      :     0.005166  p :     0.018305
      px      :     0.003751
      py      :     0.009388

  8 H s       :     0.836192  s :     0.836192
      pz      :     0.006365  p :     0.018353
      px      :     0.004459
      py      :     0.007529

  9 H s       :     0.835349  s :     0.835349
      pz      :     0.006381  p :     0.017862
      px      :     0.004759
      py      :     0.006722

 10 H s       :     0.849333  s :     0.849333
      pz      :     0.004967  p :     0.017905
      px      :     0.003387
      py      :     0.009551

 11 H s       :     0.843866  s :     0.843866
      pz      :     0.003723  p :     0.018321
      px      :     0.010606
      py      :     0.003992

 12 H s       :     0.812288  s :     0.812288
      pz      :     0.010079  p :     0.018269
      px      :     0.004617
      py      :     0.003573

 13 H s       :     0.832665  s :     0.832665
      pz      :     0.004155  p :     0.018374
      px      :     0.003733
      py      :     0.010486

 14 H s       :     0.671338  s :     0.671338
      pz      :     0.013306  p :     0.043902
      px      :     0.020998
      py      :     0.009598


------------------------
MULLIKEN OVERLAP CHARGES
------------------------
B(  0-C ,  1-C ) :   0.3380 B(  0-C ,  2-C ) :  -0.2398 B(  0-C ,  6-H ) :   0.7913 
B(  0-C ,  7-H ) :   0.8622 B(  0-C ,  8-H ) :   0.8327 B(  0-C ,  9-H ) :  -0.0642 
B(  0-C , 10-H ) :  -0.0673 B(  1-C ,  2-C ) :   0.5748 B(  1-C ,  3-H ) :  -0.1104 
B(  1-C ,  4-C ) :  -0.1447 B(  1-C ,  5-O ) :  -0.1653 B(  1-C ,  6-H ) :  -0.0736 
B(  1-C ,  7-H ) :  -0.1127 B(  1-C ,  8-H ) :  -0.0708 B(  1-C ,  9-H ) :   0.8446 
B(  1-C , 10-H ) :   0.8138 B(  2-C ,  3-H ) :   0.8467 B(  2-C ,  4-C ) :   0.5067 
B(  2-C ,  5-O ) :   0.3569 B(  2-C ,  9-H ) :  -0.0846 B(  2-C , 10-H ) :  -0.0553 
B(  2-C , 11-H ) :  -0.0573 B(  2-C , 12-H ) :  -0.0931 B(  2-C , 13-H ) :  -0.0818 
B(  2-C , 14-H ) :  -0.0958 B(  3-H ,  4-C ) :  -0.0891 B(  3-H ,  5-O ) :  -0.1116 
B(  4-C ,  5-O ) :  -0.1313 B(  4-C , 11-H ) :   0.7901 B(  4-C , 12-H ) :   0.8595 
B(  4-C , 13-H ) :   0.8076 B(  5-O , 14-H ) :   0.5871 


                     *******************************
                     * LOEWDIN POPULATION ANALYSIS *
                     *******************************

----------------------
LOEWDIN ATOMIC CHARGES
----------------------
   0 C :   -0.421794
   1 C :   -0.283932
   2 C :    0.043609
   3 H :    0.159723
   4 C :   -0.404149
   5 O :   -0.618951
   6 H :    0.150682
   7 H :    0.164531
   8 H :    0.148808
   9 H :    0.164460
  10 H :    0.156620
  11 H :    0.151300
  12 H :    0.162041
  13 H :    0.160403
  14 H :    0.266651

-------------------------------
LOEWDIN REDUCED ORBITAL CHARGES
-------------------------------
  0 C s       :     2.968514  s :     2.968514
      pz      :     1.101763  p :     3.390433
      px      :     1.128258
      py      :     1.160412
      dz2     :     0.010656  d :     0.062846
      dxz     :     0.012173
      dyz     :     0.019089
      dx2y2   :     0.017292
      dxy     :     0.003636

  1 C s       :     2.935855  s :     2.935855
      pz      :     1.094014  p :     3.270657
      px      :     1.052145
      py      :     1.124498
      dz2     :     0.012275  d :     0.077421
      dxz     :     0.018178
      dyz     :     0.018315
      dx2y2   :     0.019631
      dxy     :     0.009022

  2 C s       :     2.839211  s :     2.839211
      pz      :     1.038634  p :     2.970295
      px      :     1.052230
      py      :     0.879430
      dz2     :     0.027078  d :     0.146885
      dxz     :     0.021274
      dyz     :     0.033950
      dx2y2   :     0.038125
      dxy     :     0.026458

  3 H s       :     0.800495  s :     0.800495
      pz      :     0.022549  p :     0.039782
      px      :     0.011429
      py      :     0.005804

  4 C s       :     2.975562  s :     2.975562
      pz      :     1.130516  p :     3.367305
      px      :     1.125119
      py      :     1.111670
      dz2     :     0.017341  d :     0.061282
      dxz     :     0.009245
      dyz     :     0.009392
      dx2y2   :     0.018935
      dxy     :     0.006370

  5 O s       :     3.512954  s :     3.512954
      pz      :     1.822698  p :     4.814265
      px      :     1.514970
      py      :     1.476597
      dz2     :     0.042270  d :     0.291732
      dxz     :     0.028344
      dyz     :     0.067184
      dx2y2   :     0.075380
      dxy     :     0.078555

  6 H s       :     0.805756  s :     0.805756
      pz      :     0.008952  p :     0.043563
      px      :     0.025885
      py      :     0.008726

  7 H s       :     0.790964  s :     0.790964
      pz      :     0.012270  p :     0.044505
      px      :     0.008336
      py      :     0.023899

  8 H s       :     0.807453  s :     0.807453
      pz      :     0.015121  p :     0.043739
      px      :     0.010201
      py      :     0.018417

  9 H s       :     0.792558  s :     0.792558
      pz      :     0.015202  p :     0.042982
      px      :     0.011301
      py      :     0.016480

 10 H s       :     0.800163  s :     0.800163
      pz      :     0.011790  p :     0.043218
      px      :     0.008125
      py      :     0.023303

 11 H s       :     0.805411  s :     0.805411
      pz      :     0.008395  p :     0.043289
      px      :     0.025850
      py      :     0.009043

 12 H s       :     0.793735  s :     0.793735
      pz      :     0.025450  p :     0.044224
      px      :     0.010789
      py      :     0.007985

 13 H s       :     0.795468  s :     0.795468
      pz      :     0.009705  p :     0.044130
      px      :     0.008207
      py      :     0.026217

 14 H s       :     0.609028  s :     0.609028
      pz      :     0.034562  p :     0.124321
      px      :     0.064272
      py      :     0.025488


---------------------------------
LOEWDIN BOND ORDERS (THRESH 0.050000)
---------------------------------
B(  0-C ,  1-C ) :   1.1330 B(  0-C ,  2-C ) :   0.0582 B(  0-C ,  6-H ) :   0.9289 
B(  0-C ,  7-H ) :   0.9188 B(  0-C ,  8-H ) :   0.9282 B(  1-C ,  2-C ) :   1.0207 
B(  1-C ,  4-C ) :   0.0638 B(  1-C ,  5-O ) :   0.1703 B(  1-C ,  9-H ) :   0.8832 
B(  1-C , 10-H ) :   0.8871 B(  2-C ,  3-H ) :   0.8047 B(  2-C ,  4-C ) :   1.0502 
B(  2-C ,  5-O ) :   1.3994 B(  3-H ,  5-O ) :   0.1006 B(  4-C ,  5-O ) :   0.1681 
B(  4-C , 11-H ) :   0.9227 B(  4-C , 12-H ) :   0.9160 B(  4-C , 13-H ) :   0.9162 
B(  5-O , 14-H ) :   0.9719 

------------------------------------------
LOEWDIN REDUCED ORBITAL POPULATIONS PER MO
-------------------------------------------
THRESHOLD FOR PRINTING IS 0.1%%
                      0         1         2         3         4         5   
                 -18.94429 -10.07970 -10.02236 -10.02058 -10.00994  -0.98472
                   2.00000   2.00000   2.00000   2.00000   2.00000   2.00000
                  --------  --------  --------  --------  --------  --------
 0 C  s               0.0       0.0       0.0       0.0      99.7       0.1
 0 C  px              0.0       0.0       0.0       0.0       0.0       0.2
 1 C  s               0.0       0.0      99.7       0.0       0.0       0.8
 1 C  px              0.0       0.1       0.0       0.0       0.0       1.0
 1 C  py              0.0       0.0       0.0       0.0       0.0       0.5
 2 C  s               0.0      99.4       0.0       0.0       0.0       9.7
 2 C  pz              0.0       0.0       0.0       0.0       0.0       1.1
 2 C  py              0.0       0.0       0.0       0.0       0.0       7.3
 2 C  dz2             0.0       0.0       0.0       0.0       0.0       0.1
 2 C  dyz             0.0       0.0       0.0       0.0       0.0       0.2
 2 C  dx2y2           0.0       0.0       0.0       0.0       0.0       0.4
 3 H  s               0.0       0.0       0.0       0.0       0.0       0.7
 4 C  s               0.0       0.0       0.0      99.7       0.0       0.9
 4 C  pz              0.0       0.0       0.0       0.0       0.0       0.3
 4 C  px              0.0       0.0       0.0       0.0       0.0       0.2
 4 C  py              0.0       0.0       0.0       0.0       0.0       1.1
 5 O  s              99.9       0.0       0.0       0.0       0.0      59.1
 5 O  px              0.0       0.0       0.0       0.0       0.0       1.3
 5 O  py              0.0       0.1       0.0       0.0       0.0       1.3
 5 O  dz2             0.0       0.0       0.0       0.0       0.0       0.1
 5 O  dx2y2           0.0       0.2       0.0       0.0       0.0       0.1
14 H  s               0.0       0.0       0.0       0.0       0.0      10.5
14 H  pz              0.0       0.0       0.0       0.0       0.0       0.1
14 H  px              0.0       0.0       0.0       0.0       0.0       1.9
14 H  py              0.0       0.0       0.0       0.0       0.0       0.3

                      6         7         8         9        10        11   
                  -0.75112  -0.68698  -0.61369  -0.53378  -0.47489  -0.43223
                   2.00000   2.00000   2.00000   2.00000   2.00000   2.00000
                  --------  --------  --------  --------  --------  --------
 0 C  s              12.4      15.1      15.4       4.0       0.7       0.1
 0 C  pz              1.7       0.4       1.9       6.1       0.6       1.6
 0 C  px              1.1       0.1       0.7       0.7       1.4       8.6
 0 C  py              0.0       0.0       0.1       0.2       1.3       2.1
 1 C  s              23.0       6.2       4.1      10.5       0.2       0.1
 1 C  pz              1.0       0.8       5.3       4.7       0.5       6.4
 1 C  px              0.3       4.4       4.8       1.4       0.4       8.7
 1 C  py              0.0       0.0       0.5       2.1       3.7       5.8
 1 C  dz2             0.0       0.1       0.1       0.0       0.0       0.0
 2 C  s              12.2       4.1       6.2       5.8       2.4       0.3
 2 C  pz              0.0       1.1       4.9       0.0      10.2       6.4
 2 C  px              1.8       6.5       3.4       1.2       9.7       3.0
 2 C  py              4.7       2.5       0.2       2.8       5.5       6.3
 2 C  dyz             0.1       0.1       0.0       0.0       0.0       0.0
 2 C  dx2y2           0.2       0.0       0.0       0.1       0.1       0.0
 3 H  s               1.8       0.9       2.4       2.3      10.6       1.9
 3 H  pz              0.1       0.1       0.1       0.2       0.4       0.0
 4 C  s               9.3      25.2       8.8       1.6       0.9       0.5
 4 C  pz              0.6       0.1       1.7       1.0       9.7       0.1
 4 C  px              0.9       0.1       0.7       0.4       0.0      18.4
 4 C  py              0.1       0.0       0.5       2.0       0.6       0.1
 5 O  s               3.8       1.0       0.4       0.6       1.4       0.0
 5 O  pz              0.3       0.0       1.9       2.9       0.2       5.0
 5 O  px              0.9       0.1       2.1       4.3      19.6       0.2
 5 O  py              3.0       1.1       3.4      14.4       4.8       0.6
 5 O  dz2             0.2       0.0       0.0       0.0       0.0       0.1
 5 O  dxz             0.0       0.0       0.0       0.2       0.1       0.0
 5 O  dyz             0.2       0.0       0.7       0.1       0.6       0.3
 5 O  dx2y2           0.8       0.5       0.3       0.7       0.1       0.2
 5 O  dxy             0.0       0.5       0.1       0.2       0.2       0.2
 6 H  s               1.7       3.1       4.7       1.5       1.1       3.2
 6 H  px              0.1       0.3       0.3       0.1       0.0       0.1
 7 H  s               1.7       2.7       4.1       2.9       0.0       0.1
 7 H  py              0.1       0.2       0.3       0.2       0.0       0.0
 8 H  s               1.8       2.5       4.9       2.1       0.8       1.9
 8 H  pz              0.1       0.1       0.1       0.0       0.0       0.0
 8 H  py              0.1       0.1       0.2       0.1       0.0       0.0
 9 H  s               3.2       1.3       1.6       4.8       0.7       6.8
 9 H  pz              0.1       0.1       0.0       0.1       0.0       0.1
 9 H  py              0.1       0.1       0.1       0.2       0.0       0.1
10 H  s               3.4       1.1       1.2       7.6       0.5       0.2
10 H  py              0.3       0.1       0.1       0.4       0.0       0.0
11 H  s               1.3       5.4       3.1       0.8       0.2       7.9
11 H  px              0.1       0.4       0.2       0.0       0.0       0.2
12 H  s               1.4       4.6       3.2       0.8       4.0       0.2
12 H  pz              0.1       0.4       0.2       0.0       0.1       0.0
13 H  s               1.5       5.1       2.5       1.5       0.2       0.1
13 H  px              0.0       0.0       0.0       0.0       0.0       0.1
13 H  py              0.1       0.4       0.2       0.1       0.0       0.0
14 H  s               1.6       0.2       1.7       4.9       5.4       0.5
14 H  px              0.3       0.1       0.2       0.4       0.1       0.0

                     12        13        14        15        16        17   
                  -0.40333  -0.39040  -0.36021  -0.35332  -0.32861  -0.31150
                   2.00000   2.00000   2.00000   2.00000   2.00000   2.00000
                  --------  --------  --------  --------  --------  --------
 0 C  s               0.1       0.0       0.1       0.1       0.3       0.2
 0 C  pz              4.5       0.0      11.8       0.1       4.4      15.0
 0 C  px              0.0       1.1       5.5      18.5      11.9       0.3
 0 C  py              0.6      29.1       0.9       0.0       0.4       8.2
 0 C  dz2             0.0       0.0       0.0       0.0       0.1       0.0
 0 C  dyz             0.0       0.0       0.0       0.0       0.1       0.2
 0 C  dx2y2           0.0       0.0       0.1       0.1       0.0       0.3
 1 C  s               0.5       0.1       0.0       0.4       0.2       0.2
 1 C  pz              0.1       0.7       2.5       5.3       7.0      13.5
 1 C  px              4.7       0.2       2.5       0.2       5.5       0.2
 1 C  py              1.2      18.8       0.3       0.8       2.0       4.4
 1 C  dz2             0.0       0.0       0.0       0.1       0.2       0.0
 1 C  dxz             0.0       0.0       0.0       0.0       0.1       0.1
 1 C  dyz             0.0       0.0       0.0       0.0       0.1       0.2
 1 C  dx2y2           0.0       0.1       0.0       0.0       0.0       0.4
 2 C  s               0.2       0.3       0.1       0.3       0.1       0.4
 2 C  pz             10.0       0.3       7.0       0.1       0.5       1.7
 2 C  px              4.0       0.2       0.8       0.1       1.4       1.3
 2 C  py              0.5       4.2       1.2       0.0       4.5       2.3
 2 C  dz2             0.0       0.0       0.1       0.1       0.0       0.0
 2 C  dyz             0.0       0.1       0.0       0.0       0.0       0.1
 2 C  dx2y2           0.0       0.4       0.1       0.1       0.0       0.2
 2 C  dxy             0.0       0.0       0.1       0.0       0.1       0.0
 3 H  s               1.3       0.0       2.1       0.3       0.4       1.3
 3 H  px              0.1       0.0       0.1       0.0       0.0       0.0
 3 H  py              0.0       0.0       0.0       0.0       0.1       0.0
 4 C  s               0.2       0.0       0.2       0.1       0.0       0.0
 4 C  pz              0.9       0.3      23.6       8.1       0.2       1.1
 4 C  px              0.2       0.4       1.3      24.7       1.6       0.2
 4 C  py             28.5       2.4       3.7       0.4       8.4       2.1
 4 C  dz2             0.0       0.0       0.1       0.3       0.0       0.0
 4 C  dxz             0.0       0.0       0.1       0.0       0.0       0.0
 4 C  dyz             0.2       0.0       0.0       0.0       0.0       0.0
 4 C  dx2y2           0.1       0.0       0.2       0.1       0.2       0.2
 5 O  s               2.7       0.9       0.4       0.2       2.5       0.4
 5 O  pz              2.0       4.6       1.6       0.0       8.5       0.4
 5 O  px              6.9       2.9       1.4       1.5      16.1       2.8
 5 O  py             10.6       3.1       1.0       0.1       4.6      12.4
 5 O  dz2             0.3       0.3       0.1       0.1       0.0       0.0
 5 O  dyz             0.3       0.0       0.1       0.0       0.1       0.1
 5 O  dx2y2           0.1       0.1       0.1       0.1       0.2       0.2
 5 O  dxy             0.4       0.4       0.0       0.0       0.1       0.1
 6 H  s               0.1       1.3       3.5       9.0       4.4       2.5
 6 H  px              0.0       0.0       0.1       0.1       0.0       0.1
 6 H  py              0.0       0.1       0.0       0.0       0.0       0.0
 7 H  s               1.5       8.7       0.5       0.3       1.0      11.4
 7 H  pz              0.0       0.2       0.0       0.0       0.0       0.0
 7 H  px              0.0       0.0       0.0       0.1       0.1       0.0
 7 H  py              0.0       0.1       0.1       0.0       0.0       0.2
 8 H  s               0.5       5.2       6.6       1.0       0.2       0.0
 8 H  pz              0.0       0.2       0.0       0.0       0.1       0.1
 8 H  px              0.0       0.1       0.0       0.0       0.1       0.0
 8 H  py              0.0       0.0       0.1       0.1       0.0       0.1
 9 H  s               0.1       2.0       0.4       1.4       0.3       0.7
 9 H  pz              0.0       0.1       0.0       0.0       0.1       0.1
 9 H  py              0.0       0.0       0.0       0.0       0.0       0.1
10 H  s               0.7       7.3       0.0       0.1       3.0       9.3
10 H  py              0.0       0.1       0.0       0.0       0.1       0.1
11 H  s               0.7       0.0       1.4      13.4       2.5       0.6
11 H  pz              0.0       0.0       0.2       0.1       0.0       0.0
11 H  px              0.0       0.0       0.0       0.1       0.1       0.0
11 H  py              0.2       0.0       0.0       0.0       0.0       0.0
12 H  s               0.2       0.0      10.2      10.4       0.1       0.7
12 H  pz              0.0       0.0       0.1       0.3       0.0       0.0
12 H  px              0.0       0.0       0.1       0.0       0.0       0.0
12 H  py              0.2       0.0       0.0       0.0       0.1       0.0
13 H  s              13.3       0.8       6.1       0.1       4.3       2.4
13 H  px              0.0       0.0       0.0       0.2       0.0       0.0
13 H  py              0.3       0.0       0.2       0.0       0.0       0.0
14 H  s               0.1       2.0       0.4       0.1       0.7       0.0
14 H  pz              0.0       0.0       0.0       0.0       0.2       0.0
14 H  py              0.2       0.0       0.0       0.0       0.2       0.3

                     18        19        20        21        22        23   
                  -0.30243  -0.28150  -0.23311   0.06219   0.10898   0.12124
                   2.00000   2.00000   2.00000   0.00000   0.00000   0.00000
                  --------  --------  --------  --------  --------  --------
 0 C  s               0.1       0.0       0.0       3.9       8.5      10.1
 0 C  pz              5.6       0.0       1.2       0.0       0.7       7.3
 0 C  px              0.0       5.8       0.4       0.2       0.3       4.5
 0 C  py             15.0       0.1       0.1       0.0       1.5       0.2
 0 C  dz2             0.0       0.1       0.0       0.1       0.1       0.4
 0 C  dxz             0.1       0.0       0.0       0.0       0.2       0.2
 0 C  dyz             0.6       0.0       0.0       0.0       0.1       0.0
 0 C  dx2y2           0.0       0.2       0.0       0.0       0.1       0.1
 1 C  s               0.0       0.6       0.0       2.8       3.7       5.7
 1 C  pz              5.4       1.1       0.3       0.6       1.6      10.0
 1 C  px              0.1      17.3       0.6       0.1       1.0       4.0
 1 C  py             15.8       0.2       0.0       0.5       0.4       0.2
 1 C  dz2             0.0       0.1       0.0       0.0       0.0       0.8
 1 C  dxz             0.3       0.0       0.1       0.2       0.2       0.3
 1 C  dyz             0.5       0.0       0.0       0.0       0.0       0.0
 1 C  dx2y2           0.0       0.1       0.0       0.4       0.0       0.0
 1 C  dxy             0.0       0.2       0.0       0.0       0.5       0.0
 2 C  s               0.1       0.4       0.1       3.2       1.2       7.6
 2 C  pz              2.6       0.1       5.7       1.6       1.8       8.9
 2 C  px              0.5      18.2       0.3       4.9       0.3       1.9
 2 C  py              0.3       0.8       0.8       8.8      10.2       0.6
 2 C  dz2             0.0       0.2       0.6       0.1       0.1       0.4
 2 C  dxz             0.2       0.0       0.4       0.2       0.4       0.0
 2 C  dyz             0.0       0.1       0.8       0.3       0.4       0.0
 2 C  dx2y2           0.1       0.1       0.1       0.4       0.4       0.2
 2 C  dxy             0.1       0.6       0.0       0.1       0.1       0.0
 3 H  s               2.2       2.6       9.3       1.1       1.3       2.7
 3 H  pz              0.0       0.1       0.0       0.3       0.3       2.4
 3 H  px              0.0       0.1       0.0       0.3       0.2       0.0
 3 H  py              0.0       0.0       0.0       0.3       0.6       0.0
 4 C  s               0.0       0.3       1.0       6.8      13.5       2.4
 4 C  pz              5.1       1.2       2.5       0.3       0.6       9.2
 4 C  px              0.0       6.2       0.9       1.8       0.1       1.1
 4 C  py              0.0       2.4       3.0       1.9       5.9       3.0
 4 C  dz2             0.1       0.2       0.0       0.3       0.1       0.1
 4 C  dxz             0.0       0.0       0.0       0.1       0.0       0.1
 4 C  dyz             0.0       0.1       0.0       0.1       0.0       0.6
 4 C  dx2y2           0.0       0.0       0.1       0.1       0.8       0.0
 4 C  dxy             0.0       0.0       0.0       0.1       0.0       0.1
 5 O  s               0.2       2.2       0.0       6.8       2.9       0.5
 5 O  pz              4.6       0.0      58.9       0.1       0.4       0.0
 5 O  px              0.5      14.0       1.2       5.2       2.5       0.2
 5 O  py              0.7       6.0       6.7       1.4       0.8       0.5
 5 O  dz2             0.1       0.1       0.5       0.2       0.1       0.7
 5 O  dxz             0.6       0.3       0.0       0.2       0.4       0.2
 5 O  dyz             0.0       0.1       0.6       0.1       1.2       1.8
 5 O  dx2y2           0.0       0.1       0.1       3.9       0.0       0.0
 5 O  dxy             0.1       1.5       0.0       0.6       0.0       0.1
 6 H  s               0.0       4.2       0.0       0.6       2.2       0.6
 6 H  pz              0.1       0.0       0.0       0.0       0.2       0.0
 6 H  px              0.0       0.0       0.0       0.2       0.8       0.3
 6 H  py              0.1       0.0       0.0       0.0       0.1       0.0
 7 H  s               4.4       0.1       0.1       0.5       0.3       0.9
 7 H  pz              0.2       0.0       0.0       0.0       0.0       0.4
 7 H  py              0.0       0.0       0.0       0.2       0.1       0.6
 8 H  s              11.5       1.2       0.0       0.4       3.6       1.7
 8 H  pz              0.0       0.0       0.0       0.0       0.4       0.9
 8 H  px              0.1       0.0       0.0       0.1       0.8       0.0
 8 H  py              0.0       0.0       0.0       0.1       0.4       0.6
 9 H  s              12.4       3.5       0.3       0.5       2.5       0.3
 9 H  pz              0.0       0.0       0.0       0.0       0.1       0.8
 9 H  px              0.1       0.1       0.0       0.0       0.4       0.1
 9 H  py              0.0       0.0       0.0       0.2       0.4       0.2
10 H  s               5.3       0.1       0.1       2.1       0.5       0.2
10 H  pz              0.2       0.0       0.0       0.0       0.0       0.5
10 H  px              0.0       0.2       0.0       0.0       0.1       0.3
10 H  py              0.0       0.0       0.0       0.6       0.4       0.2
11 H  s               0.0       2.7       0.1       1.8       3.6       0.2
11 H  px              0.0       0.0       0.0       0.4       1.3       0.1
11 H  py              0.0       0.1       0.0       0.7       0.0       0.1
12 H  s               2.7       0.5       0.5       0.3       4.8       0.5
12 H  pz              0.0       0.0       0.0       0.0       1.2       0.7
12 H  px              0.0       0.1       0.0       0.2       0.6       0.0
12 H  py              0.0       0.0       0.0       0.1       0.0       0.2
13 H  s               0.5       0.4       0.6       3.4       1.8       0.1
13 H  pz              0.0       0.0       0.0       0.1       0.2       0.2
13 H  px              0.0       0.1       0.0       0.2       0.0       0.1
13 H  py              0.0       0.0       0.0       0.6       0.2       0.1
14 H  s               0.2       2.1       0.0      21.0       5.3       0.4
14 H  pz              0.1       0.0       1.2       0.2       0.2       0.0
14 H  px              0.0       0.0       0.0       4.4       1.2       0.1
14 H  py              0.0       0.2       0.1       0.5       0.3       0.1

                     24        25        26        27        28        29   
                   0.13143   0.14877   0.15315   0.15326   0.16048   0.18010
                   0.00000   0.00000   0.00000   0.00000   0.00000   0.00000
                  --------  --------  --------  --------  --------  --------
 0 C  s               8.3       0.5       1.6       4.6       0.4       0.2
 0 C  pz              2.7       5.2       4.7      12.7       2.0       0.5
 0 C  px              6.9       3.5       1.0       1.9       2.8       2.3
 0 C  py              1.8       1.8       0.5       2.3       1.9       8.9
 0 C  dz2             0.3       0.0       0.1       0.2       0.0       0.3
 0 C  dxz             0.0       0.8       0.1       0.1       0.3       0.0
 0 C  dyz             0.1       0.5       0.2       0.4       0.0       0.8
 0 C  dx2y2           0.0       0.0       0.7       0.5       0.1       0.5
 0 C  dxy             0.0       0.0       0.3       0.1       0.5       0.0
 1 C  s               6.3       6.4       1.3       2.4       0.7       0.2
 1 C  pz              2.8       7.5       2.8       0.4       4.8       0.2
 1 C  px              5.5       9.0       0.6       3.4       2.3       6.4
 1 C  py              0.5       3.1       0.0       4.1       9.9       6.5
 1 C  dz2             0.0       0.0       0.2       0.0       0.0       0.6
 1 C  dxz             0.2       0.0       0.6       0.5       0.3       0.0
 1 C  dyz             0.0       0.2       0.1       0.1       1.2       1.5
 1 C  dx2y2           0.1       1.6       0.0       0.1       0.0       0.1
 1 C  dxy             0.2       0.1       0.2       0.1       0.9       0.2
 2 C  s               1.1       4.5       3.3       2.7       0.2       0.6
 2 C  pz              0.5       3.0      12.5       0.9       2.2       1.3
 2 C  px              4.6       3.9       0.6       3.0       0.9       5.4
 2 C  py              7.1       3.6       3.0       0.5       2.4       1.2
 2 C  dz2             0.5       0.0       0.5       0.0       0.0       0.0
 2 C  dxz             0.0       0.0       0.5       0.4       0.2       0.4
 2 C  dyz             0.4       0.0       0.0       0.0       0.0       0.0
 2 C  dx2y2           0.3       1.3       0.9       0.1       0.3       0.1
 2 C  dxy             0.0       0.0       0.1       0.0       0.7       0.4
 3 H  s               0.5       0.6       4.8       3.1       0.5       1.2
 3 H  pz              0.0       0.3       0.6       0.9       0.1       0.2
 3 H  px              0.1       0.9       0.8       0.3       0.1       0.2
 3 H  py              0.5       0.1       0.1       0.0       0.1       0.1
 4 C  s               6.6       0.7       1.5       4.2       0.1       2.9
 4 C  pz              1.6       8.6       1.8       5.5       6.6       1.1
 4 C  px              8.1       4.8      13.2       0.6       4.0       1.9
 4 C  py              1.8       4.3      10.3      15.5       2.7       4.1
 4 C  dz2             0.6       0.0       0.2       0.1       0.8       0.0
 4 C  dxz             0.0       0.5       0.1       0.3       0.8       0.0
 4 C  dyz             0.1       0.0       0.4       0.1       0.5       0.4
 4 C  dx2y2           0.0       0.3       0.2       0.7       0.5       1.3
 4 C  dxy             0.0       0.1       1.4       0.0       0.1       0.0
 5 O  s               0.8       0.1       0.6       0.2       0.5       0.1
 5 O  pz              1.0       1.6       0.1       0.1       2.2       0.5
 5 O  px              2.0       0.2       0.2       0.0       0.5       0.4
 5 O  py              1.7       0.7       3.4       1.0       0.9       0.2
 5 O  dz2             0.1       0.2       0.1       0.8       0.3       3.5
 5 O  dxz             0.4       0.1       2.6       0.9       0.0       0.3
 5 O  dyz             0.2       0.0       0.4       0.3       0.1       0.4
 5 O  dx2y2           1.2       0.1       5.4       0.1       0.7       0.0
 5 O  dxy             0.0       0.6       0.1       0.7       1.4       3.8
 6 H  s               1.6       0.2       0.9       2.7       1.8       2.8
 6 H  pz              0.2       0.7       0.1       0.0       0.3       0.0
 6 H  px              1.0       0.0       0.0       0.9       0.1       0.6
 6 H  py              0.1       0.1       0.1       0.1       0.2       0.1
 7 H  s               2.7       1.4       0.5       0.7       0.1       1.4
 7 H  pz              0.0       0.1       0.2       1.2       0.0       0.4
 7 H  px              0.1       0.3       0.1       0.1       0.5       0.1
 7 H  py              0.7       0.0       0.7       0.1       0.0       0.3
 8 H  s               0.4       1.1       5.3       1.7       0.1       4.1
 8 H  pz              0.0       0.3       0.0       0.1       0.2       0.8
 8 H  px              0.1       0.0       0.3       0.0       0.0       0.0
 8 H  py              0.5       0.3       1.3       0.3       0.0       0.5
 9 H  s               0.9       0.6       0.2       0.1       8.8       4.0
 9 H  pz              0.3       1.1       0.1       0.0       0.3       0.9
 9 H  px              0.1       0.8       0.0       0.1       0.4       0.0
 9 H  py              0.4       0.0       0.3       0.1       0.9       0.6
10 H  s               1.7       2.3       0.1       2.6       2.1       2.5
10 H  pz              0.1       0.1       0.0       0.3       1.3       0.6
10 H  px              0.3       0.3       0.3       0.2       0.3       0.4
10 H  py              1.1       0.1       0.1       0.9       0.3       0.6
11 H  s               0.9       1.0       0.8       0.2       6.5       1.9
11 H  pz              0.0       0.3       0.0       0.3       0.4       0.0
11 H  px              0.7       0.7       0.1       0.0       1.1       0.5
11 H  py              0.2       0.1       0.4       0.1       0.1       0.1
12 H  s               4.5       0.4       0.2       1.0      10.0       0.8
12 H  pz              1.5       0.1       0.0       0.0       1.6       0.5
12 H  px              0.1       0.0       0.0       0.2       0.3       0.0
12 H  py              0.0       0.0       0.0       0.0       0.8       1.0
13 H  s               0.1       0.7       0.4       6.4       0.8       9.4
13 H  pz              0.4       0.0       0.1       0.0       1.0       0.5
13 H  px              0.0       0.0       0.8       0.1       0.6       0.0
13 H  py              0.0       0.3       0.8       3.0       0.0       1.8
14 H  s               1.3       3.8       0.6       0.1       0.1       1.1
14 H  px              0.4       0.7       0.2       0.0       0.0       0.2
14 H  py              0.0       0.1       0.1       0.0       0.1       0.1

                     30        31        32        33        34        35   
                   0.19034   0.19493   0.20418   0.21163   0.22402   0.23605
                   0.00000   0.00000   0.00000   0.00000   0.00000   0.00000
                  --------  --------  --------  --------  --------  --------
 0 C  s               1.0       0.0       0.5       0.5       0.1       2.0
 0 C  pz              3.5       4.6      11.2       8.2       0.3       5.2
 0 C  px              2.5      25.2       4.2       1.0       1.3       8.9
 0 C  py              5.5       0.4       1.2       9.8      39.0       0.4
 0 C  dz2             0.3       0.2       0.5       0.1       0.5       0.1
 0 C  dxz             0.1       1.0       0.1       0.0       0.1       0.8
 0 C  dyz             1.0       0.1       0.1       0.2       1.0       0.1
 0 C  dx2y2           1.4       0.1       0.7       1.7       0.1       0.1
 0 C  dxy             0.0       0.0       0.1       0.0       1.2       0.0
 1 C  s               0.0       0.9       0.6       0.9       0.1       3.5
 1 C  pz              2.0       6.8       6.4       3.7       0.2      10.5
 1 C  px              4.7       0.6       0.7       1.3       5.6       0.6
 1 C  py              6.0       2.6       2.2       1.4       1.2       0.4
 1 C  dz2             0.4       0.0       0.1       0.4       0.3       0.4
 1 C  dxz             0.0       0.1       0.3       0.0       0.1       0.2
 1 C  dyz             0.3       0.1       0.0       0.1       0.1       0.1
 1 C  dx2y2           0.3       0.1       0.2       0.0       0.5       0.9
 1 C  dxy             0.5       0.2       0.0       0.0       0.1       0.0
 2 C  s               0.1       0.0       0.5       0.3       1.6       0.8
 2 C  pz              0.6       0.5      15.5       0.1       1.4       0.8
 2 C  px              6.8       0.7       1.5       1.1       3.0       0.7
 2 C  py              0.1      11.3       1.3       0.3       2.5       2.3
 2 C  dz2             0.7       0.0       0.1       0.2       0.5       0.3
 2 C  dxz             0.1       0.2       0.1       0.0       0.0       0.1
 2 C  dyz             0.2       0.3       0.1       0.2       0.1       0.3
 2 C  dx2y2           0.3       0.2       0.1       0.0       0.0       0.1
 2 C  dxy             0.0       0.0       0.1       0.0       0.0       0.0
 3 H  s               0.4       0.3       1.4       0.3       0.3       2.5
 3 H  pz              0.5       0.0       1.1       0.1       0.0       0.9
 3 H  px              0.4       0.0       0.2       0.3       0.1       0.0
 3 H  py              0.0       0.8       0.1       0.2       0.1       0.3
 4 C  s               0.8       0.0       1.3       0.1       0.2       0.2
 4 C  pz              1.6       3.8      11.2      15.8       7.3       2.2
 4 C  px              8.5       5.1       5.2       6.9       0.8       0.0
 4 C  py              3.5       2.2       0.7       4.1       1.2       3.3
 4 C  dz2             0.7       0.2       0.0       1.4       0.4       0.3
 4 C  dxz             0.1       0.5       0.5       0.3       0.1       0.1
 4 C  dyz             0.8       0.2       0.0       0.0       0.3       0.0
 4 C  dx2y2           0.1       0.4       0.4       0.0       0.0       0.3
 4 C  dxy             0.1       0.0       0.3       0.7       0.0       0.0
 5 O  s               0.2       0.6       0.2       0.3       0.4       0.2
 5 O  pz              0.3       1.2       0.1       0.1       0.1       2.3
 5 O  px              1.5       0.6       0.0       1.1       0.5       1.2
 5 O  py              0.5       0.7       0.9       1.0       1.3       0.5
 5 O  dz2             2.5       1.1       0.2       0.8       0.0       0.6
 5 O  dxz             0.2       2.9       0.7       0.5       0.2       0.4
 5 O  dyz             0.1       0.0       0.6       0.0       0.5       0.7
 5 O  dx2y2           0.5       0.8       0.0       1.2       3.6       0.1
 5 O  dxy             0.0       0.2       0.0       0.1       0.1       0.1
 6 H  s               4.8       1.0       6.9       3.1       0.6       4.4
 6 H  pz              0.0       0.4       0.0       0.1       0.0       0.8
 6 H  px              1.0       0.4       1.9       0.8       0.1       1.6
 6 H  py              0.3       0.0       0.1       0.1       2.2       0.0
 7 H  s               9.8       1.2       1.0       7.7       5.8       0.7
 7 H  pz              1.0       0.0       0.0       0.1       0.0       0.1
 7 H  px              0.0       0.1       0.3       0.0       0.5       0.1
 7 H  py              1.1       0.3       0.4       2.5       0.1       0.4
 8 H  s               1.1       1.5       2.5       0.5       5.2       3.8
 8 H  pz              0.1       0.0       0.5       0.7       0.7       0.0
 8 H  px              0.3       0.9       0.1       0.4       0.3       0.3
 8 H  py              0.2       0.4       0.5       0.1       0.1       0.5
 9 H  s               0.6       0.7       0.8       0.2       0.7       7.6
 9 H  pz              0.1       0.1       0.0       0.0       0.0       0.3
 9 H  px              0.1       0.4       0.0       0.0       0.7       0.2
 9 H  py              0.2       0.2       0.1       0.4       0.1       2.6
10 H  s               1.2       3.3       0.1       0.3       0.1       8.3
10 H  pz              0.3       0.1       0.0       0.1       0.0       0.0
10 H  px              0.4       0.0       0.0       0.0       0.1       0.0
10 H  py              0.0       1.2       0.0       0.1       0.1       3.7
11 H  s               3.6       2.5       5.6       5.2       0.8       0.5
11 H  pz              0.1       0.7       0.3       0.4       0.0       0.2
11 H  px              1.3       0.2       2.2       0.5       0.1       0.2
11 H  py              0.3       0.0       0.1       0.8       0.0       0.0
12 H  s               1.6       1.3       0.7       5.1       0.0       3.0
12 H  pz              0.6       0.2       0.2       0.1       0.3       1.0
12 H  px              0.0       1.5       0.5       0.1       0.2       0.2
12 H  py              0.5       0.3       0.0       0.0       0.2       0.0
13 H  s               3.6       1.4       0.1       1.6       1.7       1.2
13 H  pz              0.3       0.2       0.0       0.2       0.2       0.0
13 H  px              0.3       0.0       0.2       1.1       0.0       0.0
13 H  py              0.6       0.2       0.0       0.0       0.5       0.7
14 H  s               2.1       1.2       1.0       0.5       0.0       1.5
14 H  px              0.6       0.2       0.1       0.1       0.0       0.4
14 H  py              0.1       0.0       0.0       0.0       0.1       0.0

                     36        37        38        39        40        41   
                   0.24831   0.25639   0.26600   0.28940   0.30573   0.33594
                   0.00000   0.00000   0.00000   0.00000   0.00000   0.00000
                  --------  --------  --------  --------  --------  --------
 0 C  s               1.6       1.7       0.3       0.5       0.9       0.7
[...]
 2 C  px              0.0       0.0       0.5       3.8       0.8       0.1
 2 C  py              0.0       1.2       1.6       0.2       0.2       7.7
 2 C  dz2             0.2       0.3       1.0       4.1       1.9       2.8
 2 C  dxz             0.0       1.4       5.9       2.3       3.6       0.2
 2 C  dyz             0.2       0.1       1.6       0.0       0.9       3.2
 2 C  dx2y2           0.0       0.0       0.4       1.1       0.1       7.2
 2 C  dxy             0.8       0.5       1.1       0.5       0.0       0.0
 3 H  s               0.2       1.0       2.5       2.3       2.3       0.9
 3 H  pz              0.2       1.5       5.1       5.7       5.1       0.9
 3 H  px              0.5       0.7       2.6       0.6       1.0       0.3
 3 H  py              0.0       0.6       0.2       0.1       0.0       0.4
 4 C  s               0.1       0.9       1.2       0.0       0.3       0.0
 4 C  pz              2.9       0.5       4.5       0.1       1.2       0.1
 4 C  px              0.7       4.0       0.6       0.4       0.1       0.0
 4 C  py              3.4       1.3       0.5       0.0       0.0       0.1
 4 C  dz2             8.1       5.8       1.1       0.7       1.5       0.2
 4 C  dxz             0.8       0.1       4.4       0.3       1.4       0.0
 4 C  dyz             1.2       0.6       1.9       0.0       0.3       0.1
 4 C  dx2y2           4.0       0.5       0.7       0.3       0.0       0.2
 4 C  dxy             0.3       2.5       0.7       0.1       0.1       0.0
 5 O  s               0.3       0.1       0.3       1.1       0.1      26.3
 5 O  pz              0.1       0.4       0.2       0.0       0.0       1.5
 5 O  px              0.4       0.0       0.1       0.2       0.0       0.7
 5 O  py              0.0       0.2       0.2       0.1       0.0      17.3
 5 O  dz2             0.0       0.1       0.0       0.0       0.0       8.3
 5 O  dxz             0.1       0.1       0.1       0.2       0.1       0.6
 5 O  dyz             0.2       1.4       0.2       0.0       0.0       8.3
 5 O  dx2y2           0.0       0.5       0.0       0.0       0.1       6.1
 5 O  dxy             1.2       0.3       0.3       0.1       0.3       0.4
 6 H  s               1.3       0.0       1.7       1.5       1.6       0.0
 6 H  pz              0.8       0.0       0.0       0.1       0.1       0.0
 6 H  px              3.0       0.1       3.9       3.6       3.4       0.0
 6 H  py              0.4       0.5       0.2       0.1       0.3       0.0
 7 H  s               0.7       4.5       1.1       0.6       1.9       0.0
 7 H  pz              0.5       2.5       0.3       0.5       1.2       0.0
 7 H  px              0.5       0.3       0.0       0.2       0.1       0.0
 7 H  py              1.8       9.3       3.0       0.7       3.6       0.0
 8 H  s               0.1       1.2       1.2       4.1       0.0       0.0
 8 H  pz              0.1       1.5       0.7       3.9       0.1       0.0
 8 H  px              0.0       0.4       0.4       0.4       0.0       0.0
 8 H  py              0.1       0.4       1.8       5.8       0.0       0.0
 9 H  s               1.7       2.3       0.1       3.8       3.1       0.0
 9 H  pz              1.2       2.2       0.1       4.7       3.9       0.0
 9 H  px              1.4       1.6       0.3       1.0       1.3       0.0
 9 H  py              2.6       2.2       0.2       4.7       1.7       0.0
10 H  s               0.1       0.4       1.7       0.2       5.2       0.1
10 H  pz              0.0       0.4       1.2       0.4       2.7       0.1
10 H  py              0.8       0.1       3.6       0.1       9.4       0.1
11 H  s               0.0       2.2       0.1       0.4       0.0       0.0
11 H  pz              0.2       0.0       0.2       0.0       0.0       0.0
11 H  px              0.0       4.7       0.3       0.9       0.0       0.0
11 H  py              0.3       1.0       0.2       0.0       0.0       0.0
12 H  s               3.7       1.9       2.2       0.4       0.9       0.0
12 H  pz              8.2       3.3       5.5       1.1       1.7       0.0
12 H  px              1.4       0.2       1.2       0.0       0.4       0.0
13 H  s               4.2       0.6       0.1       0.0       0.1       0.1
13 H  pz              0.6       0.1       0.2       0.0       0.0       0.0
13 H  px              0.4       0.2       0.1       0.0       0.0       0.0
13 H  py             10.0       1.7       0.1       0.1       0.2       0.2
14 H  s               0.0       0.0       0.0       0.0       0.0       0.6
14 H  px              0.2       0.0       0.0       0.0       0.0       0.7
14 H  py              0.1       0.2       0.1       0.0       0.1       0.2

                    144       145       146       147       148       149   
                   4.59707  21.95166  21.96671  22.01572  22.10330  43.68582
                   0.00000   0.00000   0.00000   0.00000   0.00000   0.00000
                  --------  --------  --------  --------  --------  --------
 0 C  s               0.0      35.0      64.5       0.0       0.1       0.0
 1 C  s               0.0       4.4       3.4      82.8       9.1       0.0
 2 C  s               0.2       0.1       0.3      10.7      88.6       0.1
 2 C  py              1.0       0.0       0.0       0.0       0.0       0.0
 2 C  dyz             0.3       0.0       0.0       0.0       0.0       0.0
 2 C  dx2y2           1.2       0.0       0.0       0.0       0.0       0.0
 4 C  s               0.0      60.2      31.5       6.1       1.9       0.0
 5 O  s               6.9       0.0       0.0       0.0       0.0      99.9
 5 O  pz              1.6       0.0       0.0       0.0       0.0       0.0
 5 O  px             13.9       0.0       0.0       0.0       0.0       0.0
 5 O  py              4.5       0.0       0.0       0.0       0.0       0.0
 5 O  dz2             4.4       0.0       0.0       0.0       0.0       0.0
 5 O  dxz             4.3       0.0       0.0       0.0       0.0       0.0
 5 O  dx2y2          25.4       0.0       0.0       0.0       0.0       0.0
 5 O  dxy             5.5       0.0       0.0       0.0       0.0       0.0
14 H  s              14.3       0.0       0.0       0.0       0.0       0.0
14 H  pz              0.8       0.0       0.0       0.0       0.0       0.0
14 H  px             13.9       0.0       0.0       0.0       0.0       0.0
14 H  py              1.1       0.0       0.0       0.0       0.0       0.0



                      *****************************
                      * MAYER POPULATION ANALYSIS *
                      *****************************

  NA   - Mulliken gross atomic population
  ZA   - Total nuclear charge
  QA   - Mulliken gross atomic charge
  VA   - Mayer's total valence
  BVA  - Mayer's bonded valence
  FA   - Mayer's free valence

  ATOM       NA         ZA         QA         VA         BVA        FA
  0 C      6.5195     6.0000    -0.5195     3.8015     3.8015     0.0000
  1 C      6.2201     6.0000    -0.2201     3.6432     3.6432     0.0000
  2 C      5.9380     6.0000     0.0620     3.5859     3.5859    -0.0000
  3 H      0.8682     1.0000     0.1318     0.9490     0.9490    -0.0000
  4 C      6.5103     6.0000    -0.5103     3.8225     3.8225    -0.0000
  5 O      8.4304     8.0000    -0.4304     1.7812     1.7812     0.0000
  6 H      0.8552     1.0000     0.1448     0.9621     0.9621     0.0000
  7 H      0.8242     1.0000     0.1758     0.9564     0.9564    -0.0000
  8 H      0.8545     1.0000     0.1455     0.9629     0.9629    -0.0000
  9 H      0.8532     1.0000     0.1468     0.9648     0.9648     0.0000
 10 H      0.8672     1.0000     0.1328     0.9667     0.9667     0.0000
 11 H      0.8622     1.0000     0.1378     0.9641     0.9641    -0.0000
 12 H      0.8306     1.0000     0.1694     0.9572     0.9572    -0.0000
 13 H      0.8510     1.0000     0.1490     0.9651     0.9651     0.0000
 14 H      0.7152     1.0000     0.2848     0.9192     0.9192     0.0000

  Mayer bond orders larger than 0.100000
B(  0-C ,  1-C ) :   0.8836 B(  0-C ,  6-H ) :   0.9700 B(  0-C ,  7-H ) :   0.9791 
B(  0-C ,  8-H ) :   0.9788 B(  1-C ,  2-C ) :   0.9513 B(  1-C ,  9-H ) :   0.9701 
B(  1-C , 10-H ) :   0.9704 B(  2-C ,  3-H ) :   0.9574 B(  2-C ,  4-C ) :   0.9133 
B(  2-C ,  5-O ) :   0.8836 B(  4-C , 11-H ) :   0.9657 B(  4-C , 12-H ) :   0.9791 
B(  4-C , 13-H ) :   0.9702 B(  5-O , 14-H ) :   0.9039 

-------
TIMINGS
-------

Total SCF time: 0 days 0 hours 0 min 9 sec 

Total time                  ....       9.037 sec
Sum of individual times     ....       9.001 sec  ( 99.6%)

SCF preparation             ....       0.079 sec  (  0.9%)
Fock matrix formation       ....       8.725 sec  ( 96.5%)
  Startup                   ....       0.008 sec  (  0.1% of F)
  Split-RI-J                ....       1.386 sec  ( 15.9% of F)
  XC integration            ....       7.033 sec  ( 80.6% of F)
    Basis function eval.    ....       1.339 sec  ( 19.0% of XC)
    Density eval.           ....       2.087 sec  ( 29.7% of XC)
    XC-Functional eval.     ....       1.040 sec  ( 14.8% of XC)
    XC-Potential eval.      ....       2.188 sec  ( 31.1% of XC)
Diagonalization             ....       0.000 sec  (  0.0%)
Density matrix formation    ....       0.038 sec  (  0.4%)
Total Energy calculation    ....       0.002 sec  (  0.0%)
Population analysis         ....       0.053 sec  (  0.6%)
Orbital Transformation      ....       0.013 sec  (  0.1%)
Orbital Orthonormalization  ....       0.000 sec  (  0.0%)
DIIS solution               ....       0.082 sec  (  0.9%)
  MO trafo                  ....       0.000 sec  (  0.0 % of DIIS)
  Orb grad                  ....       0.000 sec  (  0.0 % of DIIS)
  Energy W gradient         ....       0.000 sec  (  0.0 % of DIIS)
  DIIS error                ....       0.004 sec  (  5.1 % of DIIS)
  DIIS work                 ....       0.070 sec  ( 85.8 % of DIIS)
  Form Q                    ....       0.000 sec  (  0.0 % of DIIS)
  Form QpQm                 ....       0.000 sec  (  0.0 % of DIIS)
  Exp/Cayley                ....       0.000 sec  (  0.0 % of DIIS)
  Orb update                ....       0.000 sec  (  0.0 % of DIIS)
  Wake-sleep                ....       0.001 sec  (  1.6 % of DIIS)
SOSCF solution              ....       0.011 sec  (  0.1%)
  MO trafo                  ....       0.008 sec  ( 78.4 % of SOSCF)
  Orb grad                  ....       0.000 sec  (  0.6 % of SOSCF)
  Rot update                ....       0.000 sec  (  0.2 % of SOSCF)
  Step                      ....       0.002 sec  ( 20.4 % of SOSCF)
Finished LeanSCF after   9.1 sec

Maximum memory used throughout the entire LEANSCF-calculation: 16.5 MB


-------------------------------------------------------------------------------
                          DFT DISPERSION CORRECTION                            
                                                                               
                                DFTD4 V3.4.0                                   
-------------------------------------------------------------------------------
The R2SCAN3C composite method is recognized
Using three-body term ABC
Active option DFTDOPT                   ...         5   

-------------------------   ----------------
Dispersion correction           -0.003243544
-------------------------   ----------------

------------------   -----------------
gCP correction             0.008227386
------------------   -----------------

-------------------------   --------------------
FINAL SINGLE POINT ENERGY      -233.603313824534
-------------------------   --------------------


------------------------------------------------------------------------------
                              ORCA PROPERTY CALCULATIONS
------------------------------------------------------------------------------

GBWName                                 ... sp.gbw
Number of atoms                         ...     15
Number of basis functions               ...    150
Max core memory                         ...   1024 MB

Electric properties:
Dipole moment                           ... YES
Quadrupole moment                       ...  NO
Static polarizability (Dipole/Dipole)   ...  NO
Static polarizability (Dipole/Quad.)    ...  NO
Static polarizability (Quad./Quad.)     ...  NO
Static polarizability (Velocity)        ...  NO

Atomic electric properties:
Dipole moment                           ...  NO
Quadrupole moment                       ...  NO
Static polarizability                   ...  NO

Choice of electric origin               ... Center of mass
Position of electric origin             ...     0.000008     0.000024     0.000003

General magnetic properties:
Magnetizability                         ...  NO

EPR properties:
g-Tensor (aka g-matrix)                 ...  NO
Zero-Field splitting spin-orbit         ...  NO
Zero-field splitting spin-spin          ...  NO
Hyperfine couplings                     ...  NO (   0 nuclei)
Quadrupole couplings                    ...  NO (   0 nuclei)
Contact density                         ...  NO (   0 nuclei)

NMR properties:
Chemical shifts                         ...  NO (   0 nuclei)
Spin-rotation constants                 ...  NO (   0 nuclei)
Spin-spin couplings                     ...  NO (   0 nuclei,    0 pairs)

Choice of magnetic origin               ... GIAO
Position of magnetic origin             ...     0.000000     0.000000     0.000000

Properties with geometric perturbations:
SCF Hessian                             ...  NO
IR spectrum                             ...  NO
VCD spectrum                            ...  NO
X-ray spectroscopy properties:
SCF XES/XAS/RIXS spectra                ...  NO


-------------
DIPOLE MOMENT
-------------

Method             : SCF
Type of density    : Electron Density
Multiplicity       :   1
Irrep              :   0
Energy             :  -233.6082976663679460 Eh
Relativity type    : 
Basis              : AO
                                X                 Y                 Z
Electronic contribution:     -1.228230360      -3.147519203      -1.140323081
Nuclear contribution   :      0.761403225       3.483651615       1.105453689
                        -----------------------------------------
Total Dipole Moment    :     -0.466827135       0.336132413      -0.034869392
                        -----------------------------------------
Magnitude (a.u.)       :      0.576305863
Magnitude (Debye)      :      1.464853089



--------------------
Rotational spectrum 
--------------------
 
Rotational constants in cm-1:             0.215301             0.131286             0.107458 
Rotational constants in MHz :          6454.567481          3935.849240          3221.517141 

Dipole components along the rotational axes: 
x,y,z [a.u.] :    -0.367353     0.426199    -0.124637 
x,y,z [Debye]:    -0.933736     1.083313    -0.316803 

 

Dipole moment calculation done in   0.0 sec 

Maximum memory used throughout the entire PROP-calculation: 9.2 MB

--------------------------------
SUGGESTED CITATIONS FOR THIS RUN
--------------------------------

Below you find a list of papers that are relevant to this ORCA run
We neither can nor want to force you to cite these papers, but we appreciate if you do
You receive ORCA, which is the product of decades of hard work by many enthusiastic individuals, for free
The only thing we kindly ask in return is that you cite our papers,
We deeply appreciate it, if you show your appreciation for ORCA by not just citing the generic ORCA reference.

Please note that relegating all ORCA citations to the supporting information does *not* help us.
SI sections are not indexed - citations you put there will not count into any citation statistics
But we need these citations in order to attract the funding resources that allow us to do what we are doing

Therefore, if you are a happy ORCA user, please consider citing a few of the papers listed below in the main body of your paper

In addition to the list printed below, the program has created the file sp.bibtex that contains the list in bibtex format
You can import this file easily into all common literature databanks and citation aid programs


List of essential papers. We consider these as the minimum necessary citations

  1. Neese,F.
     Software update: the ORCA program system, version 5.0
     WIRES Comput. Molec. Sci., 2022 12(1)e1606
     doi.org/10.1002/wcms.1606
  2. Grimme,S.; Hansen,A.; Ehlert,S.; Mewes,J.
     r2SCAN-3c: A 'Swiss army knife' composite electronic-structure method
     J. Chem. Phys., 2021 154 064103
     doi.org/10.1063/5.0040021

List of papers to cite with high priority. The work reported in these papers was absolutely
necessary for this run to complete.
Our perspective: the developers of density functionals and basis sets usually get cited in chemistry papers
Good! But without the algorithms to do something with them, the functionals or basis sets would not do anything.
Hence, in our opinion, the algorithm design and method developments papers are equally worthy of getting cited

  1. Neese,F.
     An improvement of the resolution of the identity approximation for the formation of the Coulomb matrix
     J. Comp. Chem., 2003 24(14)1740-1747
     doi.org/10.1002/jcc.10318
  2. Neese,F.
     The SHARK Integral Generation and Digestion System
     J. Comp. Chem., 2022  1-16
     doi.org/10.1002/jcc.26942
  3. Lehtola,S.; Steigemann,C.; Oliveira,M.; Marques,M.
     Recent developments in Libxc - A comprehensive library of functionals for density functional theory
     Software X, 2018 7 
     doi.org/10.1016/j.softx.2017.11.002
  4. Caldeweyher,E.; Bannwarth,C.; Grimme,S.
     Extension of the D3 dispersion coefficient model
     J. Chem. Phys., 2017 147 034112
     doi.org/10.1063/1.4993215
  5. Caldeweyher,E.; Ehlert,S.; Hansen,A.; Neugebauer,H.; Spicher,S.; Bannwarth,C.; Grimme,S.
     A generally applicable atomic-charge dependent London dispersion correction
     J. Chem. Phys., 2019 150 154122
     doi.org/10.1063/1.5090222
  6. Caldeweyher,E.; Mewes,J.; Ehlert,S.; Grimme,S.
     Extension and evaluation of the D4 London-dispersion model for periodic systems
     Phys. Chem. Chem. Phys., 2020 22(16)8499-8512
     doi.org/10.1039/D0CP00502A
  7. Wittmann,L.; Gordiy,I.; Friede,M.; Helmich-Paris,B.; Grimme,S.; Hansen,A.; Bursch,M.
     Extension of the D3 and D4 London Dispersion Corrections to the full Actinides Series
     Phys. Chem. Chem. Phys., 2024 26(32)21379-21394
     doi.org/https://doi.org/10.1039/D4CP01514B 

List of suggested additional citations. These are papers that are important in the 'surrounding' of 
of this run, or papers that preceded the highly important papers. If you like your results we are grateful for a citation.

  1. Neese,F.
     The ORCA program system
     WIRES Comput. Molec. Sci., 2012 2(1)73-78
     doi.org/10.1002/wcms.81
  2. Neese,F.
     Software update: the ORCA program system, version 4.0
     WIRES Comput. Molec. Sci., 2018 8(1)1-6
     doi.org/10.1002/wcms.1327
  3. Neese,F.; Wennmohs,F.; Becker,U.; Riplinger,C.
     The ORCA quantum chemistry program package
     J. Chem. Phys., 2020 152 Art. No. L224108
     doi.org/10.1063/5.0004608

List of optional additional citations

  1. Neese,F.
     Approximate second-order SCF convergence for spin unrestricted wavefunctions
     Chem. Phys. Lett., 2000 325(1-3)93-98
     doi.org/10.1016/s0009-2614(00)00662-x

Timings for individual modules:

Sum of individual times          ...       10.140 sec (=   0.169 min)
Startup calculation              ...        0.678 sec (=   0.011 min)   6.7 %
SCF iterations                   ...        9.397 sec (=   0.157 min)  92.7 %
Property calculations            ...        0.066 sec (=   0.001 min)   0.6 %
                             ****ORCA TERMINATED NORMALLY****
TOTAL RUN TIME: 0 days 0 hours 0 minutes 10 seconds 461 msec
