27
 energy: -465.795373642558 gnorm: 0.000790883438 xtb: 6.7.1 (edcfbbe)
C            3.26507899184534       -0.09115185735467        1.00205066164671
C            1.93502745344653       -0.09826030501914        0.31937069881037
C            1.36761344728501        1.02465210264363       -0.16165969958390
C            0.03877135065411        1.05595515562671       -0.78678404987359
O           -0.39334536749104        2.07571733875851       -1.30689961932185
C           -0.78524819530786       -0.22257401235998       -0.69542816585603
H           -1.51221532541228       -0.19598295355137       -1.51679954009478
C            0.15527009665464       -1.42129623821678       -0.87122154691120
C            1.25353820509038       -1.43101807699655        0.19022490756510
C           -1.58199312780119       -0.22923372820151        0.63843742620317
C           -2.58809803476386        0.92426380829703        0.68164090125497
C           -2.30985594359574       -1.55972469153374        0.85116039842407
H            3.66046210882949        0.92021797838880        1.11717048903058
H            3.98909779776991       -0.69062764935537        0.43624567403449
H            3.18714634160871       -0.55454673825859        1.99373790412330
H            1.88039366046518        1.98141778079541       -0.09827017932984
H           -0.40246561753075       -2.36249338727494       -0.86050742859709
H            0.62731132629050       -1.34730825671525       -1.85928138601390
H            0.84350718371824       -1.70729159529517        1.17432650817744
H            2.00437705582162       -2.19837333730608       -0.03793904820014
H           -0.86776716875881       -0.08951887755661        1.46318916744423
H           -2.10807357844506        1.89575509681687        0.54619912248333
H           -3.11892555113158        0.93025980831640        1.63890770304652
H           -3.33110623995323        0.81116096969931       -0.11645504967061
H           -2.96521884321613       -1.78074720894514        0.00006398721084
H           -2.93618309483234       -1.50667350269505        1.74739716313192
H           -1.62388868421533       -2.40187448690564        0.97876973985339
27
 energy: -465.795376239560 gnorm: 0.000517520547 xtb: 6.7.1 (edcfbbe)
C            3.26511862402211       -0.09097505601791        1.00183079526634
C            1.93489377657112       -0.09767647606964        0.31980085030123
C            1.36729739003036        1.02517982074185       -0.16086390353787
C            0.03922590320231        1.05586314343068       -0.78795230439569
O           -0.39160392356019        2.07471653866752       -1.31123098712368
C           -0.78570368263355       -0.22175442685576       -0.69582866820463
H           -1.51203913940386       -0.19494772738545       -1.51765684762897
C            0.15458119554862       -1.42099123871963       -0.87005651953703
C            1.25333052047925       -1.43042241253484        0.19070392381349
C           -1.58228750360746       -0.23004272468613        0.63842031461246
C           -2.58739376969015        0.92402704296271        0.68207865073910
C           -2.31019592808981       -1.56039507001680        0.85028922830688
H            3.66101496419778        0.92009517199614        1.11652200852374
H            3.98895470653446       -0.69090538088605        0.43637837040561
H            3.18719283806156       -0.55381621569652        1.99367186056224
H            1.88005809340142        1.98191578860343       -0.09829311243362
H           -0.40307756437237       -2.36220745362407       -0.85876706653845
H            0.62637008859605       -1.34753652144145       -1.85817124668950
H            0.84322806643810       -1.70634367567380        1.17475569377383
H            2.00401236738662       -2.19788874250227       -0.03733501163000
H           -0.86823527552758       -0.09090452168575        1.46324283585334
H           -2.10688800974084        1.89557729796446        0.54836449809005
H           -3.11747930654319        0.92876975470708        1.63983103447995
H           -3.33130263796250        0.81268543970158       -0.11525071074581
H           -2.96517406006304       -1.78131393595177       -0.00104779522207
H           -2.93672308291694       -1.50775025012989        1.74632424188878
H           -1.62396375003507       -2.40225535040699        0.97788804892727
27
 energy: -465.795376239560 gnorm: 0.000517520547 xtb: 6.7.1 (edcfbbe)
C            3.26511862402211       -0.09097505601791        1.00183079526634
C            1.93489377657112       -0.09767647606964        0.31980085030123
C            1.36729739003036        1.02517982074185       -0.16086390353787
C            0.03922590320231        1.05586314343068       -0.78795230439569
O           -0.39160392356019        2.07471653866752       -1.31123098712368
C           -0.78570368263355       -0.22175442685576       -0.69582866820463
H           -1.51203913940386       -0.19494772738545       -1.51765684762897
C            0.15458119554862       -1.42099123871963       -0.87005651953703
C            1.25333052047925       -1.43042241253484        0.19070392381349
C           -1.58228750360746       -0.23004272468613        0.63842031461246
C           -2.58739376969015        0.92402704296271        0.68207865073910
C           -2.31019592808981       -1.56039507001680        0.85028922830688
H            3.66101496419778        0.92009517199614        1.11652200852374
H            3.98895470653446       -0.69090538088605        0.43637837040561
H            3.18719283806156       -0.55381621569652        1.99367186056224
H            1.88005809340142        1.98191578860343       -0.09829311243362
H           -0.40307756437237       -2.36220745362407       -0.85876706653845
H            0.62637008859605       -1.34753652144145       -1.85817124668950
H            0.84322806643810       -1.70634367567380        1.17475569377383
H            2.00401236738662       -2.19788874250227       -0.03733501163000
H           -0.86823527552758       -0.09090452168575        1.46324283585334
H           -2.10688800974084        1.89557729796446        0.54836449809005
H           -3.11747930654319        0.92876975470708        1.63983103447995
H           -3.33130263796250        0.81268543970158       -0.11525071074581
H           -2.96517406006304       -1.78131393595177       -0.00104779522207
H           -2.93672308291694       -1.50775025012989        1.74632424188878
H           -1.62396375003507       -2.40225535040699        0.97788804892727
