
                                 *****************
                                 * O   R   C   A *
                                 *****************

                                            #,                                       
                                            ###                                      
                                            ####                                     
                                            #####                                    
                                            ######                                   
                                           ########,                                 
                                     ,,################,,,,,                         
                               ,,#################################,,                 
                          ,,##########################################,,             
                       ,#########################################, ''#####,          
                    ,#############################################,,   '####,        
                  ,##################################################,,,,####,       
                ,###########''''           ''''###############################       
              ,#####''   ,,,,##########,,,,          '''####'''          '####       
            ,##' ,,,,###########################,,,                        '##       
           ' ,,###''''                  '''############,,,                           
         ,,##''                                '''############,,,,        ,,,,,,###''
      ,#''                                            '''#######################'''  
     '                                                          ''''####''''         
             ,#######,   #######,   ,#######,      ##                                
            ,#'     '#,  ##    ##  ,#'     '#,    #''#        ,####,   ,####,        
            ##       ##  ##   ,#'  ##            #'  '#       #'       #'  '#        
            ##       ##  #######   ##           ,######,      #####,   #    #        
            '#,     ,#'  ##    ##  '#,     ,#' ,#      #,     #,   #   #,  ,#        
             '#######'   ##     ##  '#######'  #'      '#     '####' # '####'        



                #########################################################
                #                        -***-                          #
                #          Department of theory and spectroscopy        #
                #                                                       #
                #                      Frank Neese                      #
                #                                                       #
                #     Directorship, Architecture, Infrastructure        #
                #                    SHARK, DRIVERS                     #
                #        Core code/Algorithms in most modules           #
                #                                                       #
                #        Max Planck Institute fuer Kohlenforschung      #
                #                Kaiser Wilhelm Platz 1                 #
                #                 D-45470 Muelheim/Ruhr                 #
                #                      Germany                          #
                #                                                       #
                #                  All rights reserved                  #
                #                        -***-                          #
                #########################################################


                         Program Version 6.0.0  -   RELEASE  -


 With contributions from (in alphabetic order):
   Daniel Aravena         : Magnetic Suceptibility
   Michael Atanasov       : Ab Initio Ligand Field Theory (pilot matlab implementation)
   Alexander A. Auer      : GIAO ZORA, VPT2 properties, NMR spectrum
   Ute Becker             : All parallelization in ORCA, NUMFREQ, NUMCALC
   Giovanni Bistoni       : ED, misc. LED, open-shell LED, HFLD
   Martin Brehm           : Molecular dynamics
   Dmytro Bykov           : pre 5.0 version of the SCF Hessian
   Marcos Casanova-Páez   : Triplet and SCS-CIS(D). UHF-(DLPNO)-IP/EA/STEOM-CCSD. UHF-CVS-IP/STEOM-CCSD
   Vijay G. Chilkuri      : MRCI spin determinant printing, contributions to CSF-ICE
   Pauline Colinet        : FMM embedding
   Dipayan Datta          : RHF DLPNO-CCSD density
   Achintya Kumar Dutta   : EOM-CC, STEOM-CC
   Nicolas Foglia         : Exact transition moments, OPA infrastructure, MCD improvements
   Dmitry Ganyushin       : Spin-Orbit,Spin-Spin,Magnetic field MRCI
   Miquel Garcia          : C-PCM and meta-GGA Hessian, CCSD/C-PCM, Gaussian charge scheme
   Tiago L. C. Gouveia    : GS-ROHF, GS-ROCIS
   Yang Guo               : DLPNO-NEVPT2, F12-NEVPT2, CIM, IAO-localization
   Andreas Hansen         : Spin unrestricted coupled pair/coupled cluster methods
   Ingolf Harden          : AUTO-CI MPn and infrastructure 
   Benjamin Helmich-Paris : MC-RPA, TRAH-(SCF,CASSCF), AVAS, COSX integrals, SCF dyn. polar.
   Lee Huntington         : MR-EOM, pCC
   Robert Izsak           : Overlap fitted RIJCOSX, COSX-SCS-MP3, EOM
   Riya Kayal             : Wick's Theorem for AUTO-CI, AUTO-CI UHF-CCSDT
   Emily Kempfer          : AUTO-CI, RHF CISDT and CCSDT
   Christian Kollmar      : KDIIS, OOCD, Brueckner-CCSD(T), CCSD density, CASPT2, CASPT2-K, improved NEVPT2
   Axel Koslowski         : Symmetry handling
   Simone Kossmann        : Meta GGA functionals, TD-DFT gradient, OOMP2, (MP2 Hessian; deprecated post 5.0)
   Lucas Lang             : DCDCAS
   Marvin Lechner         : AUTO-CI (C++ implementation), FIC-MRCC
   Spencer Leger          : CASSCF response
   Dagmar Lenk            : GEPOL surface, SMD, ORCA-2-JSON
   Dimitrios Liakos       : Extrapolation schemes; Compound Job, initial MDCI parallelization
   Dimitrios Manganas     : Further ROCIS development; embedding schemes. LFT, Crystal Embedding
   Dimitrios Pantazis     : SARC Basis sets
   Anastasios Papadopoulos: AUTO-CI, single reference methods and gradients
   Taras Petrenko         : pre 6.0 DFT Hessian and TD-DFT gradient, (ASA, deprecated), ECA, 1-Electron XAS/XES, NRVS
   Peter Pinski           : DLPNO-MP2, DLPNO-MP2 Gradient
   Christoph Reimann      : Effective Core Potentials
   Marius Retegan         : Local ZFS, SOC
   Christoph Riplinger    : Optimizer, TS searches, QM/MM, DLPNO-CCSD(T), (RO)-DLPNO pert. Triples
   Michael Roemelt        : Original ROCIS implementation
   Masaaki Saitow         : Open-shell DLPNO-CCSD energy and density
   Barbara Sandhoefer     : DKH picture change effects
   Kantharuban Sivalingam : CASSCF convergence/infrastructure, NEVPT2 and variants, FIC-MRCI
   Bernardo de Souza      : ESD, SOC TD-DFT
   Georgi Stoychev        : AutoAux, RI-MP2 NMR, DLPNO-MP2 response, X2C
   Van Anh Tran           : RI-MP2 g-tensors
   Willem Van den Heuvel  : Paramagnetic NMR
   Zikuan Wang            : NOTCH, Electric field optimization 
   Frank Wennmohs         : Technical directorship and infrastructure
   Hang Xu                : AUTO-CI-Response properties 


 We gratefully acknowledge several colleagues who have allowed us to
 interface, adapt or use parts of their codes:
   Stefan Grimme, W. Hujo, H. Kruse, P. Pracht,  : VdW corrections, initial TS optimization,
                  C. Bannwarth, S. Ehlert,         DFT functionals, gCP, sTDA/sTD-DF
                  L. Wittmann, M. Mueller
   Ed Valeev, F. Pavosevic, A. Kumar             : LibInt (2-el integral package), F12 methods
   Garnet Chan, S. Sharma, J. Yang, R. Olivares  : DMRG
   Ulf Ekstrom                                   : XCFun DFT Library
   Mihaly Kallay                                 : mrcc  (arbitrary order and MRCC methods)
   Frank Weinhold                                : gennbo (NPA and NBO analysis)
   Simon Mueller                                 : openCOSMO-RS
   Christopher J. Cramer and Donald G. Truhlar   : smd solvation model
   Lars Goerigk                                  : TD-DFT with DH, B97 family of functionals
   V. Asgeirsson, H. Jonsson                     : NEB implementation
   FAccTs GmbH                                   : IRC, NEB, NEB-TS, DLPNO-Multilevel, CI-OPT
                                                   MM, QMMM, 2- and 3-layer-ONIOM, Crystal-QMMM,
                                                   LR-CPCM, SF, NACMEs, symmetry and pop. for TD-DFT,
                                                   nearIR, NL-DFT gradient (VV10), updates on ESD,
                                                   ML-optimized integration grids, MBIS, APM,
                                                   GOAT, DOCKER, SOLVATOR, interface openCOSMO-RS
   S Lehtola, MJT Oliveira, MAL Marques          : LibXC Library
   Liviu Ungur et al                             : ANISO software


 Your calculation uses the libint2 library for the computation of 2-el integrals
 For citations please refer to: http://libint.valeyev.net

 Your ORCA version has been built with support for libXC version: 6.2.2
 For citations please refer to: https://libxc.gitlab.io

 This ORCA versions uses:
   CBLAS   interface :  Fast vector & matrix operations
   LAPACKE interface :  Fast linear algebra routines
   SCALAPACK package :  Parallel linear algebra routines
   Shared memory     :  Shared parallel matrices
   BLAS/LAPACK       :  OpenBLAS 0.3.27  USE64BITINT DYNAMIC_ARCH NO_AFFINITY SkylakeX SINGLE_THREADED
        Core in use  :  SkylakeX
   Copyright (c) 2011-2014, The OpenBLAS Project




***************************************
The coordinates will be read from file: censo.xyz
***************************************


Your calculation utilizes the geometrical counterpoise correction gCP
Please cite in your paper:
H.Kruse, S. Grimme J.Chem.Phys., 136, (2012), 154101 
   

Your calculation utilizes the atom-pairwise dispersion correction
based on EEQ partial charges (D4)


================================================================================

----- Orbital basis set information -----
Your calculation utilizes the basis: def2-TZVP
   F. Weigend and R. Ahlrichs, Phys. Chem. Chem. Phys. 7, 3297 (2005).

----- AuxJ basis set information -----
Your calculation utilizes the basis: def2-mTZVPP/J
   Stefan Grimme, Andreas Hansen, Sebastian Ehlert, and Jan-Michael Mewes 
   J. Chem. Phys. 154, 000000 (2021). DOI: 10.1063/5.0040021

================================================================================
                                        WARNINGS
                       Please study these warnings very carefully!
================================================================================

Using LibXC functional ID 497 : Re-regularized SCAN exchange by Furness et al
[ 1]  J. W. Furness, A. D. Kaplan, J. Ning, J. P. Perdew, and J. Sun.,  J. Phys. Chem. Lett. 11, 8208-8215 (2020)
[ 2]  J. W. Furness, A. D. Kaplan, J. Ning, J. P. Perdew, and J. Sun.,  J. Phys. Chem. Lett. 11, 9248-9248 (2020)
Using LibXC functional ID 498 : Re-regularized SCAN correlation by Furness et al
[ 1]  J. W. Furness, A. D. Kaplan, J. Ning, J. P. Perdew, and J. Sun.,  J. Phys. Chem. Lett. 11, 8208-8215 (2020)
[ 2]  J. W. Furness, A. D. Kaplan, J. Ning, J. P. Perdew, and J. Sun.,  J. Phys. Chem. Lett. 11, 9248-9248 (2020)
Using LibXC functional ID 497 : Re-regularized SCAN exchange by Furness et al
[ 1]  J. W. Furness, A. D. Kaplan, J. Ning, J. P. Perdew, and J. Sun.,  J. Phys. Chem. Lett. 11, 8208-8215 (2020)
[ 2]  J. W. Furness, A. D. Kaplan, J. Ning, J. P. Perdew, and J. Sun.,  J. Phys. Chem. Lett. 11, 9248-9248 (2020)
Using LibXC functional ID 498 : Re-regularized SCAN correlation by Furness et al
[ 1]  J. W. Furness, A. D. Kaplan, J. Ning, J. P. Perdew, and J. Sun.,  J. Phys. Chem. Lett. 11, 8208-8215 (2020)
[ 2]  J. W. Furness, A. D. Kaplan, J. Ning, J. P. Perdew, and J. Sun.,  J. Phys. Chem. Lett. 11, 9248-9248 (2020)

================================================================================
                                       INPUT FILE
================================================================================
NAME = censo.inp
|  1> ! r2SCAN-3c DEF2-TZVP FREQ
|  2> * xyzfile 0 1 censo.xyz
|  3> 
|  4>                          ****END OF INPUT****
================================================================================

                       ****************************
                       * Single Point Calculation *
                       ****************************

---------------------------------
CARTESIAN COORDINATES (ANGSTROEM)
---------------------------------
  C     -2.175289    0.007767    0.000006
  C     -0.879219    0.815332    0.000026
  C      0.431775    0.000556   -0.000000
  C      1.604859    0.988634    0.000022
  C      0.522244   -0.880568   -1.251929
  C      0.522255   -0.880656    1.251860
  H     -2.257653   -0.630853    0.885533
  H     -3.041057    0.678480   -0.000337
  H     -2.257321   -0.631328   -0.885210
  H     -0.868429    1.474092    0.879391
  H     -0.868421    1.474134   -0.879306
  H      1.575573    1.633465   -0.886468
  H      2.563807    0.457625   -0.000037
  H      1.575624    1.633367    0.886584
  H      0.409564   -0.280886   -2.163225
  H      1.495122   -1.383676   -1.297096
  H     -0.251497   -1.655229   -1.257518
  H      1.494978   -1.384086    1.296784
  H     -0.251743   -1.655058    1.257579
  H      0.409975   -0.280981    2.163209

----------------------------
CARTESIAN COORDINATES (A.U.)
----------------------------
  NO LB      ZA    FRAG     MASS         X           Y           Z
   0 C     6.0000    0    12.011   -4.110701    0.014678    0.000012
   1 C     6.0000    0    12.011   -1.661483    1.540754    0.000049
   2 C     6.0000    0    12.011    0.815936    0.001050   -0.000001
   3 C     6.0000    0    12.011    3.032744    1.868247    0.000041
   4 C     6.0000    0    12.011    0.986897   -1.664033   -2.365802
   5 C     6.0000    0    12.011    0.986919   -1.664198    2.365673
   6 H     1.0000    0     1.008   -4.266346   -1.192140    1.673415
   7 H     1.0000    0     1.008   -5.746765    1.282142   -0.000637
   8 H     1.0000    0     1.008   -4.265718   -1.193037   -1.672804
   9 H     1.0000    0     1.008   -1.641093    2.785631    1.661809
  10 H     1.0000    0     1.008   -1.641077    2.785710   -1.661648
  11 H     1.0000    0     1.008    2.977402    3.086801   -1.675182
  12 H     1.0000    0     1.008    4.844894    0.864786   -0.000070
  13 H     1.0000    0     1.008    2.977499    3.086616    1.675401
  14 H     1.0000    0     1.008    0.773964   -0.530799   -4.087903
  15 H     1.0000    0     1.008    2.825370   -2.614768   -2.451157
  16 H     1.0000    0     1.008   -0.475261   -3.127930   -2.376364
  17 H     1.0000    0     1.008    2.825098   -2.615543    2.450567
  18 H     1.0000    0     1.008   -0.475725   -3.127607    2.376480
  19 H     1.0000    0     1.008    0.774741   -0.530977    4.087874

--------------------------------
INTERNAL COORDINATES (ANGSTROEM)
--------------------------------
 C      0   0   0     0.000000000000     0.00000000     0.00000000
 C      1   0   0     1.527075148417     0.00000000     0.00000000
 C      2   1   0     1.543555939607   116.21273317     0.00000000
 C      3   2   1     1.533761922290   108.03212588   179.99986902
 C      3   2   1     1.533586795509   110.69532555    60.76592409
 C      3   2   1     1.533582513377   110.69589164   299.23475590
 H      1   2   3     1.094887482842   111.85690340    60.62669342
 H      1   2   3     1.095175749178   110.30844217   180.02033828
 H      1   2   3     1.094887808679   111.85645409   299.41355971
 H      2   1   3     1.098801279642   108.98937013   237.81538653
 H      2   1   3     1.098800229036   108.98975297   122.18382215
 H      4   3   2     1.096598838194   111.00081449   300.01042058
 H      4   3   2     1.096153123192   110.91781125   180.00231113
 H      4   3   2     1.096598325106   111.00091017    59.99392093
 H      5   3   2     1.096711665833   110.98356376    54.88370128
 H      5   3   2     1.096197430787   110.46812949   174.56343800
 H      5   3   2     1.094899832397   111.65296792   294.25222930
 H      6   3   2     1.096197498905   110.46878724   185.41350095
 H      6   3   2     1.094899437004   111.65192659    65.72464238
 H      6   3   2     1.096710408938   110.98341104   305.09380741

---------------------------
INTERNAL COORDINATES (A.U.)
---------------------------
 C      0   0   0     0.000000000000     0.00000000     0.00000000
 C      1   0   0     2.885753816425     0.00000000     0.00000000
 C      2   1   0     2.916897998245   116.21273317     0.00000000
 C      3   2   1     2.898389987765   108.03212588   179.99986902
 C      3   2   1     2.898059046110   110.69532555    60.76592409
 C      3   2   1     2.898050954053   110.69589164   299.23475590
 H      1   2   3     2.069037490030   111.85690340    60.62669342
 H      1   2   3     2.069582234458   110.30844217   180.02033828
 H      1   2   3     2.069038105773   111.85645409   299.41355971
 H      2   1   3     2.076433494126   108.98937013   237.81538653
 H      2   1   3     2.076431508769   108.98975297   122.18382215
 H      4   3   2     2.072271482963   111.00081449   300.01042058
 H      4   3   2     2.071429203675   110.91781125   180.00231113
 H      4   3   2     2.072270513367   111.00091017    59.99392093
 H      5   3   2     2.072484696301   110.98356376    54.88370128
 H      5   3   2     2.071512932895   110.46812949   174.56343800
 H      5   3   2     2.069060827307   111.65296792   294.25222930
 H      6   3   2     2.071513061620   110.46878724   185.41350095
 H      6   3   2     2.069060080122   111.65192659    65.72464238
 H      6   3   2     2.072482321114   110.98341104   305.09380741

---------------------
BASIS SET INFORMATION
---------------------
There are 2 groups of distinct atoms

 Group   1 Type C   : 11s6p2d1f contracted to 5s3p2d1f pattern {62111/411/11/1}
 Group   2 Type H   : 5s1p contracted to 3s1p pattern {311/1}

Atom   0C    basis set group =>   1
Atom   1C    basis set group =>   1
Atom   2C    basis set group =>   1
Atom   3C    basis set group =>   1
Atom   4C    basis set group =>   1
Atom   5C    basis set group =>   1
Atom   6H    basis set group =>   2
Atom   7H    basis set group =>   2
Atom   8H    basis set group =>   2
Atom   9H    basis set group =>   2
Atom  10H    basis set group =>   2
Atom  11H    basis set group =>   2
Atom  12H    basis set group =>   2
Atom  13H    basis set group =>   2
Atom  14H    basis set group =>   2
Atom  15H    basis set group =>   2
Atom  16H    basis set group =>   2
Atom  17H    basis set group =>   2
Atom  18H    basis set group =>   2
Atom  19H    basis set group =>   2
---------------------------------
AUXILIARY/J BASIS SET INFORMATION
---------------------------------
There are 2 groups of distinct atoms

 Group   1 Type C   : 8s3p3d contracted to 6s3p3d pattern {311111/111/111}
 Group   2 Type H   : 5s2p1d contracted to 3s1p1d pattern {311/2/1}

Atom   0C    basis set group =>   1
Atom   1C    basis set group =>   1
Atom   2C    basis set group =>   1
Atom   3C    basis set group =>   1
Atom   4C    basis set group =>   1
Atom   5C    basis set group =>   1
Atom   6H    basis set group =>   2
Atom   7H    basis set group =>   2
Atom   8H    basis set group =>   2
Atom   9H    basis set group =>   2
Atom  10H    basis set group =>   2
Atom  11H    basis set group =>   2
Atom  12H    basis set group =>   2
Atom  13H    basis set group =>   2
Atom  14H    basis set group =>   2
Atom  15H    basis set group =>   2
Atom  16H    basis set group =>   2
Atom  17H    basis set group =>   2
Atom  18H    basis set group =>   2
Atom  19H    basis set group =>   2
------------------------------------------------------------------------------
                             ORCA STARTUP CALCULATIONS
                           -- RI-GTO INTEGRALS CHOSEN --
------------------------------------------------------------------------------
------------------------------------------------------------------------------
                   ___                                                        
                  /   \      - P O W E R E D   B Y -                         
                 /     \                                                     
                 |  |  |   _    _      __       _____    __    __             
                 |  |  |  | |  | |    /  \     |  _  \  |  |  /  |          
                  \  \/   | |  | |   /    \    | | | |  |  | /  /          
                 / \  \   | |__| |  /  /\  \   | |_| |  |  |/  /          
                |  |  |   |  __  | /  /__\  \  |    /   |      \           
                |  |  |   | |  | | |   __   |  |    \   |  |\   \          
                \     /   | |  | | |  |  |  |  | |\  \  |  | \   \       
                 \___/    |_|  |_| |__|  |__|  |_| \__\ |__|  \__/        
                                                                              
                      - O R C A' S   B I G   F R I E N D -                    
                                      &                                       
                       - I N T E G R A L  F E E D E R -                       
                                                                              
 v1 FN, 2020, v2 2021, v3 2022-2024                                           
------------------------------------------------------------------------------


----------------------
SHARK INTEGRAL PACKAGE
----------------------

Number of atoms                             ...     20
Number of basis functions                   ...    270
Number of shells                            ...    122
Maximum angular momentum                    ...      3
Integral batch strategy                     ... SHARK/LIBINT Hybrid
RI-J (if used) integral strategy            ... SPLIT-RIJ (Revised 2003 algorithm where possible)
Printlevel                                  ...      1
Contraction scheme used                     ... SEGMENTED contraction
Prescreening option                         ... SCHWARTZ
   Thresh                                   ... 1.000e-10
   Tcut                                     ... 1.000e-11
   Tpresel                                  ... 1.000e-11 
Coulomb Range Separation                    ... NOT USED
Exchange Range Separation                   ... NOT USED
Multipole approximations                    ... NOT USED
Finite Nucleus Model                        ... NOT USED
CABS basis                                  ... NOT available
Auxiliary Coulomb fitting basis             ... AVAILABLE
   # of basis functions in Aux-J            ...    334
   # of shells in Aux-J                     ...    142
   Maximum angular momentum in Aux-J        ...      2
Auxiliary J/K fitting basis                 ... NOT available
Auxiliary Correlation fitting basis         ... NOT available
Auxiliary 'external' fitting basis          ... NOT available

Checking pre-screening integrals            ... done (  0.0 sec) Dimension = 122
Check shell pair data                       ... done (  0.0 sec)
Shell pair information
Shell pair cut-off parameter TPreSel        ...   1.0e-11
Total number of shell pairs                 ...      7503
Shell pairs after pre-screening             ...      7174
Total number of primitive shell pairs       ...     21084
Primitive shell pairs kept                  ...     15727
          la=0 lb=0:   2445 shell pairs
          la=1 lb=0:   2199 shell pairs
          la=1 lb=1:    517 shell pairs
          la=2 lb=0:    846 shell pairs
          la=2 lb=1:    380 shell pairs
          la=2 lb=2:     78 shell pairs
          la=3 lb=0:    424 shell pairs
          la=3 lb=1:    192 shell pairs
          la=3 lb=2:     72 shell pairs
          la=3 lb=3:     21 shell pairs

Calculating one electron integrals          ... done (  0.0 sec)
Calculating RI/J V-Matrix + Cholesky decomp.... done (  0.0 sec)
Calculating Nuclear repulsion               ... done (  0.0 sec) ENN=    266.182688695088 Eh

Diagonalization of the overlap matrix:
Smallest eigenvalue                        ... 1.742e-04
Time for diagonalization                   ...    0.008 sec
Threshold for overlap eigenvalues          ... 1.000e-07
Number of eigenvalues below threshold      ... 0
Time for construction of square roots      ...    0.020 sec
Total time needed                          ...    0.041 sec

-------------------
DFT GRID GENERATION
-------------------

General Integration Accuracy     IntAcc      ... 4.388
Radial Grid Type                 RadialGrid  ... OptM3 with GC (2021)
Angular Grid (max. ang.)         AngularGrid ... 4 (Lebedev-302)
Angular grid pruning method      GridPruning ... 4 (adaptive)
Weight generation scheme         WeightScheme... mBecke (2022)
Basis function cutoff            BFCut       ... 1.0000e-10
Integration weight cutoff        WCut        ... 1.0000e-14
Partially contracted basis set               ... off
Rotationally invariant grid construction     ... off
Angular grids for H and He will be reduced by one unit

Total number of grid points                  ...    80633
Total number of batches                      ...     1270
Average number of points per batch           ...       63
Average number of grid points per atom       ...     4032
Initializing property integral containers    ... done (  0.0 sec)

SHARK setup successfully completed in   1.2 seconds

Maximum memory used throughout the entire STARTUP-calculation: 41.1 MB
-------------------------------------------------------------------------------
                                 ORCA GUESS
                   Start orbitals & Density for SCF / CASSCF
-------------------------------------------------------------------------------

------------
SCF SETTINGS
------------
Hamiltonian:
 Density Functional     Method          .... DFT(GTOs)
  Functional kind                       .... Exchange
  Functional name                       .... Re-regularized SCAN exchange by Furness et al
  Functional family                     .... MGGA
  Functional refs                              
    [ 0] J. W. Furness, A. D. Kaplan, J. Ning, J. P. Perdew, and J. Sun.,  J. Phys. Chem. Lett. 11, 8208-8215 (2020), doi: 10.1021/acs.jpclett.0c02405
    [ 1] J. W. Furness, A. D. Kaplan, J. Ning, J. P. Perdew, and J. Sun.,  J. Phys. Chem. Lett. 11, 9248-9248 (2020), doi: 10.1021/acs.jpclett.0c03077
  Functional external parameters        .... 6
    Parameter  0 _c1        =  6.670000e-01 : c1 parameter        
    Parameter  1 _c2        =  8.000000e-01 : c2 parameter        
    Parameter  2 _d         =  1.240000e+00 : d parameter         
    Parameter  3 _k1        =  6.500000e-02 : k1 parameter        
    Parameter  4 _eta       =  1.000000e-03 : eta parameter       
    Parameter  5 _dp2       =  3.610000e-01 : dp2 parameter       
  Functional kind                       .... Correlation
  Functional name                       .... Re-regularized SCAN correlation by Furness et al
  Functional family                     .... MGGA
  Functional refs                              
    [ 0] J. W. Furness, A. D. Kaplan, J. Ning, J. P. Perdew, and J. Sun.,  J. Phys. Chem. Lett. 11, 8208-8215 (2020), doi: 10.1021/acs.jpclett.0c02405
    [ 1] J. W. Furness, A. D. Kaplan, J. Ning, J. P. Perdew, and J. Sun.,  J. Phys. Chem. Lett. 11, 9248-9248 (2020), doi: 10.1021/acs.jpclett.0c03077
  Functional external parameters        .... 1
    Parameter  0 _eta       =  1.000000e-03 : Regularization parameter
 Gradients option       PostSCFGGA      .... off
 RI-approximation to the Coulomb term is turned on
   Number of AuxJ basis functions       .... 334


General Settings:
 Integral files         IntName         .... censo
 Hartree-Fock type      HFTyp           .... RHF
 Total Charge           Charge          ....    0
 Multiplicity           Mult            ....    1
 Number of Electrons    NEL             ....   50
 Basis Dimension        Dim             ....  270
 Nuclear Repulsion      ENuc            ....    266.1826886951 Eh

Convergence Acceleration:
 AO-DIIS                CNVDIIS         .... on
   Start iteration      DIISMaxIt       ....    12
   Startup error        DIISStart       ....  0.200000
   # of expansion vecs  DIISMaxEq       ....     5
   Bias factor          DIISBfac        ....   1.050
   Max. coefficient     DIISMaxC        ....  10.000
 MO-DIIS                CNVKDIIS        .... off
 Trust-Rad. Augm. Hess. CNVTRAH         .... auto
   Auto Start mean grad. ratio tolernc. ....  1.125000
   Auto Start start iteration           ....    50
   Auto Start num. interpolation iter.  ....    10
   Max. Number of Micro iterations      ....    24
   Max. Number of Macro iterations      .... Maxiter - #DIIS iter
   Number of Davidson start vectors     ....     2
   Converg. threshold    (grad. norm)   ....   5.000e-05
   Grad. Scal. Fac. for Micro threshold ....   0.100
   Minimum threshold for Micro iter.    ....   1.000e-02
   NR start threshold (gradient norm)   ....   1.000e-04
   Initial trust radius                 ....   0.400
   Minimum AH scaling param. (alpha)    ....   1.000
   Maximum AH scaling param. (alpha)    .... 1000.000
   Quad. conv. algorithm                .... NR
   White noise on init. David. guess    .... on
   Maximum white noise                  ....   0.010
   Pseudo random numbers                .... off
   Inactive MOs                         .... canonical
   Orbital update algorithm             .... Taylor
   Preconditioner                       .... Diag
   Full preconditioner red. dimension   ....   250
   COSX micro iterations for RIJONX calc.... off
 SOSCF                  CNVSOSCF        .... on
   Start iteration      SOSCFMaxIt      ....   150
   Startup grad/error   SOSCFStart      ....  0.003300
   Hessian update       SOSCFHessUp     .... L-BFGS
 Level Shifting         CNVShift        .... on
   Level shift para.    LevelShift      ....    0.2500
   Turn off err/grad.   ShiftErr        ....    0.0010
 Zerner damping         CNVZerner       .... off
 Static damping         CNVDamp         .... on
   Fraction old density DampFac         ....    0.7000
   Max. Damping (<1)    DampMax         ....    0.9800
   Min. Damping (>=0)   DampMin         ....    0.0000
   Turn off err/grad.   DampErr         ....    0.1000

SCF Procedure:
 Maximum # iterations   MaxIter         ....   125
 SCF integral mode      SCFMode         .... Direct
   Integral package                     .... SHARK and LIBINT hybrid scheme
 Reset frequency        DirectResetFreq ....    20
 Integral Threshold     Thresh          ....  1.000e-10 Eh
 Primitive CutOff       TCut            ....  1.000e-11 Eh

Convergence Tolerance:
 Convergence Check Mode ConvCheckMode   .... Total+1el-Energy
 Convergence forced     ConvForced      .... 0
 Energy Change          TolE            ....  1.000e-06 Eh
 1-El. energy change                    ....  1.000e-03 Eh
 Orbital Gradient       TolG            ....  5.000e-05
 Orbital Rotation angle TolX            ....  5.000e-05
 DIIS Error             TolErr          ....  1.000e-06

------------------------------
INITIAL GUESS: MODEL POTENTIAL
------------------------------
Loading Hartree-Fock densities                     ... done
Calculating cut-offs                               ... done
Initializing the effective Hamiltonian             ... done
Setting up the integral package (SHARK)            ... done
Starting the Coulomb interaction                   ... done (   0.4 sec)
Making the grid                                    ... done (   0.2 sec)
Mapping shells                                     ... done
Starting the XC term evaluation                    ... done (   0.4 sec)
  promolecular density results
     # of electrons  =     50.000744658
     EX              =    -34.813845331
     EC              =     -1.616015830
     EX+EC           =    -36.429861161
Transforming the Hamiltonian                       ... done (   0.0 sec)
Diagonalizing the Hamiltonian                      ... done (   0.0 sec)
Back transforming the eigenvectors                 ... done (   0.0 sec)
Now organizing SCF variables                       ... done
                      ------------------
                      INITIAL GUESS DONE (   1.0 sec)
                      ------------------
             **** ENERGY FILE WAS UPDATED (censo.en.tmp) ****
Finished Guess after   1.3 sec
Maximum memory used throughout the entire GUESS-calculation: 25.1 MB

-------------------------------------------------------------------------------------------
                                      ORCA LEAN-SCF
                              memory conserving SCF solver
-------------------------------------------------------------------------------------------

----------------------------------------D-I-I-S--------------------------------------------
Iteration    Energy (Eh)           Delta-E    RMSDP     MaxDP     DIISErr   Damp  Time(sec)
-------------------------------------------------------------------------------------------
               ***  Starting incremental Fock matrix formation  ***
    1    -236.7551503188623769     0.00e+00  1.42e-03  3.43e-02  1.85e-01  0.700   3.9
    2    -236.8807908769740607    -1.26e-01  1.04e-03  2.25e-02  9.34e-02  0.700   3.7
                               ***Turning on AO-DIIS***
    3    -236.9270834470336240    -4.63e-02  4.57e-04  1.66e-02  3.19e-02  0.700   3.5
    4    -236.9535638099387711    -2.65e-02  7.53e-04  4.28e-02  1.38e-02  0.000   3.3
    5    -237.0128604029109169    -5.93e-02  2.02e-04  3.64e-03  9.36e-03  0.000   3.4
                              *** Initializing SOSCF ***
---------------------------------------S-O-S-C-F--------------------------------------
Iteration    Energy (Eh)           Delta-E    RMSDP     MaxDP     MaxGrad    Time(sec)
--------------------------------------------------------------------------------------
    6    -237.0135662117929201    -7.06e-04  9.30e-05  2.05e-03  2.15e-03     3.2
               *** Restarting incremental Fock matrix formation ***
    7    -237.0136210982465741    -5.49e-05  6.58e-05  1.51e-03  2.96e-04     3.8
    8    -237.0136207583268515     3.40e-07  1.45e-05  4.06e-04  3.57e-04     3.0
                 **** Energy Check signals convergence ****

               *****************************************************
               *                     SUCCESS                       *
               *           SCF CONVERGED AFTER   8 CYCLES          *
               *****************************************************

             **** ENERGY FILE WAS UPDATED (censo.en.tmp) ****

----------------
TOTAL SCF ENERGY
----------------

Total Energy       :       -237.01362075832685 Eh           -6449.46851 eV

Components:
Nuclear Repulsion  :        266.18268869508756 Eh            7243.19920 eV
Electronic Energy  :       -503.19630945341441 Eh          -13692.66770 eV
One Electron Energy:       -844.67732176054244 Eh          -22984.83845 eV
Two Electron Energy:        341.48101230712803 Eh            9292.17075 eV

Virial components:
Potential Energy   :       -472.70081961786309 Eh          -12862.84324 eV
Kinetic Energy     :        235.68719885953624 Eh            6413.37473 eV
Virial Ratio       :          2.00562789114220

DFT components:
N(Alpha)           :       25.000077620748 electrons
N(Beta)            :       25.000077620748 electrons
N(Total)           :       50.000155241495 electrons
E(X)               :      -36.175412865023 Eh       
E(C)               :       -1.528405519426 Eh       
E(XC)              :      -37.703818384449 Eh       

---------------
SCF CONVERGENCE
---------------

  Last Energy change         ...   -3.3992e-07  Tolerance :   1.0000e-06
  Last MAX-Density change    ...    4.0583e-04  Tolerance :   1.0000e-05
  Last RMS-Density change    ...    1.4520e-05  Tolerance :   1.0000e-06
  Last DIIS Error            ...    2.1476e-03  Tolerance :   1.0000e-06
  Last Orbital Gradient      ...    3.5652e-04  Tolerance :   5.0000e-05
  Last Orbital Rotation      ...    2.2045e-04  Tolerance :   5.0000e-05


----------------
ORBITAL ENERGIES
----------------

  NO   OCC          E(Eh)            E(eV) 
   0   2.0000     -10.042474      -273.2696 
   1   2.0000     -10.023130      -272.7432 
   2   2.0000     -10.015884      -272.5461 
   3   2.0000     -10.014319      -272.5035 
   4   2.0000     -10.014316      -272.5034 
   5   2.0000     -10.013858      -272.4909 
   6   2.0000      -0.789616       -21.4866 
   7   2.0000      -0.701527       -19.0895 
   8   2.0000      -0.648056       -17.6345 
   9   2.0000      -0.647983       -17.6325 
  10   2.0000      -0.587894       -15.9974 
  11   2.0000      -0.493366       -13.4252 
  12   2.0000      -0.426204       -11.5976 
  13   2.0000      -0.424753       -11.5581 
  14   2.0000      -0.404852       -11.0166 
  15   2.0000      -0.390165       -10.6169 
  16   2.0000      -0.366630        -9.9765 
  17   2.0000      -0.348625        -9.4866 
  18   2.0000      -0.343721        -9.3531 
  19   2.0000      -0.329450        -8.9648 
  20   2.0000      -0.325742        -8.8639 
  21   2.0000      -0.310706        -8.4547 
  22   2.0000      -0.285888        -7.7794 
  23   2.0000      -0.285372        -7.7654 
  24   2.0000      -0.278686        -7.5834 
  25   0.0000       0.033562         0.9133 
  26   0.0000       0.072552         1.9742 
  27   0.0000       0.085004         2.3131 
  28   0.0000       0.086794         2.3618 
  29   0.0000       0.093506         2.5444 
  30   0.0000       0.095078         2.5872 
  31   0.0000       0.105191         2.8624 
  32   0.0000       0.121053         3.2940 
  33   0.0000       0.133602         3.6355 
  34   0.0000       0.136775         3.7218 
  35   0.0000       0.146670         3.9911 
*Only the first 10 virtual orbitals were printed.

                    ********************************
                    * MULLIKEN POPULATION ANALYSIS *
                    ********************************

-----------------------
MULLIKEN ATOMIC CHARGES
-----------------------
   0 C :   -0.360697
   1 C :   -0.139175
   2 C :    0.146870
   3 C :   -0.334637
   4 C :   -0.370571
   5 C :   -0.370563
   6 H :    0.107044
   7 H :    0.109404
   8 H :    0.107041
   9 H :    0.080410
  10 H :    0.080417
  11 H :    0.103271
  12 H :    0.102464
  13 H :    0.103270
  14 H :    0.105181
  15 H :    0.104224
  16 H :    0.108320
  17 H :    0.104224
  18 H :    0.108326
  19 H :    0.105175
Sum of atomic charges:   -0.0000000

--------------------------------
MULLIKEN REDUCED ORBITAL CHARGES
--------------------------------
  0 C s       :     3.282230  s :     3.282230
      pz      :     1.041223  p :     3.026127
      px      :     0.970596
      py      :     1.014308
      dz2     :     0.002488  d :     0.048542
      dxz     :     0.008656
      dyz     :     0.013654
      dx2y2   :     0.013532
      dxy     :     0.010212
      f0      :     0.000351  f :     0.003798
      f+1     :    -0.000023
      f-1     :     0.001191
      f+2     :    -0.000037
      f-2     :     0.000463
      f+3     :     0.000930
      f-3     :     0.000923

  1 C s       :     3.210263  s :     3.210263
      pz      :     1.000505  p :     2.835878
      px      :     0.890133
      py      :     0.945240
      dz2     :     0.005051  d :     0.086806
      dxz     :     0.015137
      dyz     :     0.023747
      dx2y2   :     0.026209
      dxy     :     0.016662
      f0      :     0.000681  f :     0.006227
      f+1     :     0.000131
      f-1     :     0.001263
      f+2     :     0.000111
      f-2     :     0.001000
      f+3     :     0.001695
      f-3     :     0.001346

  2 C s       :     3.038138  s :     3.038138
      pz      :     0.884845  p :     2.627762
      px      :     0.882669
      py      :     0.860248
      dz2     :     0.036129  d :     0.175588
      dxz     :     0.029716
      dyz     :     0.039905
      dx2y2   :     0.031983
      dxy     :     0.037856
      f0      :     0.002205  f :     0.011642
      f+1     :     0.000872
      f-1     :     0.002096
      f+2     :     0.000710
      f-2     :     0.002270
      f+3     :     0.001962
      f-3     :     0.001527

  3 C s       :     3.283853  s :     3.283853
      pz      :     1.044345  p :     3.001123
      px      :     0.964178
      py      :     0.992599
      dz2     :     0.003868  d :     0.045834
      dxz     :     0.005455
      dyz     :     0.015379
      dx2y2   :     0.015366
      dxy     :     0.005766
      f0      :     0.000348  f :     0.003827
      f+1     :    -0.000049
      f-1     :     0.001260
      f+2     :    -0.000105
      f-2     :     0.000546
      f+3     :     0.000723
      f-3     :     0.001104

  4 C s       :     3.296033  s :     3.296033
      pz      :     0.964409  p :     3.024139
      px      :     1.054132
      py      :     1.005598
      dz2     :     0.015139  d :     0.046614
      dxz     :     0.007244
      dyz     :     0.007944
      dx2y2   :     0.003430
      dxy     :     0.012857
      f0      :     0.000577  f :     0.003785
      f+1     :     0.000249
      f-1     :     0.001531
      f+2     :     0.000193
      f-2     :     0.000487
      f+3     :     0.000193
      f-3     :     0.000554

  5 C s       :     3.296025  s :     3.296025
      pz      :     0.964416  p :     3.024140
      px      :     1.054130
      py      :     1.005594
      dz2     :     0.015141  d :     0.046613
      dxz     :     0.007241
      dyz     :     0.007942
      dx2y2   :     0.003427
      dxy     :     0.012862
      f0      :     0.000577  f :     0.003785
      f+1     :     0.000248
      f-1     :     0.001531
      f+2     :     0.000193
      f-2     :     0.000487
      f+3     :     0.000193
      f-3     :     0.000555

  6 H s       :     0.869622  s :     0.869622
      pz      :     0.009962  p :     0.023334
      px      :     0.005436
      py      :     0.007936

  7 H s       :     0.867466  s :     0.867466
      pz      :     0.005266  p :     0.023131
      px      :     0.010217
      py      :     0.007648

  8 H s       :     0.869624  s :     0.869624
      pz      :     0.009959  p :     0.023334
      px      :     0.005436
      py      :     0.007939

  9 H s       :     0.896498  s :     0.896498
      pz      :     0.009625  p :     0.023092
      px      :     0.005176
      py      :     0.008291

 10 H s       :     0.896491  s :     0.896491
      pz      :     0.009624  p :     0.023092
      px      :     0.005176
      py      :     0.008292

 11 H s       :     0.873781  s :     0.873781
      pz      :     0.009752  p :     0.022948
      px      :     0.005215
      py      :     0.007981

 12 H s       :     0.874528  s :     0.874528
      pz      :     0.005253  p :     0.023008
      px      :     0.011185
      py      :     0.006570

 13 H s       :     0.873782  s :     0.873782
      pz      :     0.009753  p :     0.022948
      px      :     0.005215
      py      :     0.007980

 14 H s       :     0.871933  s :     0.871933
      pz      :     0.010612  p :     0.022886
      px      :     0.005263
      py      :     0.007011

 15 H s       :     0.872721  s :     0.872721
      pz      :     0.005304  p :     0.023055
      px      :     0.010757
      py      :     0.006995

 16 H s       :     0.868282  s :     0.868282
      pz      :     0.005260  p :     0.023398
      px      :     0.009028
      py      :     0.009110

 17 H s       :     0.872721  s :     0.872721
      pz      :     0.005304  p :     0.023055
      px      :     0.010755
      py      :     0.006997

 18 H s       :     0.868277  s :     0.868277
      pz      :     0.005260  p :     0.023398
      px      :     0.009030
      py      :     0.009108

 19 H s       :     0.871938  s :     0.871938
      pz      :     0.010612  p :     0.022887
      px      :     0.005263
      py      :     0.007011



                     *******************************
                     * LOEWDIN POPULATION ANALYSIS *
                     *******************************

----------------------
LOEWDIN ATOMIC CHARGES
----------------------
   0 C :   -0.308930
   1 C :   -0.252017
   2 C :   -0.370634
   3 C :   -0.263739
   4 C :   -0.262720
   5 C :   -0.262716
   6 H :    0.117453
   7 H :    0.119050
   8 H :    0.117456
   9 H :    0.136491
  10 H :    0.136490
  11 H :    0.121405
  12 H :    0.120665
  13 H :    0.121404
  14 H :    0.122632
  15 H :    0.122466
  16 H :    0.120072
  17 H :    0.122467
  18 H :    0.120075
  19 H :    0.122630

-------------------------------
LOEWDIN REDUCED ORBITAL CHARGES
-------------------------------
  0 C s       :     2.836499  s :     2.836499
      pz      :     1.069375  p :     3.183340
      px      :     1.044805
      py      :     1.069159
      dz2     :     0.034711  d :     0.264283
      dxz     :     0.031958
      dyz     :     0.073740
      dx2y2   :     0.054586
      dxy     :     0.069287
      f0      :     0.002252  f :     0.024809
      f+1     :     0.002795
      f-1     :     0.003660
      f+2     :     0.003599
      f-2     :     0.002613
      f+3     :     0.005442
      f-3     :     0.004448

  1 C s       :     2.784233  s :     2.784233
      pz      :     1.021274  p :     3.025771
      px      :     0.996375
      py      :     1.008122
      dz2     :     0.044935  d :     0.404312
      dxz     :     0.054331
      dyz     :     0.107927
      dx2y2   :     0.106119
      dxy     :     0.090999
      f0      :     0.004030  f :     0.037700
      f+1     :     0.003434
      f-1     :     0.004418
      f+2     :     0.004859
      f-2     :     0.005182
      f+3     :     0.009972
      f-3     :     0.005805

  2 C s       :     2.704543  s :     2.704543
      pz      :     0.985029  p :     2.943206
      px      :     0.974069
      py      :     0.984108
      dz2     :     0.139130  d :     0.652875
      dxz     :     0.096808
      dyz     :     0.156316
      dx2y2   :     0.107386
      dxy     :     0.153235
      f0      :     0.012908  f :     0.070010
      f+1     :     0.008148
      f-1     :     0.007952
      f+2     :     0.007761
      f-2     :     0.013329
      f+3     :     0.011672
      f-3     :     0.008241

  3 C s       :     2.835323  s :     2.835323
      pz      :     1.063090  p :     3.136737
      px      :     1.031400
      py      :     1.042247
      dz2     :     0.036958  d :     0.267187
      dxz     :     0.020225
      dyz     :     0.086156
      dx2y2   :     0.067641
      dxy     :     0.056207
      f0      :     0.002197  f :     0.024492
      f+1     :     0.002704
      f-1     :     0.003743
      f+2     :     0.002783
      f-2     :     0.003235
      f+3     :     0.004428
      f-3     :     0.005403

  4 C s       :     2.833115  s :     2.833115
      pz      :     1.029446  p :     3.139875
      px      :     1.062608
      py      :     1.047822
      dz2     :     0.082564  d :     0.265264
      dxz     :     0.025826
      dyz     :     0.062533
      dx2y2   :     0.019547
      dxy     :     0.074794
      f0      :     0.003457  f :     0.024466
      f+1     :     0.004549
      f-1     :     0.004961
      f+2     :     0.004112
      f-2     :     0.002971
      f+3     :     0.001471
      f-3     :     0.002945

  5 C s       :     2.833113  s :     2.833113
      pz      :     1.029450  p :     3.139872
      px      :     1.062603
      py      :     1.047819
      dz2     :     0.082572  d :     0.265265
      dxz     :     0.025812
      dyz     :     0.062533
      dx2y2   :     0.019530
      dxy     :     0.074817
      f0      :     0.003457  f :     0.024466
      f+1     :     0.004548
      f-1     :     0.004962
      f+2     :     0.004113
      f-2     :     0.002970
      f+3     :     0.001469
      f-3     :     0.002947

  6 H s       :     0.819403  s :     0.819403
      pz      :     0.028231  p :     0.063144
      px      :     0.013704
      py      :     0.021209

  7 H s       :     0.818364  s :     0.818364
      pz      :     0.014245  p :     0.062585
      px      :     0.026284
      py      :     0.022055

  8 H s       :     0.819399  s :     0.819399
      pz      :     0.028222  p :     0.063145
      px      :     0.013703
      py      :     0.021220

  9 H s       :     0.803669  s :     0.803669
      pz      :     0.026546  p :     0.059840
      px      :     0.012891
      py      :     0.020403

 10 H s       :     0.803669  s :     0.803669
      pz      :     0.026545  p :     0.059840
      px      :     0.012891
      py      :     0.020404

 11 H s       :     0.816150  s :     0.816150
      pz      :     0.027957  p :     0.062445
      px      :     0.013439
      py      :     0.021048

 12 H s       :     0.816879  s :     0.816879
      pz      :     0.013983  p :     0.062456
      px      :     0.029859
      py      :     0.018613

 13 H s       :     0.816151  s :     0.816151
      pz      :     0.027960  p :     0.062445
      px      :     0.013439
      py      :     0.021046

 14 H s       :     0.814976  s :     0.814976
      pz      :     0.028072  p :     0.062393
      px      :     0.014196
      py      :     0.020124

 15 H s       :     0.815027  s :     0.815027
      pz      :     0.013521  p :     0.062506
      px      :     0.030828
      py      :     0.018158

 16 H s       :     0.816709  s :     0.816709
      pz      :     0.013485  p :     0.063219
      px      :     0.025224
      py      :     0.024509

 17 H s       :     0.815027  s :     0.815027
      pz      :     0.013521  p :     0.062506
      px      :     0.030822
      py      :     0.018163

 18 H s       :     0.816707  s :     0.816707
      pz      :     0.013485  p :     0.063219
      px      :     0.025232
      py      :     0.024502

 19 H s       :     0.814977  s :     0.814977
      pz      :     0.028074  p :     0.062393
      px      :     0.014195
      py      :     0.020124



                      *****************************
                      * MAYER POPULATION ANALYSIS *
                      *****************************

  NA   - Mulliken gross atomic population
  ZA   - Total nuclear charge
  QA   - Mulliken gross atomic charge
  VA   - Mayer's total valence
  BVA  - Mayer's bonded valence
  FA   - Mayer's free valence

  ATOM       NA         ZA         QA         VA         BVA        FA
  0 C      6.3607     6.0000    -0.3607     3.9395     3.9395     0.0000
  1 C      6.1392     6.0000    -0.1392     3.8091     3.8091     0.0000
  2 C      5.8531     6.0000     0.1469     3.8288     3.8288     0.0000
  3 C      6.3346     6.0000    -0.3346     3.8381     3.8381    -0.0000
  4 C      6.3706     6.0000    -0.3706     3.8754     3.8754    -0.0000
  5 C      6.3706     6.0000    -0.3706     3.8754     3.8754    -0.0000
  6 H      0.8930     1.0000     0.1070     0.9769     0.9769     0.0000
  7 H      0.8906     1.0000     0.1094     0.9789     0.9789     0.0000
  8 H      0.8930     1.0000     0.1070     0.9769     0.9769     0.0000
  9 H      0.9196     1.0000     0.0804     0.9860     0.9860    -0.0000
 10 H      0.9196     1.0000     0.0804     0.9860     0.9860     0.0000
 11 H      0.8967     1.0000     0.1033     0.9859     0.9859    -0.0000
 12 H      0.8975     1.0000     0.1025     0.9869     0.9869    -0.0000
 13 H      0.8967     1.0000     0.1033     0.9859     0.9859    -0.0000
 14 H      0.8948     1.0000     0.1052     0.9845     0.9845    -0.0000
 15 H      0.8958     1.0000     0.1042     0.9868     0.9868    -0.0000
 16 H      0.8917     1.0000     0.1083     0.9797     0.9797     0.0000
 17 H      0.8958     1.0000     0.1042     0.9868     0.9868    -0.0000
 18 H      0.8917     1.0000     0.1083     0.9797     0.9797     0.0000
 19 H      0.8948     1.0000     0.1052     0.9845     0.9845    -0.0000

  Mayer bond orders larger than 0.100000
B(  0-C ,  1-C ) :   0.9668 B(  0-C ,  6-H ) :   0.9759 B(  0-C ,  7-H ) :   0.9767 
B(  0-C ,  8-H ) :   0.9759 B(  1-C ,  2-C ) :   0.9346 B(  1-C ,  9-H ) :   0.9667 
B(  1-C , 10-H ) :   0.9667 B(  2-C ,  3-C ) :   0.9488 B(  2-C ,  4-C ) :   0.9539 
B(  2-C ,  5-C ) :   0.9539 B(  3-C , 11-H ) :   0.9726 B(  3-C , 12-H ) :   0.9747 
B(  3-C , 13-H ) :   0.9726 B(  4-C , 14-H ) :   0.9724 B(  4-C , 15-H ) :   0.9731 
B(  4-C , 16-H ) :   0.9736 B(  5-C , 17-H ) :   0.9731 B(  5-C , 18-H ) :   0.9736 
B(  5-C , 19-H ) :   0.9724 

-------
TIMINGS
-------

Total SCF time: 0 days 0 hours 0 min 28 sec 

Total time                  ....      28.110 sec
Sum of individual times     ....      27.723 sec  ( 98.6%)

SCF preparation             ....       0.226 sec  (  0.8%)
Fock matrix formation       ....      26.638 sec  ( 94.8%)
  Startup                   ....       0.067 sec  (  0.3% of F)
  Split-RI-J                ....       3.321 sec  ( 12.5% of F)
  XC integration            ....      22.772 sec  ( 85.5% of F)
    XC Preparation          ....       0.000 sec  (  0.0% of XC)
    Basis function eval.    ....       3.406 sec  ( 15.0% of XC)
    Density eval.           ....       6.842 sec  ( 30.0% of XC)
    XC-Functional eval.     ....       1.858 sec  (  8.2% of XC)
    XC-Potential eval.      ....       9.788 sec  ( 43.0% of XC)
Diagonalization             ....       0.000 sec  (  0.0%)
Density matrix formation    ....       0.202 sec  (  0.7%)
Total Energy calculation    ....       0.033 sec  (  0.1%)
Population analysis         ....       0.035 sec  (  0.1%)
Orbital Transformation      ....       0.083 sec  (  0.3%)
Orbital Orthonormalization  ....       0.000 sec  (  0.0%)
DIIS solution               ....       0.405 sec  (  1.4%)
SOSCF solution              ....       0.102 sec  (  0.4%)
Finished LeanSCF after  28.2 sec

Maximum memory used throughout the entire LEANSCF-calculation: 31.0 MB

------------------------------------------------------------------------------
                         ORCA PROPERTY INTEGRAL CALCULATIONS
------------------------------------------------------------------------------

GBWName                                   ... censo.gbw
Number of atoms                           ...     20
Number of basis functions                 ...    270
Max core memory                           ...   1024 MB

Dipole integrals                          ... YES
Quadrupole integrals                      ...  NO
Linear momentum integrals                 ...  NO
Angular momentum integrals                ...  NO
Higher moments length integrals           ...  NO
Higher moments velocity integrals         ...  NO
Kinetic energy integrals                  ...  NO
GIAO right hand sides                     ...  NO
GIAO dipole derivative integrals          ...  NO
SOC integrals                             ...  NO
EPR diamagnetic integrals (GIAO)          ...  NO
EPR gauge integrals                       ...  NO
Field gradient integrals                  ...  NO (   0 nuclei)
Spin-dipole/Fermi contact integrals       ...  NO (   0 nuclei)
Contact density integrals                 ...  NO (   0 nuclei)
Nucleus-orbit integrals                   ...  NO (   0 nuclei)
Geometric perturbations                   ... YES (  20 nuclei)

Choice of electric origin   ... Center of mass
Position of electric origin ... (  0.0010,  0.0013, -0.0000) 
Choice of magnetic origin   ... GIAO
Position of magnetic origin ... (  0.0000,  0.0000,  0.0000) 

Calculating integrals                     ... Electric Dipole (Length)     done (  0.1 sec)
Calculating integrals                     ... Geometrical perturbation right hand sides

-----------------------
GEOMETRIC PERTURBATIONS (20 nuclei)
-----------------------

MaxCore                            ...   1024 MB
Number of batches                  ...      1

BATCH   0: Atoms    0 -   19 ( 60 perturbations)
   => H(core) and overlap derivative integrals     ... done (     0.5 sec)
   => Making and storing internal U-coefficients   ... done (     0.4 sec)
   => RI-J derivative integrals                    ... done (     5.1 sec)
   => RI-J response operators                      ... done (     1.4 sec)
   => XC derivative integrals                      ... done (   375.8 sec)
   => XC response operators                        ... done (   106.5 sec)
   => Completing and storing right hand sides      ... done (     0.3 sec)
   => Total time for right hand sides = 493.0 sec

  geometrical perturbations done (493.0 sec)

Property integrals calculated in 493.1 sec

Maximum memory used throughout the entire PROPINT-calculation: 175.7 MB


-------------------------------------------------------------------------------
                          DFT DISPERSION CORRECTION                            
                                                                               
                                DFTD4 V3.4.0                                   
-------------------------------------------------------------------------------
The R2SCAN3C composite method is recognized
Using three-body term ABC
Active option DFTDOPT                   ...         5   

-------------------------   ----------------
Dispersion correction           -0.005369474
-------------------------   ----------------

------------------   -----------------
gCP correction             0.009769468
------------------   -----------------

-------------------------   --------------------
FINAL SINGLE POINT ENERGY      -237.009220763966
-------------------------   --------------------

------------------------------------------------------------------------------
                            ORCA SCF RESPONSE CALCULATION
------------------------------------------------------------------------------

GBWName                                 ... censo.gbw
Number of atoms                         ...     20
Number of basis functions               ...    270
Max core memory                         ...   1024 MB

Electric field perturbation             ...  NO
Quadrupolar field perturbation          ...  NO
Magnetic field perturbation (no GIAO)   ...  NO
Magnetic field perturbation (with GIAO) ...  NO
Linear momentum (velocity) perturbation ...  NO
Spin-orbit coupling perturbation        ...  NO
Choice of electric origin               ... Center of mass
Position of electric origin             ...     0.001012     0.001272    -0.000006
Choice of magnetic origin               ... GIAO
Position of magnetic origin             ...     0.000000     0.000000     0.000000
Nuclear geometric perturbations         ... YES (  60 perturbations)
Nucleus-orbit perturbations             ...  NO (   0 perturbations)
Spin-dipole/Fermi contact perturbations ...  NO (   0 perturbations)

Total number of real perturbations      ...     60
Total number of imaginary perturbations ...      0
Total number of triplet perturbations   ...      0
Total number of SOC perturbations       ...      0


                                **********************
                                * REAL PERTURBATIONS *
                                **********************



-------------------
SHARK CP-SCF DRIVER
-------------------

Dimension of the orbital basis          ...    270
Dimension of the CPSCF-problem          ...   6125
Number of operators                     ...      1
Max. number of iterations               ...    128
Convergence Tolerance                   ... 1.0e-03
Number of perturbations                 ...     60
Perturbation type                       ... REAL

----------------------------
POPLE LINEAR EQUATION SOLVER
----------------------------

  ITERATION   0:   ||err||_max =   1.2805e-01 (  30.1 sec   0/ 60 done)
  ITERATION   1:   ||err||_max =   1.7300e-02 (  32.1 sec   0/ 60 done)
  ITERATION   2:   ||err||_max =   4.6917e-03 (  32.9 sec  14/ 60 done)
  ITERATION   3:   ||err||_max =   1.5665e-03 (  26.7 sec  49/ 60 done)
  ITERATION   4:   ||err||_max =   3.9889e-04 (   7.2 sec  60/ 60 done)

CP-SCF equations solved in 131.0 sec
Response densities calculated in   0.2 sec

Maximum memory used throughout the entire SCFRESP-calculation: 103.3 MB

------------------------------------------------------------------------------
                              ORCA PROPERTY CALCULATIONS
------------------------------------------------------------------------------

GBWName                                 ... censo.gbw
Number of atoms                         ...     20
Number of basis functions               ...    270
Max core memory                         ...   1024 MB

Electric properties:
Dipole moment                           ... YES
Quadrupole moment                       ...  NO
Static polarizability (Dipole/Dipole)   ...  NO
Static polarizability (Dipole/Quad.)    ...  NO
Static polarizability (Quad./Quad.)     ...  NO
Static polarizability (Velocity)        ...  NO

Atomic electric properties:
Dipole moment                           ...  NO
Quadrupole moment                       ...  NO
Static polarizability                   ...  NO

Choice of electric origin               ... Center of mass
Position of electric origin             ...     0.001012     0.001272    -0.000006

General magnetic properties:
Magnetizability                         ...  NO

EPR properties:
g-Tensor (aka g-matrix)                 ...  NO
Zero-Field splitting spin-orbit         ...  NO
Zero-field splitting spin-spin          ...  NO
Hyperfine couplings                     ...  NO (   0 nuclei)
Quadrupole couplings                    ...  NO (   0 nuclei)
Contact density                         ...  NO (   0 nuclei)

NMR properties:
Chemical shifts                         ...  NO (   0 nuclei)
Spin-rotation constants                 ...  NO (   0 nuclei)
Spin-spin couplings                     ...  NO (   0 nuclei,    0 pairs)

Choice of magnetic origin               ... GIAO
Position of magnetic origin             ...     0.000000     0.000000     0.000000

Properties with geometric perturbations:
SCF Hessian                             ... YES
IR spectrum                             ... YES
VCD spectrum                            ...  NO
X-ray spectroscopy properties:
SCF XES/XAS/RIXS spectra                ...  NO


-------------
DIPOLE MOMENT
-------------

Method             : SCF
Type of density    : Electron Density
Multiplicity       :   1
Irrep              :   0
Energy             :  -237.0136207583268515 Eh
Relativity type    : 
Basis              : AO
                                X                 Y                 Z
Electronic contribution:      0.244193508       0.539728616       0.000061988
Nuclear contribution   :     -0.261724813      -0.525712652      -0.000064800
                        -----------------------------------------
Total Dipole Moment    :     -0.017531305       0.014015964      -0.000002812
                        -----------------------------------------
Magnitude (a.u.)       :      0.022445353
Magnitude (Debye)      :      0.057051555



--------------------
Rotational spectrum 
--------------------
 
Rotational constants in cm-1:             0.143447             0.083474             0.083166 
Rotational constants in MHz :          4300.441918          2502.493943          2493.256870 

Dipole components along the rotational axes: 
x,y,z [a.u.] :    -0.017495    -0.014061    -0.000001 
x,y,z [Debye]:    -0.044469    -0.035741    -0.000003 

 

Dipole moment calculation done in   0.0 sec 

-----------
SCF HESSIAN
-----------

Occupied/Occupied contributions to the Hessian:
   => Occupied/Occupied contributions              ... done (  0.0 sec)
Perturbed density contributions to the Hessian:
   => Perturbed density contributions              ... done (  0.0 sec)
Explicit contributions to the Hessian:
   => Nuclear repulsion Hessian                    ... done (  0.0 sec)
   => HCore and overlap Hessian                    ... done ( 18.9 sec)
   => RI-J Hessian                                 ... done ( 11.4 sec)
   => XC-Hessian                                   ... done (113.8 sec)
   => Van der Waals-Hessian                        ... done (  4.0 sec)
   => GCP-Hessian                                  ... done (  0.1 sec)
   => Explicit contributions done
Dipole derivatives                                 ... done (  0.1 sec)
Mass weighting the Hessian           ... done
Calculating normal modes             ... done
Scaling frequencies                  ... done

-----------------------
VIBRATIONAL FREQUENCIES
-----------------------

Scaling factor for frequencies =  1.000000000  (already applied!)

     0:       0.00 cm**-1
     1:       0.00 cm**-1
     2:       0.00 cm**-1
     3:       0.00 cm**-1
     4:       0.00 cm**-1
     5:       0.00 cm**-1
     6:      94.93 cm**-1
     7:     226.93 cm**-1
     8:     264.18 cm**-1
     9:     275.49 cm**-1
    10:     297.38 cm**-1
    11:     309.51 cm**-1
    12:     343.69 cm**-1
    13:     364.64 cm**-1
    14:     414.76 cm**-1
    15:     425.48 cm**-1
    16:     487.76 cm**-1
    17:     715.00 cm**-1
    18:     789.58 cm**-1
    19:     878.29 cm**-1
    20:     937.04 cm**-1
    21:     937.07 cm**-1
    22:     955.78 cm**-1
    23:     998.44 cm**-1
    24:    1010.99 cm**-1
    25:    1028.65 cm**-1
    26:    1096.32 cm**-1
    27:    1103.36 cm**-1
    28:    1234.70 cm**-1
    29:    1243.70 cm**-1
    30:    1269.85 cm**-1
    31:    1332.38 cm**-1
    32:    1359.61 cm**-1
    33:    1387.02 cm**-1
    34:    1387.23 cm**-1
    35:    1403.31 cm**-1
    36:    1421.71 cm**-1
    37:    1469.30 cm**-1
    38:    1472.18 cm**-1
    39:    1478.09 cm**-1
    40:    1482.02 cm**-1
    41:    1497.61 cm**-1
    42:    1500.08 cm**-1
    43:    1505.16 cm**-1
    44:    1509.17 cm**-1
    45:    1515.69 cm**-1
    46:    2983.63 cm**-1
    47:    2988.59 cm**-1
    48:    2991.89 cm**-1
    49:    2998.24 cm**-1
    50:    3008.07 cm**-1
    51:    3025.49 cm**-1
    52:    3065.17 cm**-1
    53:    3065.92 cm**-1
    54:    3067.68 cm**-1
    55:    3071.41 cm**-1
    56:    3075.65 cm**-1
    57:    3076.40 cm**-1
    58:    3082.39 cm**-1
    59:    3087.95 cm**-1


------------
NORMAL MODES
------------

These modes are the Cartesian displacements weighted by the diagonal matrix
M(i,i)=1/sqrt(m[i]) where m[i] is the mass of the displaced atom
Thus, these vectors are normalized but *not* orthogonal

                  0          1          2          3          4          5    
      0       0.000000   0.000000   0.000000   0.000000   0.000000   0.000000
      1       0.000000   0.000000   0.000000   0.000000   0.000000   0.000000
      2       0.000000   0.000000   0.000000   0.000000   0.000000   0.000000
      3       0.000000   0.000000   0.000000   0.000000   0.000000   0.000000
      4       0.000000   0.000000   0.000000   0.000000   0.000000   0.000000
      5       0.000000   0.000000   0.000000   0.000000   0.000000   0.000000
      6       0.000000   0.000000   0.000000   0.000000   0.000000   0.000000
      7       0.000000   0.000000   0.000000   0.000000   0.000000   0.000000
      8       0.000000   0.000000   0.000000   0.000000   0.000000   0.000000
      9       0.000000   0.000000   0.000000   0.000000   0.000000   0.000000
     10       0.000000   0.000000   0.000000   0.000000   0.000000   0.000000
     11       0.000000   0.000000   0.000000   0.000000   0.000000   0.000000
     12       0.000000   0.000000   0.000000   0.000000   0.000000   0.000000
     13       0.000000   0.000000   0.000000   0.000000   0.000000   0.000000
     14       0.000000   0.000000   0.000000   0.000000   0.000000   0.000000
     15       0.000000   0.000000   0.000000   0.000000   0.000000   0.000000
     16       0.000000   0.000000   0.000000   0.000000   0.000000   0.000000
     17       0.000000   0.000000   0.000000   0.000000   0.000000   0.000000
     18       0.000000   0.000000   0.000000   0.000000   0.000000   0.000000
     19       0.000000   0.000000   0.000000   0.000000   0.000000   0.000000
     20       0.000000   0.000000   0.000000   0.000000   0.000000   0.000000
     21       0.000000   0.000000   0.000000   0.000000   0.000000   0.000000
     22       0.000000   0.000000   0.000000   0.000000   0.000000   0.000000
     23       0.000000   0.000000   0.000000   0.000000   0.000000   0.000000
     24       0.000000   0.000000   0.000000   0.000000   0.000000   0.000000
     25       0.000000   0.000000   0.000000   0.000000   0.000000   0.000000
     26       0.000000   0.000000   0.000000   0.000000   0.000000   0.000000
     27       0.000000   0.000000   0.000000   0.000000   0.000000   0.000000
     28       0.000000   0.000000   0.000000   0.000000   0.000000   0.000000
     29       0.000000   0.000000   0.000000   0.000000   0.000000   0.000000
     30       0.000000   0.000000   0.000000   0.000000   0.000000   0.000000
     31       0.000000   0.000000   0.000000   0.000000   0.000000   0.000000
     32       0.000000   0.000000   0.000000   0.000000   0.000000   0.000000
     33       0.000000   0.000000   0.000000   0.000000   0.000000   0.000000
     34       0.000000   0.000000   0.000000   0.000000   0.000000   0.000000
     35       0.000000   0.000000   0.000000   0.000000   0.000000   0.000000
     36       0.000000   0.000000   0.000000   0.000000   0.000000   0.000000
     37       0.000000   0.000000   0.000000   0.000000   0.000000   0.000000
     38       0.000000   0.000000   0.000000   0.000000   0.000000   0.000000
     39       0.000000   0.000000   0.000000   0.000000   0.000000   0.000000
     40       0.000000   0.000000   0.000000   0.000000   0.000000   0.000000
     41       0.000000   0.000000   0.000000   0.000000   0.000000   0.000000
     42       0.000000   0.000000   0.000000   0.000000   0.000000   0.000000
     43       0.000000   0.000000   0.000000   0.000000   0.000000   0.000000
     44       0.000000   0.000000   0.000000   0.000000   0.000000   0.000000
     45       0.000000   0.000000   0.000000   0.000000   0.000000   0.000000
     46       0.000000   0.000000   0.000000   0.000000   0.000000   0.000000
     47       0.000000   0.000000   0.000000   0.000000   0.000000   0.000000
     48       0.000000   0.000000   0.000000   0.000000   0.000000   0.000000
     49       0.000000   0.000000   0.000000   0.000000   0.000000   0.000000
     50       0.000000   0.000000   0.000000   0.000000   0.000000   0.000000
     51       0.000000   0.000000   0.000000   0.000000   0.000000   0.000000
     52       0.000000   0.000000   0.000000   0.000000   0.000000   0.000000
     53       0.000000   0.000000   0.000000   0.000000   0.000000   0.000000
     54       0.000000   0.000000   0.000000   0.000000   0.000000   0.000000
     55       0.000000   0.000000   0.000000   0.000000   0.000000   0.000000
     56       0.000000   0.000000   0.000000   0.000000   0.000000   0.000000
     57       0.000000   0.000000   0.000000   0.000000   0.000000   0.000000
     58       0.000000   0.000000   0.000000   0.000000   0.000000   0.000000
     59       0.000000   0.000000   0.000000   0.000000   0.000000   0.000000
                  6          7          8          9         10         11    
      0       0.000008   0.000033   0.124600   0.000024   0.001509   0.000017
      1      -0.000016  -0.000042  -0.156273  -0.000015   0.060509  -0.000097
      2       0.173661  -0.008857  -0.000031   0.051984   0.000031   0.025334
      3       0.000001   0.000004   0.001079  -0.000000   0.024622  -0.000039
      4       0.000007   0.000020   0.048332   0.000009   0.007637  -0.000000
      5      -0.112877   0.011134   0.000022  -0.014350  -0.000109  -0.077526
      6       0.000000   0.000000  -0.005563  -0.000007   0.004062  -0.000005
      7       0.000005   0.000020   0.058088   0.000005  -0.020461   0.000044
      8      -0.036794   0.010680   0.000001  -0.020157  -0.000028  -0.019841
      9       0.000005   0.000027   0.117738   0.000015  -0.033212   0.000054
     10      -0.000003  -0.000015  -0.091260  -0.000026   0.023502  -0.000023
     11       0.051110   0.010335  -0.000016   0.006581   0.000109   0.065744
     12       0.086126  -0.008507  -0.116673   0.039589   0.003342   0.009791
     13       0.019492   0.020499   0.086786  -0.000752  -0.038928  -0.025193
     14      -0.045092  -0.007601  -0.030200  -0.017605   0.008231  -0.004565
     15      -0.086141   0.008445  -0.116657  -0.039621   0.003340  -0.009820
     16      -0.019482  -0.020467   0.086823   0.000782  -0.038840   0.025288
     17      -0.045093  -0.007593   0.030222  -0.017586  -0.008254  -0.004556
     18       0.014186  -0.170441   0.240613   0.171862  -0.011119   0.170580
     19       0.305444   0.252117  -0.170838  -0.200855   0.060769  -0.164361
     20       0.394343   0.156961  -0.002202  -0.078167   0.000641  -0.078755
     21      -0.000008   0.000058  -0.000876  -0.000060   0.023000  -0.000091
     22      -0.000148  -0.000193  -0.319740   0.000044   0.088347  -0.000082
     23      -0.043542  -0.366498   0.000006   0.379486   0.000342   0.326606
     24      -0.014146   0.170515   0.240704  -0.171716  -0.011513  -0.170430
     25      -0.305378  -0.252130  -0.170676   0.200755   0.061066   0.164113
     26       0.394504   0.157165   0.002071  -0.078344  -0.000768  -0.078911
     27       0.063331  -0.017752  -0.062254   0.031312   0.051072   0.015142
     28       0.184224   0.006504   0.040272  -0.000375   0.007835   0.084311
     29      -0.251452   0.006397   0.006118  -0.014961  -0.000649  -0.140624
     30      -0.063334   0.017739  -0.062245  -0.031337   0.051039  -0.015328
     31      -0.184202  -0.006465   0.040354   0.000388   0.007580  -0.084311
     32      -0.251460   0.006398  -0.006013  -0.014967   0.000240  -0.140634
     33       0.012374   0.105267   0.217834   0.272533  -0.068741  -0.099305
     34       0.064056  -0.127141  -0.088222  -0.304053   0.024447   0.227543
     35       0.096983  -0.085861  -0.001580  -0.223704   0.001734   0.234194
     36       0.000004   0.000014   0.035771   0.000009  -0.005705   0.000008
     37      -0.000003  -0.000060  -0.239185  -0.000089   0.074319  -0.000080
     38       0.025112   0.199440  -0.000321   0.482931  -0.000343  -0.174740
     39      -0.012359  -0.105175   0.218173  -0.272476  -0.068343   0.099525
     40      -0.064067   0.127120  -0.088615   0.304024   0.023632  -0.227607
     41       0.096976  -0.085839   0.001840  -0.223651  -0.000908   0.234165
     42       0.239096  -0.300386  -0.331681   0.009348  -0.391040  -0.260729
     43       0.048385  -0.003654   0.109551  -0.008794  -0.118185  -0.088774
     44      -0.044410   0.012581   0.010678  -0.018818   0.004697  -0.013208
     45       0.055055   0.100319  -0.074087   0.064883   0.149582   0.106116
     46      -0.050274   0.246275   0.186980   0.047030   0.261339   0.174044
     47       0.059880  -0.172703  -0.216789  -0.017717  -0.190306  -0.135942
     48       0.031724   0.171540  -0.035083   0.072779   0.239751   0.162753
     49       0.074350  -0.160268   0.008102  -0.035810  -0.278111  -0.181542
     50      -0.156331   0.117780   0.067917  -0.011488   0.220845   0.150300
     51      -0.055040  -0.100494  -0.073868  -0.064819   0.149463  -0.106694
     52       0.050234  -0.246198   0.187255  -0.046760   0.260823  -0.174840
     53       0.059846  -0.172631   0.216981  -0.017521   0.189859  -0.136529
     54      -0.031807  -0.171510  -0.034915  -0.072617   0.239203  -0.163420
     55      -0.074325   0.160346   0.007916   0.035671  -0.277661   0.182412
     56      -0.156345   0.117794  -0.068079  -0.011592  -0.220477   0.150932
     57      -0.239078   0.300281  -0.331999  -0.009675  -0.390281   0.261899
     58      -0.048337   0.003582   0.109622   0.008792  -0.117780   0.088960
     59      -0.044366   0.012524  -0.010623  -0.018826  -0.004663  -0.013230
                 12         13         14         15         16         17    
      0       0.000049  -0.154770  -0.114707  -0.000001  -0.133001  -0.082426
      1       0.000001   0.032807  -0.021515   0.000001  -0.033936   0.003277
      2       0.035433   0.000018   0.000008  -0.022057   0.000001  -0.000000
      3       0.000040  -0.051586  -0.131882  -0.000020   0.016910  -0.125989
      4       0.000004  -0.087931   0.069768   0.000013  -0.160958   0.193437
      5       0.120825   0.000028   0.000037  -0.092774  -0.000018   0.000011
      6       0.000022  -0.012783  -0.049536  -0.000011   0.161008   0.033708
      7      -0.000003  -0.061724   0.121994   0.000004   0.035208  -0.021799
      8      -0.009367  -0.000014  -0.000010   0.141046   0.000005  -0.000000
      9      -0.000031   0.042140   0.122389   0.000010   0.168072   0.133675
     10       0.000065  -0.126064  -0.060932  -0.000017   0.133964   0.111537
     11      -0.138621  -0.000029  -0.000019  -0.106125   0.000006   0.000003
     12       0.160716   0.078250   0.061589   0.000199  -0.055032   0.014461
     13      -0.004290   0.095734  -0.016166   0.132374   0.002945  -0.128853
     14      -0.000293  -0.108881   0.121259   0.080517   0.021856  -0.179012
     15      -0.160776   0.078140   0.061531  -0.000184  -0.055012   0.014467
     16       0.004221   0.095750  -0.016128  -0.132372   0.002927  -0.128863
     17      -0.000322   0.108874  -0.121277   0.080503  -0.021849   0.179001
     18      -0.051473  -0.241955  -0.070708   0.092895  -0.324188   0.153876
     19      -0.055871   0.043783  -0.027557  -0.057575   0.000581  -0.046201
     20      -0.011840   0.001937   0.000362  -0.054547   0.007148  -0.013133
     21       0.000056  -0.056709  -0.154942  -0.000042   0.052806  -0.322366
     22       0.000008   0.161049  -0.073128   0.000020   0.209409  -0.306646
     23       0.034387  -0.000021  -0.000033   0.116016   0.000027  -0.000009
     24       0.051564  -0.241965  -0.070616  -0.092839  -0.324346   0.154047
     25       0.055853   0.043701  -0.027554   0.057559   0.000505  -0.046043
     26      -0.011853  -0.001885  -0.000339  -0.054619  -0.007168   0.013122
     27       0.044870  -0.033688  -0.177598  -0.086809  -0.036535  -0.117551
     28      -0.158390  -0.082077   0.069520   0.252714  -0.147372   0.181562
     29       0.239846  -0.003922   0.000882  -0.281405  -0.008076   0.006872
     30      -0.044776  -0.033725  -0.177629   0.086741  -0.036513  -0.117579
     31       0.158391  -0.081985   0.069635  -0.252681  -0.147408   0.181537
     32       0.239853   0.004048  -0.000721  -0.281419   0.008014  -0.006872
     33      -0.198780   0.122073   0.301428  -0.188510   0.142105   0.075428
     34       0.034520  -0.127412  -0.060579  -0.148940   0.132582   0.121920
     35      -0.107665  -0.003391  -0.005669  -0.208899  -0.000264   0.007828
     36       0.000010  -0.020801  -0.019190  -0.000017   0.189247   0.196047
     37       0.000169  -0.240027  -0.317255  -0.000050   0.171133   0.221308
     38      -0.385300  -0.000201  -0.000062  -0.244010   0.000056   0.000025
     39       0.198600   0.122277   0.301467   0.188581   0.142050   0.075407
     40      -0.034392  -0.127599  -0.060631   0.148915   0.132653   0.121944
     41      -0.107684   0.003470   0.005659  -0.208889   0.000225  -0.007835
     42       0.127484  -0.005774   0.063511  -0.038774  -0.191874   0.018949
     43      -0.032404   0.265835  -0.212882   0.272547  -0.031597  -0.114186
     44      -0.014750   0.012837  -0.007552   0.177132   0.016009  -0.171366
     45       0.258989   0.149678   0.118565   0.016288  -0.144152   0.002384
[...]
     32       0.027374  -0.004602   0.061675   0.040130   0.032034  -0.111713
     33       0.019639   0.000244   0.003385   0.000035  -0.000219  -0.000804
     34      -0.327204  -0.158030  -0.069148  -0.038406  -0.002298   0.015453
     35       0.439459   0.234982   0.090861   0.058079   0.001626  -0.021029
     36       0.000742   0.520196  -0.000388   0.125401  -0.005647   0.000012
     37      -0.000415  -0.288604   0.000212  -0.068601   0.000971  -0.000006
     38      -0.016666  -0.000023  -0.004453  -0.000015   0.000002  -0.000049
     39      -0.019614   0.000253  -0.003381   0.000022  -0.000217   0.000803
     40       0.326729  -0.158366   0.069375  -0.038173  -0.002341  -0.015457
     41       0.438852  -0.235488   0.091226  -0.057787  -0.001683  -0.021041
     42       0.019549   0.031777   0.039137  -0.013693   0.030589   0.011189
     43      -0.137923  -0.187882  -0.142141   0.033295  -0.109009  -0.029905
     44       0.210865   0.285029   0.219695  -0.051345   0.167767   0.045933
     45       0.305534   0.276867  -0.172706   0.175866  -0.177227  -0.074970
     46      -0.153627  -0.137178   0.102423  -0.098050   0.102791   0.041907
     47      -0.013563  -0.017578   0.001828  -0.005959   0.003095   0.000826
     48       0.052940  -0.066282  -0.404959   0.222871  -0.368995  -0.149216
     49       0.063281  -0.053339  -0.399056   0.222917  -0.365019  -0.146445
     50      -0.004056  -0.004772   0.000537  -0.000233  -0.002214   0.001212
     51      -0.305584   0.277481   0.171576   0.176334  -0.177261   0.075055
     52       0.153779  -0.137612  -0.101879  -0.098415   0.102899  -0.041989
     53      -0.013488   0.017534   0.001744   0.005916  -0.003046   0.000810
     54      -0.053089  -0.065895   0.403934   0.224360  -0.369504   0.149476
     55      -0.063395  -0.052900   0.397760   0.224232  -0.365280   0.146608
     56      -0.004050   0.004790   0.000466   0.000196   0.002278   0.001186
     57      -0.019456   0.031661  -0.038988  -0.013816   0.030562  -0.011186
     58       0.137939  -0.188039   0.142085   0.033851  -0.109208   0.029968
     59       0.210900  -0.285284   0.219616   0.052205  -0.168081   0.046033


-----------
IR SPECTRUM
-----------

 Mode   freq       eps      Int      T**2         TX        TY        TZ
       cm**-1   L/(mol*cm) km/mol    a.u.
----------------------------------------------------------------------------
  6:     94.93   0.000000    0.00  0.000000  (-0.000001  0.000002  0.000632)
  7:    226.93   0.000002    0.01  0.000003  ( 0.000001 -0.000003 -0.001824)
  8:    264.18   0.000006    0.03  0.000007  ( 0.001002 -0.002456 -0.000001)
  9:    275.49   0.000001    0.00  0.000001  (-0.000002 -0.000000  0.000827)
 10:    297.38   0.000010    0.05  0.000010  ( 0.002885 -0.001320 -0.000002)
 11:    309.51   0.000000    0.00  0.000000  (-0.000008  0.000002 -0.000375)
 12:    343.69   0.000001    0.01  0.000001  (-0.000002  0.000001 -0.001095)
 13:    364.64   0.000003    0.02  0.000003  (-0.001323  0.000940 -0.000001)
 14:    414.76   0.000013    0.07  0.000010  (-0.002121  0.002351 -0.000001)
 15:    425.48   0.000017    0.08  0.000012  (-0.000001  0.000000  0.003505)
 16:    487.76   0.000053    0.27  0.000034  (-0.004266  0.003979  0.000000)
 17:    715.00   0.000055    0.28  0.000024  ( 0.004216 -0.002493 -0.000001)
 18:    789.58   0.000442    2.23  0.000175  ( 0.000003 -0.000000 -0.013217)
 19:    878.29   0.000035    0.17  0.000012  (-0.001486 -0.003171 -0.000002)
 20:    937.04   0.000012    0.06  0.000004  ( 0.000120  0.000031 -0.001963)
 21:    937.07   0.000156    0.79  0.000052  (-0.006991 -0.001715 -0.000034)
 22:    955.78   0.000005    0.02  0.000001  ( 0.000000  0.000001  0.001222)
 23:    998.44   0.000142    0.72  0.000044  (-0.000008  0.000004  0.006654)
 24:   1010.99   0.000509    2.57  0.000157  ( 0.008504 -0.009209  0.000000)
 25:   1028.65   0.000446    2.26  0.000135  (-0.010285  0.005447 -0.000002)
 26:   1096.32   0.000370    1.87  0.000105  ( 0.004479 -0.009231 -0.000003)
 27:   1103.36   0.000044    0.22  0.000013  (-0.000002  0.000003 -0.003547)
 28:   1234.70   0.001407    7.11  0.000356  ( 0.018048  0.005459  0.000000)
 29:   1243.70   0.000354    1.79  0.000089  (-0.000002 -0.000001  0.009421)
 30:   1269.85   0.000630    3.18  0.000155  ( 0.009285 -0.008278 -0.000001)
 31:   1332.38   0.000129    0.65  0.000030  ( 0.000000  0.000001 -0.005497)
 32:   1359.61   0.000009    0.04  0.000002  ( 0.001380 -0.000317  0.000001)
 33:   1387.02   0.001423    7.19  0.000320  ( 0.004299  0.017371 -0.000111)
 34:   1387.23   0.002035   10.28  0.000458  (-0.000022 -0.000087 -0.021393)
 35:   1403.31   0.001515    7.66  0.000337  ( 0.017244  0.006293  0.000003)
 36:   1421.71   0.000917    4.63  0.000201  ( 0.011965 -0.007623 -0.000002)
 37:   1469.30   0.000003    0.02  0.000001  (-0.000677 -0.000416 -0.000000)
 38:   1472.18   0.000040    0.20  0.000009  (-0.000001 -0.000001 -0.002923)
 39:   1478.09   0.000038    0.19  0.000008  (-0.000001 -0.000004 -0.002830)
 40:   1482.02   0.000051    0.26  0.000011  ( 0.001247  0.003024  0.000000)
 41:   1497.61   0.002701   13.65  0.000563  ( 0.000006 -0.000015  0.023725)
 42:   1500.08   0.001582    7.99  0.000329  (-0.003062  0.017880  0.000022)
 43:   1505.16   0.001635    8.26  0.000339  ( 0.017635  0.005299 -0.000001)
 44:   1509.17   0.000010    0.05  0.000002  ( 0.000004 -0.000020 -0.001439)
 45:   1515.69   0.002860   14.45  0.000589  ( 0.016322 -0.017956  0.000000)
 46:   2983.63   0.005914   29.89  0.000619  (-0.005291  0.024302  0.000004)
 47:   2988.59   0.009027   45.62  0.000943  (-0.014899 -0.026843 -0.000015)
 48:   2991.89   0.009291   46.95  0.000969  ( 0.000011  0.000015 -0.031130)
 49:   2998.24   0.002619   13.24  0.000273  ( 0.016491 -0.000801  0.000014)
 50:   3008.07   0.005727   28.94  0.000594  ( 0.022066  0.010357 -0.000002)
 51:   3025.49   0.003430   17.34  0.000354  ( 0.000003  0.000000 -0.018810)
 52:   3065.17   0.000033    0.17  0.000003  ( 0.000020 -0.000019 -0.001846)
 53:   3065.92   0.000436    2.20  0.000044  ( 0.005206 -0.004150  0.000027)
 54:   3067.68   0.007674   38.78  0.000781  (-0.000014  0.000017 -0.027940)
 55:   3071.41   0.012504   63.19  0.001270  (-0.021845  0.028165  0.000016)
 56:   3075.65   0.005611   28.35  0.000569  ( 0.000076 -0.000019 -0.023859)
 57:   3076.40   0.012888   65.13  0.001307  (-0.033298  0.014094 -0.000053)
 58:   3082.39   0.011410   57.66  0.001155  ( 0.017041  0.029408  0.000012)
 59:   3087.95   0.006735   34.04  0.000681  (-0.000010  0.000001  0.026089)

* The epsilon (eps) is given for a Dirac delta lineshape.
** The dipole moment derivative (T) already includes vibrational overlap.

The first frequency considered to be a vibration is 6
The total number of vibrations considered is 54


--------------------------
THERMOCHEMISTRY AT 298.15K
--------------------------

Temperature         ...   298.15 K
Pressure            ...     1.00 atm
Total Mass          ...    86.18 AMU
Quasi RRHO          ...     True
Cut-Off Frequency   ...     1.00 cm^-1

Throughout the following assumptions are being made:
  (1) The electronic state is orbitally nondegenerate
  (2) There are no thermally accessible electronically excited states
  (3) Hindered rotations indicated by low frequency modes are not
      treated as such but are treated as vibrations and this may
      cause some error
  (4) All equations used are the standard statistical mechanics
      equations for an ideal gas
  (5) All vibrations are strictly harmonic

freq.      94.93  E(vib)   ...       0.47 
freq.     226.93  E(vib)   ...       0.33 
freq.     264.18  E(vib)   ...       0.29 
freq.     275.49  E(vib)   ...       0.28 
freq.     297.38  E(vib)   ...       0.27 
freq.     309.51  E(vib)   ...       0.26 
freq.     343.69  E(vib)   ...       0.23 
freq.     364.64  E(vib)   ...       0.22 
freq.     414.76  E(vib)   ...       0.19 
freq.     425.48  E(vib)   ...       0.18 
freq.     487.76  E(vib)   ...       0.15 
freq.     715.00  E(vib)   ...       0.07 
freq.     789.58  E(vib)   ...       0.05 
freq.     878.29  E(vib)   ...       0.04 
freq.     937.04  E(vib)   ...       0.03 
freq.     937.07  E(vib)   ...       0.03 
freq.     955.78  E(vib)   ...       0.03 
freq.     998.44  E(vib)   ...       0.02 
freq.    1010.99  E(vib)   ...       0.02 
freq.    1028.65  E(vib)   ...       0.02 
freq.    1096.32  E(vib)   ...       0.02 
freq.    1103.36  E(vib)   ...       0.02 
freq.    1234.70  E(vib)   ...       0.01 
freq.    1243.70  E(vib)   ...       0.01 
freq.    1269.85  E(vib)   ...       0.01 
freq.    1332.38  E(vib)   ...       0.01 
freq.    1359.61  E(vib)   ...       0.01 
freq.    1387.02  E(vib)   ...       0.00 
freq.    1387.23  E(vib)   ...       0.00 
freq.    1403.31  E(vib)   ...       0.00 
freq.    1421.71  E(vib)   ...       0.00 
freq.    1469.30  E(vib)   ...       0.00 
freq.    1472.18  E(vib)   ...       0.00 
freq.    1478.09  E(vib)   ...       0.00 
freq.    1482.02  E(vib)   ...       0.00 
freq.    1497.61  E(vib)   ...       0.00 
freq.    1500.08  E(vib)   ...       0.00 
freq.    1505.16  E(vib)   ...       0.00 
freq.    1509.17  E(vib)   ...       0.00 
freq.    1515.69  E(vib)   ...       0.00 
freq.    2983.63  E(vib)   ...       0.00 
freq.    2988.59  E(vib)   ...       0.00 
freq.    2991.89  E(vib)   ...       0.00 
freq.    2998.24  E(vib)   ...       0.00 
freq.    3008.07  E(vib)   ...       0.00 
freq.    3025.49  E(vib)   ...       0.00 
freq.    3065.17  E(vib)   ...       0.00 
freq.    3065.92  E(vib)   ...       0.00 
freq.    3067.68  E(vib)   ...       0.00 
freq.    3071.41  E(vib)   ...       0.00 
freq.    3075.65  E(vib)   ...       0.00 
freq.    3076.40  E(vib)   ...       0.00 
freq.    3082.39  E(vib)   ...       0.00 
freq.    3087.95  E(vib)   ...       0.00 

------------
INNER ENERGY
------------

The inner energy is: U= E(el) + E(ZPE) + E(vib) + E(rot) + E(trans)
    E(el)   - is the total energy from the electronic structure calculation
              = E(kin-el) + E(nuc-el) + E(el-el) + E(nuc-nuc)
    E(ZPE)  - the the zero temperature vibrational energy from the frequency calculation
    E(vib)  - the the finite temperature correction to E(ZPE) due to population
              of excited vibrational states
    E(rot)  - is the rotational thermal energy
    E(trans)- is the translational thermal energy

Summary of contributions to the inner energy U:
Electronic energy                ...   -237.00922076 Eh
Zero point energy                ...      0.18683842 Eh     117.24 kcal/mol
Thermal vibrational correction   ...      0.00521759 Eh       3.27 kcal/mol
Thermal rotational correction    ...      0.00141627 Eh       0.89 kcal/mol
Thermal translational correction ...      0.00141627 Eh       0.89 kcal/mol
-----------------------------------------------------------------------
Total thermal energy                   -236.81433221 Eh


Summary of corrections to the electronic energy:
(perhaps to be used in another calculation)
Total thermal correction                  0.00805013 Eh       5.05 kcal/mol
Non-thermal (ZPE) correction              0.18683842 Eh     117.24 kcal/mol
-----------------------------------------------------------------------
Total correction                          0.19488856 Eh     122.29 kcal/mol


--------
ENTHALPY
--------

The enthalpy is H = U + kB*T
                kB is Boltzmann's constant
Total thermal energy              ...   -236.81433221 Eh 
Thermal Enthalpy correction       ...      0.00094421 Eh       0.59 kcal/mol
-----------------------------------------------------------------------
Total Enthalpy                    ...   -236.81338800 Eh


Note: Only C1 symmetry has been detected, increase convergence thresholds 
      if your molecule has a higher symmetry. Symmetry factor of 1.0 is   
      used for the rotational entropy correction. 
 

Note: Rotational entropy computed according to Herzberg 
Infrared and Raman Spectra, Chapter V,1, Van Nostrand Reinhold, 1945 
Point Group:  C1, Symmetry Number:   1  
Rotational constants in cm-1:     0.143447     0.083474     0.083166 

Vibrational entropy computed according to the QRRHO of S. Grimme
Chem.Eur.J. 2012 18 9955 using a reference frequency of 100.0 cm-1


-------
ENTROPY
-------

The entropy contributions are T*S = T*(S(el)+S(vib)+S(rot)+S(trans))
     S(el)   - electronic entropy
     S(vib)  - vibrational entropy
     S(rot)  - rotational entropy
     S(trans)- translational entropy
The entropies will be listed as multiplied by the temperature to get
units of energy

Electronic entropy                ...      0.00000000 Eh      0.00 kcal/mol
Vibrational entropy               ...      0.00837517 Eh      5.26 kcal/mol
Rotational entropy                ...      0.01277386 Eh      8.02 kcal/mol
Translational entropy             ...      0.01866056 Eh     11.71 kcal/mol
-----------------------------------------------------------------------
Final entropy term                ...      0.03980960 Eh     24.98 kcal/mol

In case the symmetry of your molecule has not been determined correctly
or in case you have a reason to use a different symmetry number we print 
out the resulting rotational entropy values for sn=1,12:

 non-linear molecules -----------------------------------
|  sn= 1 | S(rot)=       0.01277386 Eh      8.02 kcal/mol|
|  sn= 2 | S(rot)=       0.01211941 Eh      7.61 kcal/mol|
|  sn= 3 | S(rot)=       0.01173657 Eh      7.36 kcal/mol|
|  sn= 4 | S(rot)=       0.01146495 Eh      7.19 kcal/mol|
|  sn= 5 | S(rot)=       0.01125426 Eh      7.06 kcal/mol|
|  sn= 6 | S(rot)=       0.01108212 Eh      6.95 kcal/mol|
|  sn= 7 | S(rot)=       0.01093657 Eh      6.86 kcal/mol|
|  sn= 8 | S(rot)=       0.01081049 Eh      6.78 kcal/mol|
|  sn= 9 | S(rot)=       0.01069928 Eh      6.71 kcal/mol|
|  sn=10 | S(rot)=       0.01059981 Eh      6.65 kcal/mol|
|  sn=11 | S(rot)=       0.01050982 Eh      6.59 kcal/mol|
|  sn=12 | S(rot)=       0.01042766 Eh      6.54 kcal/mol|
 linear molecules ---------------------------------------
|  Dinfh | S(rot)=       0.00767390 Eh      4.82 kcal/mol|
|  Cinfv | S(rot)=       0.00832836 Eh      5.23 kcal/mol|
 --------------------------------------------------------


-------------------
GIBBS FREE ENERGY
-------------------

The Gibbs free energy is G = H - T*S

Total enthalpy                    ...   -236.81338800 Eh 
Total entropy correction          ...     -0.03980960 Eh    -24.98 kcal/mol
-----------------------------------------------------------------------
Final Gibbs free energy         ...   -236.85319760 Eh

For completeness - the Gibbs free energy minus the electronic energy
G-E(el)                           ...      0.15602317 Eh     97.91 kcal/mol


Maximum memory used throughout the entire PROP-calculation: 58.9 MB

--------------------------------
SUGGESTED CITATIONS FOR THIS RUN
--------------------------------

Below you find a list of papers that are relevant to this ORCA run
We neither can nor want to force you to cite these papers, but we appreciate if you do
You receive ORCA, which is the product of decades of hard work by many enthusiastic individuals, for free
The only thing we kindly ask in return is that you cite our papers,
We deeply appreciate it, if you show your appreciation for ORCA by not just citing the generic ORCA reference.

Please note that relegating all ORCA citations to the supporting information does *not* help us.
SI sections are not indexed - citations you put there will not count into any citation statistics
But we need these citations in order to attract the funding resources that allow us to do what we are doing

Therefore, if you are a happy ORCA user, please consider citing a few of the papers listed below in the main body of your paper

In addition to the list printed below, the program has created the file censo.bibtex that contains the list in bibtex format
You can import this file easily into all common literature databanks and citation aid programs


List of essential papers. We consider these as the minimum necessary citations

  1. Neese,F.
     Software update: the ORCA program system, version 5.0
     WIRES Comput. Molec. Sci., 2022 12(1)e1606
     doi.org/10.1002/wcms.1606
  2. Grimme,S.; Hansen,A.; Ehlert,S.; Mewes,J.
     r2SCAN-3c: A 'Swiss army knife' composite electronic-structure method
     J. Chem. Phys., 2021 154 064103
     doi.org/10.1063/5.0040021

List of papers to cite with high priority. The work reported in these papers was absolutely
necessary for this run to complete.
Our perspective: the developers of density functionals and basis sets usually get cited in chemistry papers
Good! But without the algorithms to do something with them, the functionals or basis sets would not do anything.
Hence, in our opinion, the algorithm design and method developments papers are equally worthy of getting cited

  1. Neese,F.
     An improvement of the resolution of the identity approximation for the formation of the Coulomb matrix
     J. Comp. Chem., 2003 24(14)1740-1747
     doi.org/10.1002/jcc.10318
  2. Bykov,D.; Petrenko,T.; Izsak,R.; Kossmann,S.; Becker,U.; Valeev,E.; Neese,F.
     Efficient implementation of the analytic second derivatives of Hartree-Fock and hybrid DFT energies: a detailed analysis of different approximations
     Molec. Phys., 2015 113 1961-1977
     doi.org/10.1080/00268976.2015.1025114
  3. Neese,F.
     The SHARK Integral Generation and Digestion System
     J. Comp. Chem., 2022  1-16
     doi.org/10.1002/jcc.26942
  4. Lehtola,S.; Steigemann,C.; Oliveira,M.; Marques,M.
     Recent developments in Libxc - A comprehensive library of functionals for density functional theory
     Software X, 2018 7 
     doi.org/10.1016/j.softx.2017.11.002
  5. Caldeweyher,E.; Bannwarth,C.; Grimme,S.
     Extension of the D3 dispersion coefficient model
     J. Chem. Phys., 2017 147 034112-XXXX
     doi.org/10.1063/1.4993215
  6. Caldeweyher,E.; Ehlert,S.; Hansen,A.; Neugebauer,H.; Spicher,S.; Bannwarth,C.; Grimme,S.
     A generally applicable atomic-charge dependent London dispersion correction
     J. Chem. Phys., 2019 150 154122-XXXX
     doi.org/10.1063/1.5090222
  7. Caldeweyher,E.; Mewes,J.; Ehlert,S.; Grimme,S.
     Extension and evaluation of the D4 London-dispersion model for periodic systems
     Phys. Chem. Chem. Phys., 2020 22(16)8499-8512
     doi.org/10.1039/D0CP00502A

List of suggested additional citations. These are papers that are important in the 'surrounding' of 
of this run, or papers that preceded the highly important papers. If you like your results we are grateful for a citation.

  1. Neese,F.
     The ORCA program system
     WIRES Comput. Molec. Sci., 2012 2(1)73-78
     doi.org/10.1002/wcms.81
  2. Neese,F.
     Software update: the ORCA program system, version 4.0
     WIRES Comput. Molec. Sci., 2018 8(1)1-6
     doi.org/10.1002/wcms.1327
  3. Neese,F.; Wennmohs,F.; Becker,U.; Riplinger,C.
     The ORCA quantum chemistry program package
     J. Chem. Phys., 2020 152 Art. No. L224108
     doi.org/10.1063/5.0004608

List of optional additional citations

  1. Neese,F.
     Approximate second-order SCF convergence for spin unrestricted wavefunctions
     Chem. Phys. Lett., 2000 325(1-3)93-98
     doi.org/10.1016/s0009-2614(00)00662-x

Timings for individual modules:

Sum of individual times          ...      804.689 sec (=  13.411 min)
Startup calculation              ...        1.285 sec (=   0.021 min)   0.2 %
SCF iterations                   ...       29.509 sec (=   0.492 min)   3.7 %
Property integrals               ...      493.178 sec (=   8.220 min)  61.3 %
SCF Response                     ...      132.293 sec (=   2.205 min)  16.4 %
Property calculations            ...      148.424 sec (=   2.474 min)  18.4 %
                             ****ORCA TERMINATED NORMALLY****
TOTAL RUN TIME: 0 days 0 hours 13 minutes 25 seconds 385 msec
