 Entering Gaussian System
 *********************************************
 Gaussian 98:
 frequency output generated by the xtb code
 *********************************************
                         Standard orientation:
 --------------------------------------------------------------------
  Center     Atomic     Atomic              Coordinates (Angstroms)
  Number     Number      Type              X           Y           Z
 --------------------------------------------------------------------
    1          6             0       -2.178453    0.322629    0.306372
    2          6             0       -1.004218    0.139807   -0.655740
    3          6             0        0.003789   -0.810706   -0.088195
    4          6             0        1.258625   -0.557413    0.249910
    5          6             0        1.993763    0.738003    0.135255
    6          1             0       -2.652994   -0.633853    0.515250
    7          1             0       -2.922457    0.991016   -0.121482
    8          1             0       -1.832231    0.745490    1.246950
    9          1             0       -1.378939   -0.268533   -1.599178
   10          1             0       -0.555308    1.109762   -0.867706
   11          1             0       -0.380120   -1.811821    0.067662
   12          1             0        1.855746   -1.364595    0.657601
   13          1             0        1.363460    1.540183   -0.235419
   14          1             0        2.843160    0.623119   -0.538602
   15          1             0        2.385544    1.026272    1.110731
 --------------------------------------------------------------------
     1 basis functions        1 primitive gaussians
     1 alpha electrons        1 beta electrons
 
 Harmonic frequencies (cm**-1), IR intensities (km*mol⁻¹),
 Raman scattering activities (A**4/amu), Raman depolarization ratios,
 reduced masses (AMU), force constants (mDyne/A) and normal coordinates:
                      1                      2                      3
                        a                      a                      a 
 Frequencies --    25.8826                87.5033               205.5823
 Red. masses --     7.7737                 1.3440                 2.1198
 Frc consts  --     0.0000                 0.0000                 0.0000
 IR Inten    --     0.2045                 0.4417                 0.0354
 Raman Activ --     0.0000                 0.0000                 0.0000
 Depolar     --     0.0000                 0.0000                 0.0000
 Atom AN      X      Y      Z        X      Y      Z        X      Y      Z
   1   6    -0.36  -0.28  -0.20    -0.02  -0.07   0.08     0.12   0.03  -0.00
   2   6     0.05   0.26   0.21    -0.03   0.06   0.03     0.09  -0.06  -0.02
   3   6    -0.03   0.19   0.24    -0.01   0.04  -0.05     0.00  -0.11   0.03
   4   6     0.06   0.02   0.04     0.00   0.00  -0.06    -0.04   0.02   0.10
   5   6     0.28  -0.13  -0.24     0.06  -0.03  -0.03    -0.17   0.08  -0.11
   6   1    -0.09  -0.12  -0.22     0.00  -0.03  -0.01    -0.31   0.09  -0.40
   7   1    -0.08  -0.06  -0.07    -0.01  -0.01   0.05     0.29   0.43   0.22
   8   1    -0.23  -0.18   0.03     0.00  -0.05   0.03     0.13  -0.48   0.18
   9   1     0.14   0.16  -0.03    -0.01   0.04  -0.00     0.02   0.02  -0.02
  10   1    -0.00   0.12   0.22    -0.02   0.03   0.04     0.06  -0.03   0.02
  11   1    -0.05   0.08   0.11    -0.01   0.01  -0.01    -0.00  -0.03   0.03
  12   1    -0.01  -0.01   0.02    -0.01   0.00   0.00     0.01   0.04   0.07
  13   1     0.10  -0.01  -0.05     0.17  -0.12  -0.53    -0.07  -0.01  -0.05
  14   1     0.03  -0.10  -0.13     0.35  -0.17   0.44    -0.06   0.02  -0.05
  15   1     0.17  -0.04  -0.10    -0.46   0.26   0.11    -0.04   0.07  -0.05
                      4                      5                      6
                        a                      a                      a 
 Frequencies --   249.5312               301.6683               456.9036
 Red. masses --     8.2412                 7.7376                 8.2350
 Frc consts  --     0.0000                 0.0000                 0.0000
 IR Inten    --     0.1776                 0.1541                 1.3016
 Raman Activ --     0.0000                 0.0000                 0.0000
 Depolar     --     0.0000                 0.0000                 0.0000
 Atom AN      X      Y      Z        X      Y      Z        X      Y      Z
   1   6    -0.24   0.27  -0.15     0.23  -0.05  -0.03     0.24  -0.15  -0.05
   2   6     0.09  -0.11   0.32     0.36   0.29   0.10     0.04   0.10  -0.24
   3   6     0.09  -0.18   0.22    -0.02  -0.14   0.00    -0.22   0.30   0.46
   4   6     0.26  -0.17  -0.39    -0.08  -0.17   0.16     0.06  -0.14  -0.35
   5   6    -0.15   0.11   0.04    -0.46   0.00  -0.19    -0.10  -0.04   0.06
   6   1    -0.16   0.12  -0.05     0.21  -0.07   0.06     0.14  -0.09  -0.04
   7   1     0.03   0.10  -0.19    -0.04  -0.16  -0.06    -0.01  -0.05   0.12
   8   1    -0.17   0.12  -0.03    -0.01   0.11  -0.03     0.15  -0.11  -0.01
   9   1     0.07  -0.03   0.07     0.15   0.24  -0.05     0.05  -0.10  -0.02
  10   1     0.06  -0.05   0.10     0.15   0.10   0.20    -0.02   0.02  -0.17
  11   1     0.06  -0.07   0.02    -0.08  -0.02  -0.04    -0.16   0.15   0.30
  12   1     0.17  -0.06  -0.26     0.01  -0.01   0.07    -0.02  -0.05  -0.06
  13   1    -0.10  -0.01   0.03    -0.21  -0.08  -0.10    -0.07  -0.01   0.09
  14   1     0.02   0.18   0.08    -0.15   0.03  -0.08     0.03   0.15   0.06
  15   1    -0.16  -0.00   0.07    -0.13   0.12  -0.09    -0.12  -0.11   0.09
                      7                      8                      9
                        a                      a                      a 
 Frequencies --   556.0252               752.0788               823.2381
 Red. masses --     8.0417                 2.9558                 3.0295
 Frc consts  --     0.0000                 0.0000                 0.0000
 IR Inten    --     3.8847                15.4169                 5.2053
 Raman Activ --     0.0000                 0.0000                 0.0000
 Depolar     --     0.0000                 0.0000                 0.0000
 Atom AN      X      Y      Z        X      Y      Z        X      Y      Z
   1   6    -0.16   0.03   0.04     0.12  -0.02  -0.08     0.09   0.05   0.07
   2   6    -0.14   0.11  -0.07     0.05   0.03   0.04     0.21   0.12   0.22
   3   6     0.30   0.36  -0.11    -0.13   0.11   0.27     0.01  -0.04  -0.17
   4   6     0.36  -0.32   0.26    -0.14   0.09   0.13    -0.11   0.07  -0.05
   5   6    -0.14  -0.15  -0.01    -0.05  -0.01   0.04    -0.06  -0.03  -0.04
   6   1    -0.06   0.01  -0.02     0.09  -0.05  -0.08     0.14  -0.12  -0.30
   7   1    -0.03   0.03   0.03    -0.01  -0.02   0.03     0.01  -0.12  -0.16
   8   1    -0.05  -0.02   0.03     0.02  -0.05   0.00    -0.39  -0.06   0.20
   9   1    -0.08  -0.16   0.08     0.05  -0.18   0.08    -0.25  -0.26   0.30
  10   1    -0.21   0.07  -0.22    -0.00  -0.02  -0.15     0.06  -0.08  -0.40
  11   1     0.02   0.11  -0.11     0.13  -0.12  -0.49    -0.08   0.05   0.10
  12   1     0.04  -0.15   0.04     0.15  -0.13  -0.56    -0.05   0.06   0.09
  13   1    -0.26  -0.23  -0.04     0.07   0.01  -0.09     0.06   0.07   0.03
  14   1    -0.07   0.09  -0.06    -0.08  -0.25  -0.03     0.01  -0.03   0.03
  15   1    -0.04   0.15  -0.06     0.10   0.11  -0.07    -0.04  -0.11   0.03
                     10                     11                     12
                        a                      a                      a 
 Frequencies --   905.0499               944.2618               981.5184
 Red. masses --     7.0733                 2.9144                 5.7067
 Frc consts  --     0.0000                 0.0000                 0.0000
 IR Inten    --     4.0835                 0.0480                24.0139
 Raman Activ --     0.0000                 0.0000                 0.0000
 Depolar     --     0.0000                 0.0000                 0.0000
 Atom AN      X      Y      Z        X      Y      Z        X      Y      Z
   1   6     0.21  -0.21  -0.03     0.00  -0.00  -0.03    -0.24   0.09   0.03
   2   6     0.10  -0.22   0.26    -0.03   0.01  -0.00     0.08   0.05  -0.11
   3   6     0.04   0.42  -0.14     0.07  -0.09  -0.26     0.28   0.02   0.02
   4   6    -0.12   0.18  -0.08    -0.08   0.05   0.28     0.11   0.18  -0.00
   5   6    -0.19  -0.22  -0.01     0.03   0.02   0.00    -0.40  -0.23  -0.08
   6   1    -0.24   0.13   0.13     0.00   0.00   0.01     0.04  -0.02   0.05
   7   1     0.33   0.06  -0.30    -0.01   0.00   0.02    -0.19   0.02   0.22
   8   1     0.02   0.12  -0.07     0.03  -0.00  -0.02     0.10  -0.05  -0.02
   9   1     0.10  -0.06   0.04     0.00   0.03  -0.02     0.14  -0.06  -0.04
  10   1    -0.16   0.05   0.15     0.01  -0.00   0.01     0.02   0.01  -0.05
  11   1     0.01   0.13   0.02    -0.20   0.16   0.58     0.15  -0.00   0.08
  12   1    -0.12  -0.01  -0.03     0.19  -0.17  -0.59     0.20   0.19   0.02
  13   1    -0.00  -0.01   0.01    -0.01  -0.01   0.01     0.21   0.20   0.03
  14   1    -0.04  -0.10   0.02     0.02   0.02   0.01    -0.04  -0.31   0.10
  15   1    -0.05  -0.14   0.02    -0.01   0.03   0.00    -0.07  -0.37   0.06
                     13                     14                     15
                        a                      a                      a 
 Frequencies --  1043.3644              1049.6846              1075.0211
 Red. masses --     4.3389                 5.0398                 7.0435
 Frc consts  --     0.0000                 0.0000                 0.0000
 IR Inten    --     2.0249                 1.7446                 3.1364
 Raman Activ --     0.0000                 0.0000                 0.0000
 Depolar     --     0.0000                 0.0000                 0.0000
 Atom AN      X      Y      Z        X      Y      Z        X      Y      Z
   1   6    -0.04  -0.01  -0.04     0.06   0.18  -0.07    -0.37   0.02   0.19
   2   6     0.06   0.01   0.07    -0.12  -0.19   0.06     0.52  -0.10  -0.05
   3   6    -0.04  -0.00   0.00     0.06   0.14  -0.00    -0.07   0.07  -0.13
   4   6    -0.14   0.05   0.30    -0.02   0.35  -0.06    -0.15   0.07  -0.13
   5   6     0.16  -0.06  -0.39     0.01  -0.35   0.05     0.09  -0.00   0.10
   6   1    -0.00   0.01   0.04     0.23  -0.10  -0.17    -0.09   0.02   0.15
   7   1    -0.03   0.02   0.06    -0.14  -0.06   0.10    -0.13   0.04   0.18
   8   1     0.08  -0.01  -0.04    -0.05  -0.08   0.06     0.06  -0.01   0.01
   9   1     0.11  -0.10   0.03    -0.08   0.16  -0.05     0.35  -0.24  -0.01
  10   1    -0.03   0.01  -0.03     0.24  -0.15   0.13     0.15  -0.06  -0.13
  11   1     0.01  -0.05  -0.24     0.36  -0.07   0.11    -0.10   0.06   0.00
  12   1    -0.01  -0.04  -0.07    -0.16  -0.04  -0.06    -0.22  -0.09  -0.00
  13   1    -0.07   0.04   0.20    -0.26  -0.30   0.02    -0.11  -0.13  -0.04
  14   1     0.25   0.48   0.10    -0.02   0.12  -0.04    -0.04   0.04  -0.06
  15   1    -0.31  -0.34   0.15    -0.08   0.07  -0.00     0.05   0.19  -0.04
                     16                     17                     18
                        a                      a                      a 
 Frequencies --  1087.9901              1150.2856              1240.4522
 Red. masses --     6.7775                 7.1074                 3.0811
 Frc consts  --     0.0000                 0.0000                 0.0000
 IR Inten    --     1.6654                 1.0513                 0.7989
 Raman Activ --     0.0000                 0.0000                 0.0000
 Depolar     --     0.0000                 0.0000                 0.0000
 Atom AN      X      Y      Z        X      Y      Z        X      Y      Z
   1   6     0.07   0.05  -0.42    -0.00  -0.15   0.01    -0.16  -0.27  -0.15
   2   6    -0.17   0.07   0.51     0.03   0.36  -0.08     0.11   0.19   0.09
   3   6     0.03  -0.07  -0.16     0.04  -0.39   0.13    -0.02   0.08   0.02
   4   6    -0.03  -0.03  -0.08    -0.03   0.36  -0.10     0.03  -0.04   0.02
   5   6     0.02   0.05   0.06     0.09  -0.26   0.10    -0.03  -0.00  -0.02
   6   1     0.19  -0.05   0.01    -0.16   0.07   0.11    -0.18   0.07   0.24
   7   1    -0.15   0.04   0.24     0.11   0.05  -0.07     0.06   0.10   0.05
   8   1     0.37  -0.10  -0.18     0.04   0.07  -0.06     0.25   0.04  -0.19
   9   1     0.14  -0.23   0.16    -0.03  -0.06   0.06    -0.48   0.16   0.17
  10   1    -0.16   0.04  -0.03    -0.31   0.21  -0.18     0.43  -0.19  -0.21
  11   1    -0.08   0.03   0.05     0.05  -0.11   0.05     0.17  -0.04   0.04
  12   1    -0.08   0.02   0.14     0.12   0.19  -0.02    -0.05  -0.06  -0.01
  13   1     0.00  -0.01  -0.03    -0.22  -0.27   0.00     0.03   0.04   0.01
  14   1    -0.03  -0.04  -0.02    -0.02   0.05  -0.04     0.00   0.01   0.01
  15   1     0.05   0.06  -0.02    -0.02   0.07  -0.00    -0.01   0.02  -0.01
                     19                     20                     21
                        a                      a                      a 
 Frequencies --  1284.4602              1307.2084              1373.8046
 Red. masses --     2.4344                 3.8463                 4.2914
 Frc consts  --     0.0000                 0.0000                 0.0000
 IR Inten    --     0.2437                 3.3338                14.4288
 Raman Activ --     0.0000                 0.0000                 0.0000
 Depolar     --     0.0000                 0.0000                 0.0000
 Atom AN      X      Y      Z        X      Y      Z        X      Y      Z
   1   6    -0.04   0.03  -0.06     0.06  -0.11   0.12     0.04  -0.05   0.03
   2   6     0.08  -0.22   0.05    -0.37   0.22   0.05    -0.25   0.08   0.02
   3   6    -0.07   0.10  -0.02    -0.09   0.05  -0.11     0.24  -0.18   0.12
   4   6     0.05   0.11  -0.01    -0.02  -0.08   0.01     0.20   0.26  -0.01
   5   6     0.05  -0.17   0.06     0.02  -0.09   0.03    -0.02   0.10  -0.04
   6   1     0.04  -0.01   0.02    -0.06   0.00  -0.03    -0.05   0.01  -0.01
   7   1    -0.06  -0.01   0.06     0.14   0.00  -0.14     0.03  -0.01  -0.04
   8   1     0.04  -0.04  -0.01    -0.02   0.07  -0.01    -0.01   0.03  -0.01
   9   1    -0.20   0.12   0.03     0.46  -0.22  -0.10     0.11   0.05  -0.08
  10   1     0.12  -0.09   0.07     0.45  -0.22  -0.12     0.23  -0.14  -0.11
  11   1    -0.55   0.19  -0.24     0.10  -0.03   0.04    -0.45   0.12  -0.18
  12   1     0.45   0.37   0.03     0.27   0.22   0.07    -0.36  -0.26  -0.04
  13   1    -0.08  -0.12   0.01     0.02  -0.00   0.01    -0.14  -0.09  -0.00
  14   1    -0.01   0.05  -0.03     0.00   0.08  -0.02    -0.05  -0.24  -0.01
  15   1    -0.01   0.05  -0.00     0.00   0.10  -0.03    -0.08  -0.20   0.08
                     22                     23                     24
                        a                      a                      a 
 Frequencies --  1405.5637              1410.7922              1475.8338
 Red. masses --     3.6906                 3.1343                 1.7418
 Frc consts  --     0.0000                 0.0000                 0.0000
 IR Inten    --     7.5975                 2.4316                 2.0415
 Raman Activ --     0.0000                 0.0000                 0.0000
 Depolar     --     0.0000                 0.0000                 0.0000
 Atom AN      X      Y      Z        X      Y      Z        X      Y      Z
   1   6     0.14  -0.02  -0.09     0.30  -0.06  -0.24    -0.00  -0.01   0.02
   2   6    -0.07   0.03  -0.03    -0.01   0.01   0.01    -0.02   0.09  -0.14
   3   6     0.10  -0.08   0.05    -0.04   0.05  -0.04     0.04  -0.02   0.01
   4   6     0.07   0.14  -0.01    -0.04  -0.07   0.00     0.01   0.03   0.03
   5   6    -0.24  -0.32   0.02     0.11   0.13  -0.01     0.02   0.00   0.18
   6   1    -0.14   0.10   0.10    -0.32   0.23   0.28    -0.02  -0.01  -0.06
   7   1    -0.11  -0.03   0.16    -0.25  -0.05   0.40    -0.00  -0.00   0.00
   8   1    -0.19   0.01   0.06    -0.45   0.01   0.15     0.03   0.05  -0.03
   9   1     0.01  -0.05   0.01     0.03  -0.05   0.01    -0.12  -0.30   0.17
  10   1     0.03  -0.01   0.04     0.05  -0.02   0.02     0.11   0.03   0.34
  11   1    -0.16   0.04  -0.06     0.08  -0.02   0.03    -0.03   0.01  -0.02
  12   1    -0.16  -0.11  -0.02     0.08   0.06   0.02    -0.02  -0.03  -0.02
  13   1     0.32   0.25   0.02    -0.13  -0.10   0.00     0.22  -0.06  -0.49
  14   1     0.14   0.40   0.14    -0.07  -0.17  -0.07    -0.25   0.28  -0.35
  15   1     0.25   0.30  -0.21    -0.12  -0.11   0.09    -0.09  -0.26   0.13
                     25                     26                     27
                        a                      a                      a 
 Frequencies --  1481.3383              1493.6662              1501.6889
 Red. masses --     1.7792                 1.7551                 1.5377
 Frc consts  --     0.0000                 0.0000                 0.0000
 IR Inten    --     2.4078                 1.6070                 2.5148
 Raman Activ --     0.0000                 0.0000                 0.0000
 Depolar     --     0.0000                 0.0000                 0.0000
 Atom AN      X      Y      Z        X      Y      Z        X      Y      Z
   1   6    -0.01   0.00   0.02    -0.00  -0.02   0.02     0.12   0.14   0.11
   2   6    -0.01   0.09  -0.16     0.01   0.08  -0.13     0.03   0.02   0.03
   3   6     0.05  -0.03   0.01    -0.06  -0.00  -0.03    -0.01   0.01  -0.00
   4   6     0.02   0.02  -0.03     0.03   0.01   0.00    -0.01  -0.01  -0.00
   5   6     0.11  -0.10  -0.10    -0.11   0.14  -0.07     0.00   0.00  -0.00
   6   1     0.00  -0.01  -0.05    -0.02  -0.01  -0.07    -0.45   0.20  -0.19
   7   1     0.00  -0.00  -0.02    -0.01   0.00   0.01    -0.36  -0.56  -0.25
   8   1     0.04   0.03  -0.03     0.02   0.06  -0.04     0.34  -0.22  -0.01
   9   1    -0.13  -0.33   0.19    -0.11  -0.32   0.18    -0.02   0.02   0.01
  10   1     0.09   0.05   0.39     0.13   0.02   0.36     0.01  -0.00  -0.03
  11   1    -0.04   0.01  -0.00     0.00  -0.01   0.01     0.02  -0.01   0.01
  12   1    -0.04  -0.02   0.01     0.02   0.02   0.01     0.01   0.00   0.00
  13   1    -0.00   0.20   0.46    -0.29  -0.21  -0.00    -0.00  -0.00   0.00
  14   1    -0.09  -0.24  -0.08     0.30  -0.09   0.40     0.00  -0.00   0.00
  15   1    -0.38   0.37   0.03     0.44  -0.19  -0.12     0.00  -0.00   0.00
                     28                     29                     30
                        a                      a                      a 
 Frequencies --  1506.5511              1743.3852              2947.8711
 Red. masses --     1.6131                11.5528                 1.7781
 Frc consts  --     0.0000                 0.0000                 0.0000
 IR Inten    --     2.2354                 6.8627                42.6862
 Raman Activ --     0.0000                 0.0000                 0.0000
 Depolar     --     0.0000                 0.0000                 0.0000
 Atom AN      X      Y      Z        X      Y      Z        X      Y      Z
   1   6    -0.07   0.15  -0.13     0.01  -0.00   0.00     0.01   0.01   0.01
   2   6    -0.04   0.06  -0.05     0.08  -0.02   0.04    -0.10  -0.13  -0.21
   3   6    -0.00  -0.02   0.00    -0.65  -0.05  -0.20    -0.01   0.01  -0.01
   4   6     0.02   0.01   0.00     0.64   0.21   0.15     0.00   0.00  -0.00
   5   6    -0.01   0.01   0.00    -0.07  -0.06  -0.01    -0.00   0.00   0.00
   6   1     0.19   0.04   0.56    -0.00   0.00  -0.00    -0.01  -0.02   0.01
   7   1     0.12  -0.05  -0.32    -0.00  -0.00   0.00    -0.01   0.02  -0.01
   8   1    -0.02  -0.62   0.28    -0.01   0.00   0.00    -0.02  -0.03  -0.06
   9   1    -0.00  -0.08   0.03     0.04  -0.04   0.00     0.33   0.36   0.82
  10   1     0.05   0.00   0.07    -0.05   0.02  -0.02     0.03   0.09  -0.05
  11   1    -0.00  -0.00   0.00     0.03  -0.09   0.04    -0.01  -0.03   0.01
  12   1    -0.01  -0.01  -0.00    -0.01  -0.10   0.03     0.00  -0.00   0.00
  13   1    -0.01  -0.02  -0.02     0.04   0.04   0.00     0.00   0.00   0.00
  14   1     0.01   0.01   0.01    -0.04  -0.05  -0.03     0.00  -0.00  -0.00
  15   1     0.02  -0.02  -0.00    -0.06  -0.04   0.03    -0.00  -0.00  -0.01
                     31                     32                     33
                        a                      a                      a 
 Frequencies --  2993.0846              3003.8449              3008.7675
 Red. masses --     1.9220                 1.6593                 1.5226
 Frc consts  --     0.0000                 0.0000                 0.0000
 IR Inten    --    32.8460                13.7915                33.8716
 Raman Activ --     0.0000                 0.0000                 0.0000
 Depolar     --     0.0000                 0.0000                 0.0000
 Atom AN      X      Y      Z        X      Y      Z        X      Y      Z
   1   6    -0.00  -0.00  -0.00     0.00   0.06  -0.01    -0.00   0.00   0.00
   2   6     0.00   0.00   0.00    -0.09  -0.20   0.07     0.00   0.00  -0.00
   3   6     0.00   0.00   0.00     0.01   0.02  -0.00     0.01   0.00   0.00
   4   6    -0.00   0.00   0.01     0.00  -0.00   0.00     0.00  -0.02   0.01
   5   6    -0.10   0.06   0.26    -0.02   0.02  -0.01    -0.19  -0.02  -0.09
   6   1     0.00   0.00  -0.00    -0.09  -0.17   0.04     0.00   0.00  -0.00
   7   1     0.00  -0.00   0.00     0.07  -0.05   0.04     0.00  -0.00   0.00
   8   1     0.00   0.00   0.01    -0.01  -0.00  -0.03    -0.00  -0.00  -0.00
   9   1    -0.00  -0.00  -0.01    -0.06  -0.08  -0.09     0.00   0.00   0.01
  10   1    -0.00  -0.01   0.00     0.39   0.82  -0.16    -0.01  -0.01   0.00
  11   1     0.00   0.00  -0.00    -0.04  -0.11   0.02    -0.00  -0.01   0.00
  12   1     0.00   0.00  -0.00    -0.02   0.02  -0.01    -0.05   0.07  -0.03
  13   1    -0.01   0.01   0.04     0.05  -0.06   0.03     0.00  -0.04   0.00
  14   1     0.61  -0.09  -0.46     0.00   0.00  -0.01     0.43  -0.07  -0.39
  15   1    -0.23  -0.14  -0.51    -0.00   0.00  -0.00     0.25   0.20   0.70
                     34                     35                     36
                        a                      a                      a 
 Frequencies --  3029.1449              3030.9649              3034.0794
 Red. masses --     1.9093                 1.8413                 1.7913
 Frc consts  --     0.0000                 0.0000                 0.0000
 IR Inten    --    42.6871                25.9406                38.3096
 Raman Activ --     0.0000                 0.0000                 0.0000
 Depolar     --     0.0000                 0.0000                 0.0000
 Atom AN      X      Y      Z        X      Y      Z        X      Y      Z
   1   6    -0.07   0.23  -0.10    -0.20  -0.08  -0.15    -0.04  -0.13  -0.04
   2   6     0.01   0.03  -0.01    -0.01  -0.01  -0.01    -0.02  -0.05   0.01
   3   6    -0.03  -0.08   0.01     0.02   0.05  -0.01    -0.04  -0.10   0.01
   4   6    -0.03   0.04  -0.02     0.03  -0.04   0.02    -0.11   0.13  -0.07
   5   6     0.00  -0.01   0.00    -0.00   0.01  -0.00     0.00  -0.02   0.00
   6   1    -0.24  -0.45   0.08     0.20   0.47  -0.12     0.14   0.29  -0.07
   7   1     0.48  -0.42   0.28     0.36  -0.37   0.21    -0.11   0.07  -0.07
   8   1    -0.00   0.04   0.00     0.15   0.19   0.42     0.10   0.10   0.27
   9   1     0.01   0.01   0.02     0.02   0.02   0.05     0.00   0.00   0.02
  10   1    -0.05  -0.12   0.02     0.01   0.03  -0.01     0.08   0.16  -0.03
  11   1     0.11   0.28  -0.04    -0.08  -0.21   0.03     0.15   0.39  -0.06
  12   1     0.12  -0.17   0.08    -0.12   0.16  -0.08     0.38  -0.51   0.26
  13   1    -0.04   0.05  -0.02     0.04  -0.05   0.02    -0.07   0.09  -0.04
  14   1     0.01  -0.00  -0.01    -0.02   0.00   0.01     0.04  -0.01  -0.03
  15   1     0.01   0.00   0.02    -0.01  -0.00  -0.02     0.02   0.01   0.06
                     37                     38                     39
                        a                      a                      a 
 Frequencies --  3037.4653              3048.4014              3062.3579
 Red. masses --     1.3386                 1.8276                 1.7446
 Frc consts  --     0.0000                 0.0000                 0.0000
 IR Inten    --    28.1823                65.0604                85.3444
 Raman Activ --     0.0000                 0.0000                 0.0000
 Depolar     --     0.0000                 0.0000                 0.0000
 Atom AN      X      Y      Z        X      Y      Z        X      Y      Z
   1   6     0.04  -0.02  -0.16    -0.01  -0.03   0.01     0.00   0.01  -0.00
   2   6     0.00   0.01  -0.02    -0.01  -0.03   0.00     0.01   0.02  -0.01
   3   6     0.00   0.00  -0.00    -0.08  -0.19   0.03     0.02   0.05  -0.01
   4   6     0.02  -0.03   0.02     0.08  -0.10   0.05    -0.06   0.07  -0.04
   5   6    -0.00   0.01  -0.00    -0.04   0.07  -0.03    -0.13   0.17  -0.08
   6   1    -0.20  -0.43   0.07     0.06   0.12  -0.02    -0.02  -0.04   0.01
   7   1    -0.22   0.20  -0.15    -0.02   0.02  -0.01     0.01  -0.00   0.00
   8   1     0.27   0.31   0.66    -0.01  -0.01  -0.02    -0.00  -0.00  -0.01
   9   1     0.02   0.02   0.03     0.00   0.00   0.01     0.00   0.00   0.00
  10   1    -0.02  -0.04   0.01     0.04   0.07  -0.01    -0.04  -0.09   0.02
  11   1    -0.01  -0.02   0.00     0.26   0.69  -0.11    -0.07  -0.18   0.03
  12   1    -0.08   0.11  -0.06    -0.26   0.35  -0.18     0.18  -0.24   0.12
  13   1     0.02  -0.03   0.01     0.21  -0.26   0.12     0.53  -0.64   0.30
  14   1    -0.01   0.00   0.01    -0.03   0.01   0.02    -0.03   0.02  -0.00
  15   1    -0.00   0.00  -0.00    -0.02  -0.00  -0.04    -0.02   0.02  -0.02
