      -----------------------------------------------------------      
     |                   =====================                   |     
     |                           x T B                           |     
     |                   =====================                   |     
     |                         S. Grimme                         |     
     |          Mulliken Center for Theoretical Chemistry        |     
     |                    University of Bonn                     |     
      -----------------------------------------------------------      

   * xtb version 6.7.1 (edcfbbe) compiled by 'albert@albert-system' on 2024-07-22

   xtb is free software: you can redistribute it and/or modify it under
   the terms of the GNU Lesser General Public License as published by
   the Free Software Foundation, either version 3 of the License, or
   (at your option) any later version.
   
   xtb is distributed in the hope that it will be useful,
   but WITHOUT ANY WARRANTY; without even the implied warranty of
   MERCHANTABILITY or FITNESS FOR A PARTICULAR PURPOSE.  See the
   GNU Lesser General Public License for more details.
   
   Cite this work as:
   * C. Bannwarth, E. Caldeweyher, S. Ehlert, A. Hansen, P. Pracht,
     J. Seibert, S. Spicher, S. Grimme, WIREs Comput. Mol. Sci., 2020, 11,
     e01493. DOI: 10.1002/wcms.1493
   
   for GFN2-xTB:
   * C. Bannwarth, S. Ehlert and S. Grimme., J. Chem. Theory Comput., 2019,
     15, 1652-1671. DOI: 10.1021/acs.jctc.8b01176
   for GFN1-xTB:
   * S. Grimme, C. Bannwarth, P. Shushkov, J. Chem. Theory Comput., 2017,
     13, 1989-2009. DOI: 10.1021/acs.jctc.7b00118
   for GFN0-xTB:
   * P. Pracht, E. Caldeweyher, S. Ehlert, S. Grimme, ChemRxiv, 2019, preprint.
     DOI: 10.26434/chemrxiv.8326202.v1
   for GFN-FF:
   * S. Spicher and S. Grimme, Angew. Chem. Int. Ed., 2020, 59, 15665-15673.
     DOI: 10.1002/anie.202004239
   
   for ALPB and GBSA implicit solvation:
   * S. Ehlert, M. Stahn, S. Spicher, S. Grimme, J. Chem. Theory Comput.,
     2021, 17, 4250-4261. DOI: 10.1021/acs.jctc.1c00471
   
   for ddCOSMO and CPCM-X implicit solvation:
   * M. Stahn, S. Ehlert, S. Grimme, J. Phys. Chem. A,
     2023, XX, XXXX-XXXX. DOI: 10.1021/acs.jpca.3c04382
   
   for DFT-D4:
   * E. Caldeweyher, C. Bannwarth and S. Grimme, J. Chem. Phys., 2017,
     147, 034112. DOI: 10.1063/1.4993215
   * E. Caldeweyher, S. Ehlert, A. Hansen, H. Neugebauer, S. Spicher,
     C. Bannwarth and S. Grimme, J. Chem. Phys., 2019, 150, 154122.
     DOI: 10.1063/1.5090222
   * E. Caldeweyher, J.-M. Mewes, S. Ehlert and S. Grimme, Phys. Chem. Chem. Phys.
     2020, 22, 8499-8512. DOI: 10.1039/D0CP00502A
   
   for sTDA-xTB:
   * S. Grimme and C. Bannwarth, J. Chem. Phys., 2016, 145, 054103.
     DOI: 10.1063/1.4959605
   
   in the mass-spec context:
   * V. Asgeirsson, C. Bauer and S. Grimme, Chem. Sci., 2017, 8, 4879.
     DOI: 10.1039/c7sc00601b
   * J. Koopman and S. Grimme, ACS Omega 2019, 4, 12, 15120-15133.
     DOI: 10.1021/acsomega.9b02011
   
   for metadynamics refer to:
   * S. Grimme, J. Chem. Theory Comput., 2019, 155, 2847-2862
     DOI: 10.1021/acs.jctc.9b00143
   
   for SPH calculations refer to:
   * S. Spicher and S. Grimme, J. Chem. Theory Comput., 2021, 17, 1701-1714
     DOI: 10.1021/acs.jctc.0c01306
   
   for ONIOM refer to:
   * C. Plett, A. Katbashev, S. Ehlert, S. Grimme, M. Bursch,
     Phys. Chem. Chem. Phys., 2023, 25, 17860-17868. DOI: 10.1039/D3CP02178E
   
   for DIPRO refer to:
   * J. Kohn, N. Gildemeister, S. Grimme, D. Fazzi, A. Hansen,
     J. Chem. Phys., 2023, just accepted.
   
   for PTB refer to:
   * S. Grimme, M. Mueller, A. Hansen, J. Chem. Phys., 2023, 158, 124111.
     DOI: 10.1063/5.0137838
   
   with help from (in alphabetical order)
   P. Atkinson, C. Bannwarth, F. Bohle, G. Brandenburg, E. Caldeweyher
   M. Checinski, S. Dohm, S. Ehlert, S. Ehrlich, I. Gerasimov, C. Hölzer
   A. Katbashev, J. Kohn, J. Koopman, C. Lavigne, S. Lehtola, F. März, M. Müller,
   F. Musil, H. Neugebauer, J. Pisarek, C. Plett, P. Pracht, F. Pultar,
   J. Seibert, P. Shushkov, S. Spicher, M. Stahn, M. Steiner, T. Strunk,
   J. Stückrath, T. Rose, and J. Unsleber
   
 * started run on 2025/04/15 at 20:16:33.511     
   ID    Z sym.   atoms
    1    6 C      1, 3, 5-10
    2    8 O      2, 4
    3    1 H      11-24

           -------------------------------------------------
          |                Calculation Setup                |
           -------------------------------------------------

          program call               : /software/projects/pawsey0265/mwang1/xtb/bin/xtb xtb_opt.coord --opt normal --orca -I xtb_opt-xcontrol-inp
          hostname                   : nid002568
          coordinate file            : xtb_opt.coord
          omp threads                :                   120

           -------------------------------------------------
          |                   Orca driver                   |
           -------------------------------------------------
orca executable           : /software/projects/pawsey0265/mwang1/orca_avx2/orca
orca input file           : xtb_opt.inp
orca input line           : 
orca parallel             : true
orca number of threads    : 120
                         * ORCA takes the control...
  ------------------------------------------------------------------------

                                 *****************
                                 * O   R   C   A *
                                 *****************

                                            #,                                       
                                            ###                                      
                                            ####                                     
                                            #####                                    
                                            ######                                   
                                           ########,                                 
                                     ,,################,,,,,                         
                               ,,#################################,,                 
                          ,,##########################################,,             
                       ,#########################################, ''#####,          
                    ,#############################################,,   '####,        
                  ,##################################################,,,,####,       
                ,###########''''           ''''###############################       
              ,#####''   ,,,,##########,,,,          '''####'''          '####       
            ,##' ,,,,###########################,,,                        '##       
           ' ,,###''''                  '''############,,,                           
         ,,##''                                '''############,,,,        ,,,,,,###''
      ,#''                                            '''#######################'''  
     '                                                          ''''####''''         
             ,#######,   #######,   ,#######,      ##                                
            ,#'     '#,  ##    ##  ,#'     '#,    #''#        ,####,   ,####,        
            ##       ##  ##   ,#'  ##            #'  '#       #'       #'  '#        
            ##       ##  #######   ##           ,######,      #####,   #    #        
            '#,     ,#'  ##    ##  '#,     ,#' ,#      #,     #,   #   #,  ,#        
             '#######'   ##     ##  '#######'  #'      '#     '####' # '####'        



                #########################################################
                #                        -***-                          #
                #          Department of theory and spectroscopy        #
                #                                                       #
                #                      Frank Neese                      #
                #                                                       #
                #     Directorship, Architecture, Infrastructure        #
                #                    SHARK, DRIVERS                     #
                #        Core code/Algorithms in most modules           #
                #                                                       #
                #        Max Planck Institute fuer Kohlenforschung      #
                #                Kaiser Wilhelm Platz 1                 #
                #                 D-45470 Muelheim/Ruhr                 #
                #                      Germany                          #
                #                                                       #
                #                  All rights reserved                  #
                #                        -***-                          #
                #########################################################


                         Program Version 6.0.1  -  RELEASE   -


 With contributions from (in alphabetic order):
[Max-Planck-Institut fuer Kohlenforschung]                               
  Daniel Aravena         : Magnetic Suceptibility                        
  Michael Atanasov       : Ab Initio Ligand Field Theory (pilot matlab implementation)
  Alexander A. Auer      : GIAO ZORA, VPT2 properties, NMR spectrum      
  Ute Becker             : All parallelization in ORCA, NUMFREQ, NUMCALC 
  Giovanni Bistoni       : ED, misc. LED, open-shell LED, HFLD           
  Martin Brehm           : Molecular dynamics                            
  Dmytro Bykov           : pre 5.0 version of the SCF Hessian            
  Marcos Casanova-Páez   : Triplet and SCS-CIS(D). UHF-(DLPNO)-IP/EA/STEOM-CCSD. UHF-CVS-IP/STEOM-CCSD   
  Vijay G. Chilkuri      : MRCI spin determinant printing, contributions to CSF-ICE 
  Pauline Colinet        : FMM embedding                                 
  Dipayan Datta          : RHF DLPNO-CCSD density                        
  Achintya Kumar Dutta   : EOM-CC, STEOM-CC                              
  Nicolas Foglia         : Exact transition moments, OPA infrastructure, MCD improvements    
  Dmitry Ganyushin       : Spin-Orbit,Spin-Spin,Magnetic field MRCI      
  Miquel Garcia-Rates    : C-PCM and meta-GGA Hessian, CCSD/C-PCM, Gaussian charge scheme 
  Tiago L. C. Gouveia    : GS-ROHF, GS-ROCIS                             
  Yang Guo               : DLPNO-NEVPT2, F12-NEVPT2, CIM, IAO-localization        
  Andreas Hansen         : Spin unrestricted coupled pair/coupled cluster methods 
  Ingolf Harden          : AUTO-CI MPn and infrastructure                
  Benjamin Helmich-Paris : MC-RPA, TRAH-(SCF,CASSCF), AVAS, COSX integrals, SCF dyn. polar. 
  Lee Huntington         : MR-EOM, pCC                                   
  Robert Izsak           : Overlap fitted RIJCOSX, COSX-SCS-MP3, EOM     
  Riya Kayal             : Wick's Theorem for AUTO-CI, AUTO-CI UHF-CCSDT 
  Emily Kempfer          : AUTO-CI, RHF CISDT and CCSDT                  
  Christian Kollmar      : KDIIS, OOCD, Brueckner-CCSD(T), CCSD density, CASPT2, CASPT2-K, improved NEVPT2 
  Axel Koslowski         : Symmetry handling                             
  Simone Kossmann        : meta-GGA functionals, TD-DFT gradient, OOMP2, (MP2 Hessian; deprecated post 5.0) 
  Lucas Lang             : DCDCAS                                        
  Marvin Lechner         : AUTO-CI (C++ implementation), FIC-MRCC        
  Spencer Leger          : CASSCF response                               
  Dagmar Lenk            : GEPOL surface, SMD, ORCA-2-JSON               
  Dimitrios Liakos       : Extrapolation schemes; Compound Job, initial MDCI parallelization 
  Dimitrios Manganas     : Further ROCIS development; embedding schemes. LFT, Crystal Embedding 
  Dimitrios Pantazis     : SARC Basis sets                               
  Anastasios Papadopoulos: AUTO-CI, single reference methods and gradients 
  Taras Petrenko         : pre 6.0 DFT Hessian and TD-DFT gradient, (ASA, deprecated), ECA, 1-Electron XAS/XES, NRVS 
  Peter Pinski           : DLPNO-MP2, DLPNO-MP2 Gradient                 
  Christoph Reimann      : Effective Core Potentials                     
  Marius Retegan         : Local ZFS, SOC                                
  Christoph Riplinger    : Optimizer, TS searches, QM/MM, DLPNO-CCSD(T), (RO)-DLPNO pert. Triples 
  Michael Roemelt        : Original ROCIS implementation                 
  Masaaki Saitow         : Open-shell DLPNO-CCSD energy and density      
  Barbara Sandhoefer     : DKH picture change effects                    
  Kantharuban Sivalingam : CASSCF convergence/infrastructure, NEVPT2 and variants, FIC-MRCI 
  Bernardo de Souza      : ESD, SOC TD-DFT                               
  Georgi L. Stoychev     : AutoAux, RI-MP2 NMR, DLPNO-MP2 response, X2C  
  Van Anh Tran           : RI-MP2 g-tensors                              
  Willem Van den Heuvel  : Paramagnetic NMR                              
  Zikuan Wang            : NOTCH, Electric field optimization            
  Frank Wennmohs         : Technical directorship and infrastructure     
  Hang Xu                : AUTO-CI-Response properties                   
                                                                         
[FACCTs GmbH]                                                            
  Markus Bursch, Miquel Garcia-Rates, Christoph Riplinger, Bernardo de Souza, Georgi L. Stoychev 
                                                                 
  APM, Basis sets (HGBS, AHGBS, def-TZVP (Ac-Lr), def2-XVPD (La-Lu)), CI-OPT, improved COSX, DLPNO-Multilevel,           
  DOCKER, DRACO, updates on ESD, GOAT, IRC, LR-CPCM, MBIS, meta-GGA TD-DFT gradient, ML-optimized integration grids, 
  MM, NACMEs, nearIR, NEB, NEB-TS, NL-DFT gradient (VV10), 2- and 3-layer-ONIOM, interface openCOSMO-RS, QMMM,   
  Crystal-QMMM, SF, symmetry and pop. for TD-DFT, r2SCAN hybrids, SOLVATOR                                   
                                                                         
[Other institutions]                                                     
  V. Asgeirsson          : NEB                                           
  Christoph Bannwarth    : sTDA-DFT, sTD-DFT, PBEh-3c, B97-3c, D3        
  Sebastian Ehlert       : rSCAN, r2SCAN, r2SCAN-3c, D4, dhf basis sets  
  Marvin Friede          : D4 for Fr, Ra, Ac-Lr                          
  Lars Goerigk           : TD-DFT with DH, B97 family of functionals     
  Stefan Grimme          : VdW corrections, initial TS optimization, DFT functionals, gCP, sTDA/sTD-DF 
  Waldemar Hujo          : DFT-NL                                        
  H. Jonsson             : NEB                                           
  Holger Kruse           : gCP                                           
  Marcel Mueller         : wB97X-3c, vDZP basis set                      
  Hagen Neugebauer       : wr2SCAN                                       
  Tobias Risthaus        : range-separated hybrid DFT                    
  Lukas Wittmann         : regularized MP2, r2SCAN double-hybrids, wr2SCAN        
                                                                         
We gratefully acknowledge several colleagues who have allowed us to      
interface, adapt or use parts of their codes:                            
  Ed Valeev, F. Pavosevic, A. Kumar             : LibInt (2-el integral package), F12 methods 
  Garnet Chan, S. Sharma, J. Yang, R. Olivares  : DMRG                   
  Ulf Ekstrom                                   : XCFun DFT Library      
  Mihaly Kallay                                 : mrcc  (arbitrary order and MRCC methods)
  Frank Weinhold                                : gennbo (NPA and NBO analysis)           
  Simon Mueller                                 : openCOSMO-RS                            
  Christopher J. Cramer and Donald G. Truhlar   : smd solvation model                     
  S Lehtola, MJT Oliveira, MAL Marques          : LibXC Library                           
  Liviu Ungur et al                             : ANISO software                          


 Your calculation uses the libint2 library for the computation of 2-el integrals
 For citations please refer to: http://libint.valeyev.net

 Your ORCA version has been built with support for libXC version: 6.2.2
 For citations please refer to: https://libxc.gitlab.io

 This ORCA versions uses:
   CBLAS   interface :  Fast vector & matrix operations
   LAPACKE interface :  Fast linear algebra routines
   SCALAPACK package :  Parallel linear algebra routines
   Shared memory     :  Shared parallel matrices
   BLAS/LAPACK       :  OpenBLAS 0.3.27  USE64BITINT DYNAMIC_ARCH NO_AFFINITY Zen SINGLE_THREADED
        Core in use  :  Zen
   Copyright (c) 2011-2014, The OpenBLAS Project




***************************************
The coordinates will be read from file: xtb_opt.xyz
***************************************


Your calculation utilizes the geometrical counterpoise correction gCP
Please cite in your paper:
H.Kruse, S. Grimme J.Chem.Phys., 136, (2012), 154101 
   

Your calculation utilizes the atom-pairwise dispersion correction
based on EEQ partial charges (D4)


================================================================================

----- Orbital basis set information -----
Your calculation utilizes the basis: def2-mTZVPP
   Stefan Grimme, Andreas Hansen, Sebastian Ehlert, and Jan-Michael Mewes 
   J. Chem. Phys. 154, 064103 (2021). DOI: 10.1063/5.0040021

----- AuxJ basis set information -----
Your calculation utilizes the auxiliary basis: def2/J
   F. Weigend, Phys. Chem. Chem. Phys. 8, 1057 (2006).

================================================================================
                                        WARNINGS
                       Please study these warnings very carefully!
================================================================================

WARNING: Old DensityContainer found on disk!
         Will remove this file - 
         If you want to keep old densities, please start your calculation with a different basename. 



WARNING: SCAN, rSCAN, or r2SCAN functional requested.
  ===> : libXC variant has now been activated.



================================================================================
                                       INPUT FILE
================================================================================
NAME = xtb_opt.inp
|  1> ! r2scan-3c def2/J RI DEFGRID2 scfconv7 ENGRAD tightSCF miniprint
|  2> * xyzfile 0 1 xtb_opt.xyz
|  3> 
|  4>                          ****END OF INPUT****
================================================================================

                     *******************************
                     * Energy+Gradient Calculation *
                     *******************************

---------------------------------
CARTESIAN COORDINATES (ANGSTROEM)
---------------------------------
  C     -3.060838    0.811079    0.510332
  O     -1.836090    0.778826   -0.245520
  C     -1.103745   -0.352036   -0.084610
  O     -1.438208   -1.251036    0.656740
  C      0.115410   -0.367281   -0.992649
  C      1.115309   -1.435454   -0.532524
  C      1.837707   -1.020550    0.751911
  C      2.505781    0.348592    0.605339
  C      1.496576    1.411390    0.164824
  C      0.795856    1.002728   -1.132234
  H     -3.729889    0.004070    0.185421
  H     -3.507498    1.788687    0.305678
  H     -2.855414    0.694238    1.581186
  H     -0.288231   -0.655212   -1.975511
  H      0.595174   -2.385708   -0.383548
  H      1.850119   -1.580825   -1.334541
  H      1.113883   -0.989699    1.575477
  H      2.583101   -1.779334    1.014815
  H      2.976078    0.642215    1.550377
  H      3.307989    0.283618   -0.142815
  H      0.745931    1.554003    0.954766
  H      1.994930    2.377348    0.027229
  H      0.069752    1.760410   -1.436688
  H      1.542202    0.926653   -1.933359

----------------------------
CARTESIAN COORDINATES (A.U.)
----------------------------
  NO LB      ZA    FRAG     MASS         X           Y           Z
   0 C     6.0000    0    12.011   -5.784145    1.532717    0.964388
   1 O     8.0000    0    15.999   -3.469707    1.471768   -0.463965
   2 C     6.0000    0    12.011   -2.085777   -0.665251   -0.159890
   3 O     8.0000    0    15.999   -2.717820   -2.364116    1.241059
   4 C     6.0000    0    12.011    0.218093   -0.694060   -1.875835
   5 C     6.0000    0    12.011    2.107629   -2.712616   -1.006325
   6 C     6.0000    0    12.011    3.472764   -1.928559    1.420905
   7 C     6.0000    0    12.011    4.735239    0.658743    1.143926
   8 C     6.0000    0    12.011    2.828119    2.667141    0.311473
   9 C     6.0000    0    12.011    1.503950    1.894882   -2.139613
  10 H     1.0000    0     1.008   -7.048469    0.007692    0.350395
  11 H     1.0000    0     1.008   -6.628210    3.380129    0.577648
  12 H     1.0000    0     1.008   -5.395950    1.311919    2.988008
  13 H     1.0000    0     1.008   -0.544678   -1.238171   -3.733176
  14 H     1.0000    0     1.008    1.124716   -4.508335   -0.724802
  15 H     1.0000    0     1.008    3.496218   -2.987326   -2.521918
  16 H     1.0000    0     1.008    2.104933   -1.870259    2.977219
  17 H     1.0000    0     1.008    4.881354   -3.362454    1.917723
  18 H     1.0000    0     1.008    5.623972    1.213610    2.929787
  19 H     1.0000    0     1.008    6.251193    0.535960   -0.269882
  20 H     1.0000    0     1.008    1.409605    2.936640    1.804247
  21 H     1.0000    0     1.008    3.769872    4.492537    0.051455
  22 H     1.0000    0     1.008    0.131811    3.326693   -2.714948
  23 H     1.0000    0     1.008    2.914340    1.751120   -3.653518

------------------------------------------------------------------------------
                   ___                                                        
                  /   \      - P O W E R E D   B Y -                         
                 /     \                                                     
                 |  |  |   _    _      __       _____    __    __             
                 |  |  |  | |  | |    /  \     |  _  \  |  |  /  |          
                  \  \/   | |  | |   /    \    | | | |  |  | /  /          
                 / \  \   | |__| |  /  /\  \   | |_| |  |  |/  /          
                |  |  |   |  __  | /  /__\  \  |    /   |      \           
                |  |  |   | |  | | |   __   |  |    \   |  |\   \          
                \     /   | |  | | |  |  |  |  | |\  \  |  | \   \       
                 \___/    |_|  |_| |__|  |__|  |_| \__\ |__|  \__/        
                                                                              
                      - O R C A' S   B I G   F R I E N D -                    
                                      &                                       
                       - I N T E G R A L  F E E D E R -                       
                                                                              
 v1 FN, 2020, v2 2021, v3 2022-2024                                           
------------------------------------------------------------------------------


----------------------
SHARK INTEGRAL PACKAGE
----------------------

Number of atoms                             ...     24
Number of basis functions                   ...    270
Number of shells                            ...    134
Maximum angular momentum                    ...      2
Integral batch strategy                     ... SHARK/LIBINT Hybrid
RI-J (if used) integral strategy            ... SPLIT-RIJ (Revised 2003 algorithm where possible)
Printlevel                                  ...      1
Contraction scheme used                     ... SEGMENTED contraction
Prescreening option                         ... SCHWARTZ
   Thresh                                   ... 3.000e-11
   Tcut                                     ... 1.000e-12
   Tpresel                                  ... 1.000e-12 
Coulomb Range Separation                    ... NOT USED
Exchange Range Separation                   ... NOT USED
Multipole approximations                    ... NOT USED
Finite Nucleus Model                        ... NOT USED
CABS basis                                  ... NOT available
Auxiliary Coulomb fitting basis             ... AVAILABLE
   # of basis functions in Aux-J            ...    644
   # of shells in Aux-J                     ...    220
   Maximum angular momentum in Aux-J        ...      4
Auxiliary J/K fitting basis                 ... NOT available
Auxiliary Correlation fitting basis         ... NOT available
Auxiliary 'external' fitting basis          ... NOT available

Checking pre-screening integrals            ... done (  0.0 sec) Dimension = 134
Check shell pair data                       ... done (  0.0 sec)
Shell pair information
Shell pair cut-off parameter TPreSel        ...   1.0e-12
Total number of shell pairs                 ...      9045
Shell pairs after pre-screening             ...      8088
Total number of primitive shell pairs       ...     32140
Primitive shell pairs kept                  ...     20136
          la=0 lb=0:   2700 shell pairs
          la=1 lb=0:   3081 shell pairs
          la=1 lb=1:    896 shell pairs
          la=2 lb=0:    848 shell pairs
          la=2 lb=1:    487 shell pairs
          la=2 lb=2:     76 shell pairs

Calculating one electron integrals          ... done (  0.0 sec)
Calculating RI/J V-Matrix + Cholesky decomp.... done (  0.0 sec)
Calculating Nuclear repulsion               ... done (  0.0 sec) ENN=    577.785225813293 Eh

Diagonalization of the overlap matrix:
Smallest eigenvalue                        ... 6.622e-05
Time for diagonalization                   ...    0.007 sec
Threshold for overlap eigenvalues          ... 1.000e-07
Number of eigenvalues below threshold      ... 0
Time for construction of square roots      ...    0.005 sec
Total time needed                          ...    0.013 sec

-------------------
DFT GRID GENERATION
-------------------

General Integration Accuracy     IntAcc      ... 4.388
Radial Grid Type                 RadialGrid  ... OptM3 with GC (2021)
Angular Grid (max. ang.)         AngularGrid ... 4 (Lebedev-302)
Angular grid pruning method      GridPruning ... 4 (adaptive)
Weight generation scheme         WeightScheme... mBecke (2022)
Basis function cutoff            BFCut       ... 1.0000e-11
Integration weight cutoff        WCut        ... 1.0000e-14
Partially contracted basis set               ... off
Rotationally invariant grid construction     ... off
Angular grids for H and He will be reduced by one unit
Diffuse basis detected: some atoms will have their outermost
                        angular grid increased by 1.

Total number of grid points                  ...   105093
Total number of batches                      ...     1656
Average number of points per batch           ...       63
Average number of grid points per atom       ...     4379
Initializing property integral containers    ... done (  0.0 sec)

SHARK setup successfully completed in   1.2 seconds

Maximum memory used throughout the entire STARTUP-calculation: 50.7 MB
Occupation numbers will be reassigned to an Aufbau configuration
             **** ENERGY FILE WAS UPDATED (xtb_opt.en.tmp) ****
Finished Guess after   0.1 sec
Maximum memory used throughout the entire GUESS-calculation: 21.6 MB
----------------------------------------D-I-I-S--------------------------------------------
Iteration    Energy (Eh)           Delta-E    RMSDP     MaxDP     DIISErr   Damp  Time(sec)
-------------------------------------------------------------------------------------------
               ***  Starting incremental Fock matrix formation  ***
                              *** Initializing SOSCF ***
---------------------------------------S-O-S-C-F--------------------------------------
Iteration    Energy (Eh)           Delta-E    RMSDP     MaxDP     MaxGrad    Time(sec)
--------------------------------------------------------------------------------------
    1    -463.6428240289637870     0.00e+00  1.68e-06  7.07e-05  6.42e-06     3.1
               *** Restarting incremental Fock matrix formation ***
    2    -463.6428240284976710     4.66e-10  2.33e-06  1.24e-04  1.49e-05     3.1
                  *** Gradient check signals convergence ***

               *****************************************************
               *                     SUCCESS                       *
               *           SCF CONVERGED AFTER   2 CYCLES          *
               *****************************************************

             **** ENERGY FILE WAS UPDATED (xtb_opt.en.tmp) ****

----------------
TOTAL SCF ENERGY
----------------

Total Energy       :       -463.64282402849767 Eh          -12616.36265 eV

Components:
Nuclear Repulsion  :        577.78522581329298 Eh           15722.33530 eV
Electronic Energy  :      -1041.42804984179065 Eh          -28338.69795 eV
One Electron Energy:      -1775.46007389043257 Eh          -48312.72478 eV
Two Electron Energy:        734.03202404864203 Eh           19974.02683 eV

Virial components:
Potential Energy   :       -925.11490341761305 Eh          -25173.65633 eV
Kinetic Energy     :        461.47207938911532 Eh           12557.29368 eV
Virial Ratio       :          2.00470395661262

DFT components:
N(Alpha)           :       39.000177835139 electrons
N(Beta)            :       39.000177835139 electrons
N(Total)           :       78.000355670278 electrons
E(X)               :      -63.188734631019 Eh       
E(C)               :       -2.502586741279 Eh       
E(XC)              :      -65.691321372298 Eh       

---------------
SCF CONVERGENCE
---------------

  Last Energy change         ...   -4.6612e-10  Tolerance :   1.0000e-07
  Last MAX-Density change    ...    1.2393e-04  Tolerance :   1.0000e-07
  Last RMS-Density change    ...    2.3336e-06  Tolerance :   5.0000e-09
  Last DIIS Error            ...    5.0663e-05  Tolerance :   1.0000e-07
  Last Orbital Gradient      ...    1.4860e-05  Tolerance :   1.0000e-04
  Last Orbital Rotation      ...    4.6974e-05  Tolerance :   1.0000e-04


----------------
ORBITAL ENERGIES
----------------

  NO   OCC          E(Eh)            E(eV) 
   0   2.0000     -18.998120      -516.9651 
   1   2.0000     -18.934539      -515.2350 
   2   2.0000     -10.153640      -276.2946 
   3   2.0000     -10.086930      -274.4793 
   4   2.0000     -10.049908      -273.4719 
   5   2.0000     -10.031042      -272.9585 
   6   2.0000     -10.026547      -272.8362 
   7   2.0000     -10.026341      -272.8306 
   8   2.0000     -10.023938      -272.7652 
   9   2.0000     -10.021566      -272.7007 
  10   2.0000      -1.065086       -28.9825 
  11   2.0000      -0.977396       -26.5963 
  12   2.0000      -0.804613       -21.8946 
  13   2.0000      -0.729960       -19.8632 
  14   2.0000      -0.708573       -19.2813 
  15   2.0000      -0.683407       -18.5965 
  16   2.0000      -0.595796       -16.2124 
  17   2.0000      -0.575441       -15.6586 
  18   2.0000      -0.542869       -14.7722 
  19   2.0000      -0.511422       -13.9165 
  20   2.0000      -0.464401       -12.6370 
  21   2.0000      -0.453516       -12.3408 
  22   2.0000      -0.441329       -12.0092 
  23   2.0000      -0.435055       -11.8384 
  24   2.0000      -0.410897       -11.1811 
  25   2.0000      -0.403713       -10.9856 
  26   2.0000      -0.391809       -10.6617 
  27   2.0000      -0.370314       -10.0768 
  28   2.0000      -0.349208        -9.5024 
  29   2.0000      -0.347653        -9.4601 
  30   2.0000      -0.338321        -9.2062 
  31   2.0000      -0.337395        -9.1810 
  32   2.0000      -0.320684        -8.7262 
  33   2.0000      -0.310799        -8.4573 
  34   2.0000      -0.289008        -7.8643 
  35   2.0000      -0.275558        -7.4983 
  36   2.0000      -0.271235        -7.3807 
  37   2.0000      -0.270161        -7.3515 
  38   2.0000      -0.237243        -6.4557 
  39   0.0000      -0.021045        -0.5727 
  40   0.0000       0.060284         1.6404 
  41   0.0000       0.084963         2.3119 
  42   0.0000       0.099989         2.7208 
  43   0.0000       0.111863         3.0440 
  44   0.0000       0.120181         3.2703 
  45   0.0000       0.121260         3.2997 
  46   0.0000       0.124384         3.3847 
  47   0.0000       0.140986         3.8364 
  48   0.0000       0.147718         4.0196 
  49   0.0000       0.159774         4.3477 
*Only the first 10 virtual orbitals were printed.
Total SCF time: 0 days 0 hours 0 min 6 sec 
Finished LeanSCF after   8.2 sec

Maximum memory used throughout the entire LEANSCF-calculation: 33.5 MB


-------------------------------------------------------------------------------
                          DFT DISPERSION CORRECTION                            
                                                                               
                                DFTD4 V3.4.0                                   
-------------------------------------------------------------------------------
-------------------------   ----------------
Dispersion correction           -0.007855281
-------------------------   ----------------

------------------   -----------------
gCP correction             0.012971064
------------------   -----------------

-------------------------   --------------------
FINAL SINGLE POINT ENERGY      -463.637708245583
-------------------------   --------------------

------------------------------------------------------------------------------
                         ORCA SCF GRADIENT CALCULATION
------------------------------------------------------------------------------

Nuc. rep. gradient        (SHARK) ... done (  0.0 sec)
HCore & Overlap gradient  (SHARK) ... done (  0.5 sec)
Split-RIJ-J gradient      (SHARK) ... done (  2.5 sec)
XC gradient                       ... done (  9.0 sec)
Dispersion correction             ... done (  0.0 sec)

-------------------
DISPERSION GRADIENT
-------------------

   1   C   :   -0.000117534    0.000021023    0.000032149
   2   O   :   -0.000111929    0.000034769   -0.000007357
   3   C   :   -0.000101316   -0.000021081   -0.000003193
   4   O   :   -0.000096533   -0.000080545    0.000040047
   5   C   :   -0.000001756   -0.000027332   -0.000062299
   6   C   :    0.000037686   -0.000087037   -0.000030469
   7   C   :    0.000074718   -0.000058934    0.000049955
   8   C   :    0.000104160    0.000022805    0.000039505
   9   C   :    0.000069076    0.000089003    0.000014078
  10   C   :    0.000032394    0.000061634   -0.000073845
  11   H   :   -0.000032660    0.000007922    0.000008215
  12   H   :   -0.000036321    0.000015487    0.000007776
  13   H   :   -0.000043972    0.000009408    0.000015322
  14   H   :   -0.000013279   -0.000017471   -0.000046757
  15   H   :    0.000001476   -0.000051643   -0.000005223
  16   H   :    0.000022073   -0.000037520   -0.000023231
  17   H   :    0.000024306   -0.000027919    0.000033368
  18   H   :    0.000036155   -0.000033751    0.000023610
  19   H   :    0.000039361    0.000013298    0.000032317
  20   H   :    0.000041901    0.000008280    0.000009283
  21   H   :    0.000026357    0.000042082    0.000017797
  22   H   :    0.000028621    0.000049938    0.000003632
  23   H   :   -0.000000106    0.000041588   -0.000035154
  24   H   :    0.000017122    0.000025997   -0.000039526

Difference to translation invariance:
           :   -0.0000000000   -0.0000000000   -0.0000000000

Difference to rotation invariance:
           :    0.0000000000   -0.0000000000   -0.0000000000

Norm of the Dispersion gradient    ...    0.0003925371
RMS gradient                       ...    0.0000462609
MAX gradient                       ...    0.0001175345
gCP correction                   ... done

------------------
CARTESIAN GRADIENT
------------------

   1   C   :    0.003104703   -0.000716289   -0.001704806
   2   O   :   -0.001170634    0.001249554    0.000202592
   3   C   :    0.001477108    0.002496255   -0.001516832
   4   O   :   -0.001100453   -0.003301348    0.002083479
   5   C   :    0.000171012    0.000624570    0.000027158
   6   C   :    0.000170925    0.000062414   -0.000168093
   7   C   :   -0.000221820   -0.000179116    0.000224616
   8   C   :    0.000397672    0.000109598   -0.000152394
   9   C   :   -0.000162469    0.000274157    0.000347723
  10   C   :   -0.000160776   -0.000602518   -0.000321559
  11   H   :   -0.001417324   -0.001881153   -0.000988565
  12   H   :   -0.001034605    0.002353774   -0.000425758
  13   H   :    0.000536370   -0.000350455    0.002226000
  14   H   :   -0.000008541   -0.000025957    0.000043308
  15   H   :   -0.000234073    0.000155856    0.000210132
  16   H   :   -0.000248652   -0.000072304    0.000217106
  17   H   :    0.000287109   -0.000051669   -0.000167471
  18   H   :    0.000042516    0.000173517   -0.000279886
  19   H   :   -0.000303725   -0.000056472   -0.000122880
  20   H   :   -0.000215369    0.000011094    0.000305639
  21   H   :    0.000313451   -0.000030320   -0.000290933
  22   H   :   -0.000008139   -0.000309573   -0.000168661
  23   H   :    0.000010137   -0.000013509    0.000162398
  24   H   :   -0.000224420    0.000079896    0.000257687

Difference to translation invariance:
           :    0.0000000000    0.0000000000    0.0000000000

Difference to rotation invariance:
           :    0.0007143717   -0.0001717351    0.0002150100

Norm of the Cartesian gradient     ...    0.0080356470
RMS gradient                       ...    0.0009470101
MAX gradient                       ...    0.0033013481

-------
TIMINGS
-------

Total SCF gradient time     ....       11.995 sec

Densities                   ....       0.001 sec  (  0.0%)
One electron gradient       ....       0.469 sec  (  3.9%)
RI-J Coulomb gradient       ....       2.454 sec  ( 20.5%)
XC gradient                 ....       9.025 sec  ( 75.2%)

Maximum memory used throughout the entire SCFGRAD-calculation: 41.7 MB

------------------------------------------------------------------------------
                              ORCA PROPERTY CALCULATIONS
------------------------------------------------------------------------------

GBWName                                 ... xtb_opt.gbw
Number of atoms                         ...     24
Number of basis functions               ...    270
Max core memory                         ...   1024 MB

Electric properties:
Dipole moment                           ... YES
Quadrupole moment                       ...  NO
Static polarizability (Dipole/Dipole)   ...  NO
Static polarizability (Dipole/Quad.)    ...  NO
Static polarizability (Quad./Quad.)     ...  NO
Static polarizability (Velocity)        ...  NO

Atomic electric properties:
Dipole moment                           ...  NO
Quadrupole moment                       ...  NO
Static polarizability                   ...  NO

Choice of electric origin               ... Center of mass
Position of electric origin             ...    -0.019546    -0.001426    -0.025989

General magnetic properties:
Magnetizability                         ...  NO

EPR properties:
g-Tensor (aka g-matrix)                 ...  NO
Zero-Field splitting spin-orbit         ...  NO
Zero-field splitting spin-spin          ...  NO
Hyperfine couplings                     ...  NO (   0 nuclei)
Quadrupole couplings                    ...  NO (   0 nuclei)
Contact density                         ...  NO (   0 nuclei)

NMR properties:
Chemical shifts                         ...  NO (   0 nuclei)
Spin-rotation constants                 ...  NO (   0 nuclei)
Spin-spin couplings                     ...  NO (   0 nuclei,    0 pairs)

Choice of magnetic origin               ... GIAO
Position of magnetic origin             ...     0.000000     0.000000     0.000000

Properties with geometric perturbations:
SCF Hessian                             ...  NO
IR spectrum                             ...  NO
VCD spectrum                            ...  NO
X-ray spectroscopy properties:
SCF XES/XAS/RIXS spectra                ...  NO


-------------
DIPOLE MOMENT
-------------

Method             : SCF
Type of density    : Electron Density
Multiplicity       :   1
Irrep              :   0
Energy             :  -463.6428240284976710 Eh
Relativity type    : 
Basis              : AO
                                X                 Y                 Z
Electronic contribution:     -6.080904974      -1.895289012      -0.505026205
Nuclear contribution   :      6.090306190       2.480170492       0.176322286
                        -----------------------------------------
Total Dipole Moment    :      0.009401215       0.584881479      -0.328703919
                        -----------------------------------------
Magnitude (a.u.)       :      0.670985092
Magnitude (Debye)      :      1.705508566



--------------------
Rotational spectrum 
--------------------
 
Rotational constants in cm-1:             0.075900             0.032004             0.027822 
Rotational constants in MHz :          2275.424414           959.470602           834.097078 

Dipole components along the rotational axes: 
x,y,z [a.u.] :    -0.028638     0.635712    -0.212769 
x,y,z [Debye]:    -0.072791     1.615852    -0.540816 

 

Dipole moment calculation done in   0.0 sec 

Maximum memory used throughout the entire PROP-calculation: 20.5 MB

--------------------------------
SUGGESTED CITATIONS FOR THIS RUN
--------------------------------

Below you find a list of papers that are relevant to this ORCA run
We neither can nor want to force you to cite these papers, but we appreciate if you do
You receive ORCA, which is the product of decades of hard work by many enthusiastic individuals, for free
The only thing we kindly ask in return is that you cite our papers,
We deeply appreciate it, if you show your appreciation for ORCA by not just citing the generic ORCA reference.

Please note that relegating all ORCA citations to the supporting information does *not* help us.
SI sections are not indexed - citations you put there will not count into any citation statistics
But we need these citations in order to attract the funding resources that allow us to do what we are doing

Therefore, if you are a happy ORCA user, please consider citing a few of the papers listed below in the main body of your paper

In addition to the list printed below, the program has created the file xtb_opt.bibtex that contains the list in bibtex format
You can import this file easily into all common literature databanks and citation aid programs


List of essential papers. We consider these as the minimum necessary citations

  1. Neese,F.
     Software update: the ORCA program system, version 5.0
     WIRES Comput. Molec. Sci., 2022 12(1)e1606
     doi.org/10.1002/wcms.1606
  2. Grimme,S.; Hansen,A.; Ehlert,S.; Mewes,J.
     r2SCAN-3c: A 'Swiss army knife' composite electronic-structure method
     J. Chem. Phys., 2021 154 064103
     doi.org/10.1063/5.0040021

List of papers to cite with high priority. The work reported in these papers was absolutely
necessary for this run to complete.
Our perspective: the developers of density functionals and basis sets usually get cited in chemistry papers
Good! But without the algorithms to do something with them, the functionals or basis sets would not do anything.
Hence, in our opinion, the algorithm design and method developments papers are equally worthy of getting cited

  1. Neese,F.
     An improvement of the resolution of the identity approximation for the formation of the Coulomb matrix
     J. Comp. Chem., 2003 24(14)1740-1747
     doi.org/10.1002/jcc.10318
  2. Neese,F.
     The SHARK Integral Generation and Digestion System
     J. Comp. Chem., 2022  1-16
     doi.org/10.1002/jcc.26942
  3. Lehtola,S.; Steigemann,C.; Oliveira,M.; Marques,M.
     Recent developments in Libxc - A comprehensive library of functionals for density functional theory
     Software X, 2018 7 
     doi.org/10.1016/j.softx.2017.11.002
  4. Caldeweyher,E.; Bannwarth,C.; Grimme,S.
     Extension of the D3 dispersion coefficient model
     J. Chem. Phys., 2017 147 034112
     doi.org/10.1063/1.4993215
  5. Caldeweyher,E.; Ehlert,S.; Hansen,A.; Neugebauer,H.; Spicher,S.; Bannwarth,C.; Grimme,S.
     A generally applicable atomic-charge dependent London dispersion correction
     J. Chem. Phys., 2019 150 154122
     doi.org/10.1063/1.5090222
  6. Caldeweyher,E.; Mewes,J.; Ehlert,S.; Grimme,S.
     Extension and evaluation of the D4 London-dispersion model for periodic systems
     Phys. Chem. Chem. Phys., 2020 22(16)8499-8512
     doi.org/10.1039/D0CP00502A
  7. Wittmann,L.; Gordiy,I.; Friede,M.; Helmich-Paris,B.; Grimme,S.; Hansen,A.; Bursch,M.
     Extension of the D3 and D4 London Dispersion Corrections to the full Actinides Series
     Phys. Chem. Chem. Phys., 2024 26(32)21379-21394
     doi.org/https://doi.org/10.1039/D4CP01514B 

List of suggested additional citations. These are papers that are important in the 'surrounding' of 
of this run, or papers that preceded the highly important papers. If you like your results we are grateful for a citation.

  1. Neese,F.
     The ORCA program system
     WIRES Comput. Molec. Sci., 2012 2(1)73-78
     doi.org/10.1002/wcms.81
  2. Neese,F.
     Software update: the ORCA program system, version 4.0
     WIRES Comput. Molec. Sci., 2018 8(1)1-6
     doi.org/10.1002/wcms.1327
  3. Neese,F.; Wennmohs,F.; Becker,U.; Riplinger,C.
     The ORCA quantum chemistry program package
     J. Chem. Phys., 2020 152 Art. No. L224108
     doi.org/10.1063/5.0004608

List of optional additional citations

  1. Neese,F.
     Approximate second-order SCF convergence for spin unrestricted wavefunctions
     Chem. Phys. Lett., 2000 325(1-3)93-98
     doi.org/10.1016/s0009-2614(00)00662-x

Timings for individual modules:

Sum of individual times          ...       21.893 sec (=   0.365 min)
Startup calculation              ...        1.234 sec (=   0.021 min)   5.6 %
SCF iterations                   ...        8.311 sec (=   0.139 min)  38.0 %
Property calculations            ...        0.269 sec (=   0.004 min)   1.2 %
SCF Gradient evaluation          ...       12.080 sec (=   0.201 min)  55.2 %
                             ****ORCA TERMINATED NORMALLY****
TOTAL RUN TIME: 0 days 0 hours 0 minutes 22 seconds 616 msec
  ------------------------------------------------------------------------
          * successful ORCA run, taking over control again...

         :::::::::::::::::::::::::::::::::::::::::::::::::::::
         ::                  ORCA SUMMARY                   ::
         :::::::::::::::::::::::::::::::::::::::::::::::::::::
         :: total energy            -463.637708245583 Eh    ::
         :: gradient norm              0.008035647029 Eh/a0 ::
         :: HOMO-LUMO gap              0.000000000000 eV    ::
         :::::::::::::::::::::::::::::::::::::::::::::::::::::

      ----------------------------------------------------------- 
     |                       L-ANC optimizer                     |
      ----------------------------------------------------------- 
          low memory version by Sebastian Ehlert

          ...................................................
          :                      SETUP                      :
          :.................................................:
          :   energy convergence        0.5000000E-05 Eh    :
          :   grad. convergence         0.1000000E-02 Eh/a0 :
          :   optimization log               true           :
          :   writing optlog all                1     steps :
          :   Hessian reset                     8     steps :
          :   maximium step len.        1.0000000     a0    :
          :   LBFGS images                      8           :
          ...................................................
 * calculating model hessian...
Using Lindh-Hessian (1995)
 Shifting diagonal of input Hessian by   1.000000000000000E-002
 Lowest  eigenvalues of input Hessian
    0.000000    0.000000    0.000000    0.000000    0.000000    0.000000
    0.011271    0.013158    0.014411    0.017261    0.020799    0.021502
    0.027223    0.029442    0.031285    0.033763    0.037943    0.046608
 Highest eigenvalues
    1.210240    1.251368    1.266933    1.291164    1.702191    2.277184
 

........................................................................
.............................. CYCLE    1 ..............................
........................................................................
                         * ORCA takes the control...
  ------------------------------------------------------------------------

                                 *****************
                                 * O   R   C   A *
                                 *****************

                                            #,                                       
                                            ###                                      
                                            ####                                     
                                            #####                                    
                                            ######                                   
                                           ########,                                 
                                     ,,################,,,,,                         
                               ,,#################################,,                 
                          ,,##########################################,,             
                       ,#########################################, ''#####,          
                    ,#############################################,,   '####,        
                  ,##################################################,,,,####,       
                ,###########''''           ''''###############################       
              ,#####''   ,,,,##########,,,,          '''####'''          '####       
            ,##' ,,,,###########################,,,                        '##       
           ' ,,###''''                  '''############,,,                           
         ,,##''                                '''############,,,,        ,,,,,,###''
      ,#''                                            '''#######################'''  
     '                                                          ''''####''''         
             ,#######,   #######,   ,#######,      ##                                
            ,#'     '#,  ##    ##  ,#'     '#,    #''#        ,####,   ,####,        
            ##       ##  ##   ,#'  ##            #'  '#       #'       #'  '#        
            ##       ##  #######   ##           ,######,      #####,   #    #        
            '#,     ,#'  ##    ##  '#,     ,#' ,#      #,     #,   #   #,  ,#        
             '#######'   ##     ##  '#######'  #'      '#     '####' # '####'        



                #########################################################
                #                        -***-                          #
                #          Department of theory and spectroscopy        #
                #                                                       #
                #                      Frank Neese                      #
                #                                                       #
                #     Directorship, Architecture, Infrastructure        #
                #                    SHARK, DRIVERS                     #
                #        Core code/Algorithms in most modules           #
                #                                                       #
                #        Max Planck Institute fuer Kohlenforschung      #
                #                Kaiser Wilhelm Platz 1                 #
                #                 D-45470 Muelheim/Ruhr                 #
                #                      Germany                          #
                #                                                       #
                #                  All rights reserved                  #
                #                        -***-                          #
                #########################################################


                         Program Version 6.0.1  -  RELEASE   -


 With contributions from (in alphabetic order):
[Max-Planck-Institut fuer Kohlenforschung]                               
  Daniel Aravena         : Magnetic Suceptibility                        
  Michael Atanasov       : Ab Initio Ligand Field Theory (pilot matlab implementation)
  Alexander A. Auer      : GIAO ZORA, VPT2 properties, NMR spectrum      
  Ute Becker             : All parallelization in ORCA, NUMFREQ, NUMCALC 
  Giovanni Bistoni       : ED, misc. LED, open-shell LED, HFLD           
  Martin Brehm           : Molecular dynamics                            
  Dmytro Bykov           : pre 5.0 version of the SCF Hessian            
  Marcos Casanova-Páez   : Triplet and SCS-CIS(D). UHF-(DLPNO)-IP/EA/STEOM-CCSD. UHF-CVS-IP/STEOM-CCSD   
  Vijay G. Chilkuri      : MRCI spin determinant printing, contributions to CSF-ICE 
  Pauline Colinet        : FMM embedding                                 
  Dipayan Datta          : RHF DLPNO-CCSD density                        
  Achintya Kumar Dutta   : EOM-CC, STEOM-CC                              
  Nicolas Foglia         : Exact transition moments, OPA infrastructure, MCD improvements    
  Dmitry Ganyushin       : Spin-Orbit,Spin-Spin,Magnetic field MRCI      
  Miquel Garcia-Rates    : C-PCM and meta-GGA Hessian, CCSD/C-PCM, Gaussian charge scheme 
  Tiago L. C. Gouveia    : GS-ROHF, GS-ROCIS                             
  Yang Guo               : DLPNO-NEVPT2, F12-NEVPT2, CIM, IAO-localization        
  Andreas Hansen         : Spin unrestricted coupled pair/coupled cluster methods 
  Ingolf Harden          : AUTO-CI MPn and infrastructure                
  Benjamin Helmich-Paris : MC-RPA, TRAH-(SCF,CASSCF), AVAS, COSX integrals, SCF dyn. polar. 
  Lee Huntington         : MR-EOM, pCC                                   
  Robert Izsak           : Overlap fitted RIJCOSX, COSX-SCS-MP3, EOM     
  Riya Kayal             : Wick's Theorem for AUTO-CI, AUTO-CI UHF-CCSDT 
  Emily Kempfer          : AUTO-CI, RHF CISDT and CCSDT                  
  Christian Kollmar      : KDIIS, OOCD, Brueckner-CCSD(T), CCSD density, CASPT2, CASPT2-K, improved NEVPT2 
  Axel Koslowski         : Symmetry handling                             
  Simone Kossmann        : meta-GGA functionals, TD-DFT gradient, OOMP2, (MP2 Hessian; deprecated post 5.0) 
  Lucas Lang             : DCDCAS                                        
  Marvin Lechner         : AUTO-CI (C++ implementation), FIC-MRCC        
  Spencer Leger          : CASSCF response                               
  Dagmar Lenk            : GEPOL surface, SMD, ORCA-2-JSON               
  Dimitrios Liakos       : Extrapolation schemes; Compound Job, initial MDCI parallelization 
  Dimitrios Manganas     : Further ROCIS development; embedding schemes. LFT, Crystal Embedding 
  Dimitrios Pantazis     : SARC Basis sets                               
  Anastasios Papadopoulos: AUTO-CI, single reference methods and gradients 
  Taras Petrenko         : pre 6.0 DFT Hessian and TD-DFT gradient, (ASA, deprecated), ECA, 1-Electron XAS/XES, NRVS 
  Peter Pinski           : DLPNO-MP2, DLPNO-MP2 Gradient                 
  Christoph Reimann      : Effective Core Potentials                     
  Marius Retegan         : Local ZFS, SOC                                
  Christoph Riplinger    : Optimizer, TS searches, QM/MM, DLPNO-CCSD(T), (RO)-DLPNO pert. Triples 
  Michael Roemelt        : Original ROCIS implementation                 
  Masaaki Saitow         : Open-shell DLPNO-CCSD energy and density      
  Barbara Sandhoefer     : DKH picture change effects                    
  Kantharuban Sivalingam : CASSCF convergence/infrastructure, NEVPT2 and variants, FIC-MRCI 
  Bernardo de Souza      : ESD, SOC TD-DFT                               
  Georgi L. Stoychev     : AutoAux, RI-MP2 NMR, DLPNO-MP2 response, X2C  
  Van Anh Tran           : RI-MP2 g-tensors                              
  Willem Van den Heuvel  : Paramagnetic NMR                              
  Zikuan Wang            : NOTCH, Electric field optimization            
  Frank Wennmohs         : Technical directorship and infrastructure     
  Hang Xu                : AUTO-CI-Response properties                   
                                                                         
[FACCTs GmbH]                                                            
  Markus Bursch, Miquel Garcia-Rates, Christoph Riplinger, Bernardo de Souza, Georgi L. Stoychev 
                                                                 
  APM, Basis sets (HGBS, AHGBS, def-TZVP (Ac-Lr), def2-XVPD (La-Lu)), CI-OPT, improved COSX, DLPNO-Multilevel,           
  DOCKER, DRACO, updates on ESD, GOAT, IRC, LR-CPCM, MBIS, meta-GGA TD-DFT gradient, ML-optimized integration grids, 
  MM, NACMEs, nearIR, NEB, NEB-TS, NL-DFT gradient (VV10), 2- and 3-layer-ONIOM, interface openCOSMO-RS, QMMM,   
  Crystal-QMMM, SF, symmetry and pop. for TD-DFT, r2SCAN hybrids, SOLVATOR                                   
                                                                         
[Other institutions]                                                     
  V. Asgeirsson          : NEB                                           
  Christoph Bannwarth    : sTDA-DFT, sTD-DFT, PBEh-3c, B97-3c, D3        
  Sebastian Ehlert       : rSCAN, r2SCAN, r2SCAN-3c, D4, dhf basis sets  
  Marvin Friede          : D4 for Fr, Ra, Ac-Lr                          
  Lars Goerigk           : TD-DFT with DH, B97 family of functionals     
  Stefan Grimme          : VdW corrections, initial TS optimization, DFT functionals, gCP, sTDA/sTD-DF 
  Waldemar Hujo          : DFT-NL                                        
  H. Jonsson             : NEB                                           
  Holger Kruse           : gCP                                           
  Marcel Mueller         : wB97X-3c, vDZP basis set                      
  Hagen Neugebauer       : wr2SCAN                                       
  Tobias Risthaus        : range-separated hybrid DFT                    
  Lukas Wittmann         : regularized MP2, r2SCAN double-hybrids, wr2SCAN        
                                                                         
We gratefully acknowledge several colleagues who have allowed us to      
interface, adapt or use parts of their codes:                            
  Ed Valeev, F. Pavosevic, A. Kumar             : LibInt (2-el integral package), F12 methods 
  Garnet Chan, S. Sharma, J. Yang, R. Olivares  : DMRG                   
  Ulf Ekstrom                                   : XCFun DFT Library      
  Mihaly Kallay                                 : mrcc  (arbitrary order and MRCC methods)
  Frank Weinhold                                : gennbo (NPA and NBO analysis)           
  Simon Mueller                                 : openCOSMO-RS                            
  Christopher J. Cramer and Donald G. Truhlar   : smd solvation model                     
  S Lehtola, MJT Oliveira, MAL Marques          : LibXC Library                           
  Liviu Ungur et al                             : ANISO software                          


 Your calculation uses the libint2 library for the computation of 2-el integrals
 For citations please refer to: http://libint.valeyev.net

 Your ORCA version has been built with support for libXC version: 6.2.2
 For citations please refer to: https://libxc.gitlab.io

 This ORCA versions uses:
   CBLAS   interface :  Fast vector & matrix operations
   LAPACKE interface :  Fast linear algebra routines
   SCALAPACK package :  Parallel linear algebra routines
   Shared memory     :  Shared parallel matrices
   BLAS/LAPACK       :  OpenBLAS 0.3.27  USE64BITINT DYNAMIC_ARCH NO_AFFINITY Zen SINGLE_THREADED
        Core in use  :  Zen
   Copyright (c) 2011-2014, The OpenBLAS Project




***************************************
The coordinates will be read from file: xtb_opt.xyz
***************************************


Your calculation utilizes the geometrical counterpoise correction gCP
Please cite in your paper:
H.Kruse, S. Grimme J.Chem.Phys., 136, (2012), 154101 
   

Your calculation utilizes the atom-pairwise dispersion correction
based on EEQ partial charges (D4)


================================================================================

----- Orbital basis set information -----
Your calculation utilizes the basis: def2-mTZVPP
   Stefan Grimme, Andreas Hansen, Sebastian Ehlert, and Jan-Michael Mewes 
   J. Chem. Phys. 154, 064103 (2021). DOI: 10.1063/5.0040021

----- AuxJ basis set information -----
Your calculation utilizes the auxiliary basis: def2/J
   F. Weigend, Phys. Chem. Chem. Phys. 8, 1057 (2006).

================================================================================
                                        WARNINGS
                       Please study these warnings very carefully!
================================================================================

WARNING: Old DensityContainer found on disk!
         Will remove this file - 
         If you want to keep old densities, please start your calculation with a different basename. 



WARNING: SCAN, rSCAN, or r2SCAN functional requested.
  ===> : libXC variant has now been activated.



================================================================================
                                       INPUT FILE
================================================================================
NAME = xtb_opt.inp
|  1> ! r2scan-3c def2/J RI DEFGRID2 scfconv7 ENGRAD tightSCF miniprint
|  2> * xyzfile 0 1 xtb_opt.xyz
|  3> 
|  4>                          ****END OF INPUT****
================================================================================

                     *******************************
                     * Energy+Gradient Calculation *
                     *******************************

---------------------------------
CARTESIAN COORDINATES (ANGSTROEM)
---------------------------------
  C     -3.061174    0.813027    0.512385
  O     -1.838200    0.774965   -0.248704
  C     -1.105563   -0.355065   -0.088335
  O     -1.435567   -1.248887    0.657708
  C      0.115592   -0.369038   -0.994343
  C      1.117197   -1.435766   -0.533881
  C      1.836780   -1.020599    0.752285
  C      2.505130    0.348437    0.605779
  C      1.495097    1.410862    0.165742
  C      0.795815    1.002391   -1.132310
  H     -3.731164    0.008149    0.195054
  H     -3.506250    1.787069    0.305246
  H     -2.853996    0.700953    1.580321
  H     -0.286292   -0.656908   -1.977930
  H      0.599954   -2.388081   -0.387985
  H      1.853950   -1.577824   -1.335195
  H      1.110692   -0.989008    1.574318
  H      2.580971   -1.779805    1.018213
  H      2.977198    0.642014    1.550303
  H      3.306903    0.283652   -0.143546
  H      0.743350    1.551815    0.955637
  H      1.992257    2.378147    0.030489
  H      0.069850    1.759725   -1.438246
  H      1.543356    0.926495   -1.932912

----------------------------
CARTESIAN COORDINATES (A.U.)
----------------------------
  NO LB      ZA    FRAG     MASS         X           Y           Z
   0 C     6.0000    0    12.011   -5.784781    1.536399    0.968268
   1 O     8.0000    0    15.999   -3.473695    1.464472   -0.469983
   2 C     6.0000    0    12.011   -2.089212   -0.670975   -0.166929
   3 O     8.0000    0    15.999   -2.712829   -2.360054    1.242888
   4 C     6.0000    0    12.011    0.218437   -0.697381   -1.879036
   5 C     6.0000    0    12.011    2.111197   -2.713205   -1.008889
   6 C     6.0000    0    12.011    3.471010   -1.928652    1.421613
   7 C     6.0000    0    12.011    4.734009    0.658451    1.144756
   8 C     6.0000    0    12.011    2.825323    2.666143    0.313208
   9 C     6.0000    0    12.011    1.503873    1.894245   -2.139755
  10 H     1.0000    0     1.008   -7.050879    0.015400    0.368599
  11 H     1.0000    0     1.008   -6.625853    3.377070    0.576831
  12 H     1.0000    0     1.008   -5.393270    1.324609    2.986374
  13 H     1.0000    0     1.008   -0.541014   -1.241376   -3.737747
  14 H     1.0000    0     1.008    1.133750   -4.512818   -0.733186
  15 H     1.0000    0     1.008    3.503459   -2.981655   -2.523152
  16 H     1.0000    0     1.008    2.098904   -1.868954    2.975030
  17 H     1.0000    0     1.008    4.877327   -3.363343    1.924144
  18 H     1.0000    0     1.008    5.626088    1.213231    2.929648
  19 H     1.0000    0     1.008    6.249140    0.536024   -0.271263
  20 H     1.0000    0     1.008    1.404728    2.932505    1.805892
  21 H     1.0000    0     1.008    3.764821    4.494047    0.057617
  22 H     1.0000    0     1.008    0.131997    3.325398   -2.717891
  23 H     1.0000    0     1.008    2.916519    1.750822   -3.652674

------------------------------------------------------------------------------
                   ___                                                        
                  /   \      - P O W E R E D   B Y -                         
                 /     \                                                     
                 |  |  |   _    _      __       _____    __    __             
                 |  |  |  | |  | |    /  \     |  _  \  |  |  /  |          
                  \  \/   | |  | |   /    \    | | | |  |  | /  /          
                 / \  \   | |__| |  /  /\  \   | |_| |  |  |/  /          
                |  |  |   |  __  | /  /__\  \  |    /   |      \           
                |  |  |   | |  | | |   __   |  |    \   |  |\   \          
                \     /   | |  | | |  |  |  |  | |\  \  |  | \   \       
                 \___/    |_|  |_| |__|  |__|  |_| \__\ |__|  \__/        
                                                                              
                      - O R C A' S   B I G   F R I E N D -                    
                                      &                                       
                       - I N T E G R A L  F E E D E R -                       
                                                                              
 v1 FN, 2020, v2 2021, v3 2022-2024                                           
------------------------------------------------------------------------------


----------------------
SHARK INTEGRAL PACKAGE
----------------------

Number of atoms                             ...     24
Number of basis functions                   ...    270
Number of shells                            ...    134
Maximum angular momentum                    ...      2
Integral batch strategy                     ... SHARK/LIBINT Hybrid
RI-J (if used) integral strategy            ... SPLIT-RIJ (Revised 2003 algorithm where possible)
Printlevel                                  ...      1
Contraction scheme used                     ... SEGMENTED contraction
Prescreening option                         ... SCHWARTZ
   Thresh                                   ... 3.000e-11
   Tcut                                     ... 1.000e-12
   Tpresel                                  ... 1.000e-12 
Coulomb Range Separation                    ... NOT USED
Exchange Range Separation                   ... NOT USED
Multipole approximations                    ... NOT USED
Finite Nucleus Model                        ... NOT USED
CABS basis                                  ... NOT available
Auxiliary Coulomb fitting basis             ... AVAILABLE
   # of basis functions in Aux-J            ...    644
   # of shells in Aux-J                     ...    220
   Maximum angular momentum in Aux-J        ...      4
Auxiliary J/K fitting basis                 ... NOT available
Auxiliary Correlation fitting basis         ... NOT available
Auxiliary 'external' fitting basis          ... NOT available

Checking pre-screening integrals            ... done (  0.0 sec) Dimension = 134
Check shell pair data                       ... done (  0.0 sec)
Shell pair information
Shell pair cut-off parameter TPreSel        ...   1.0e-12
Total number of shell pairs                 ...      9045
Shell pairs after pre-screening             ...      8088
Total number of primitive shell pairs       ...     32140
Primitive shell pairs kept                  ...     20131
          la=0 lb=0:   2699 shell pairs
          la=1 lb=0:   3081 shell pairs
          la=1 lb=1:    897 shell pairs
          la=2 lb=0:    848 shell pairs
          la=2 lb=1:    487 shell pairs
          la=2 lb=2:     76 shell pairs

Calculating one electron integrals          ... done (  0.1 sec)
Calculating RI/J V-Matrix + Cholesky decomp.... done (  0.0 sec)
Calculating Nuclear repulsion               ... done (  0.0 sec) ENN=    577.792492943766 Eh

Diagonalization of the overlap matrix:
Smallest eigenvalue                        ... 6.642e-05
Time for diagonalization                   ...    0.009 sec
Threshold for overlap eigenvalues          ... 1.000e-07
Number of eigenvalues below threshold      ... 0
Time for construction of square roots      ...    0.006 sec
Total time needed                          ...    0.015 sec

-------------------
DFT GRID GENERATION
-------------------

General Integration Accuracy     IntAcc      ... 4.388
Radial Grid Type                 RadialGrid  ... OptM3 with GC (2021)
Angular Grid (max. ang.)         AngularGrid ... 4 (Lebedev-302)
Angular grid pruning method      GridPruning ... 4 (adaptive)
Weight generation scheme         WeightScheme... mBecke (2022)
Basis function cutoff            BFCut       ... 1.0000e-11
Integration weight cutoff        WCut        ... 1.0000e-14
Partially contracted basis set               ... off
Rotationally invariant grid construction     ... off
Angular grids for H and He will be reduced by one unit
Diffuse basis detected: some atoms will have their outermost
                        angular grid increased by 1.

Total number of grid points                  ...   105092
Total number of batches                      ...     1655
Average number of points per batch           ...       63
Average number of grid points per atom       ...     4379
Initializing property integral containers    ... done (  0.0 sec)

SHARK setup successfully completed in   1.3 seconds

Maximum memory used throughout the entire STARTUP-calculation: 50.7 MB
Occupation numbers will be reassigned to an Aufbau configuration
             **** ENERGY FILE WAS UPDATED (xtb_opt.en.tmp) ****
Finished Guess after   0.1 sec
Maximum memory used throughout the entire GUESS-calculation: 21.6 MB
----------------------------------------D-I-I-S--------------------------------------------
Iteration    Energy (Eh)           Delta-E    RMSDP     MaxDP     DIISErr   Damp  Time(sec)
-------------------------------------------------------------------------------------------
               ***  Starting incremental Fock matrix formation  ***
                              *** Initializing SOSCF ***
---------------------------------------S-O-S-C-F--------------------------------------
Iteration    Energy (Eh)           Delta-E    RMSDP     MaxDP     MaxGrad    Time(sec)
--------------------------------------------------------------------------------------
    1    -463.6428316939561682     0.00e+00  8.11e-05  4.84e-03  2.82e-04     3.4
               *** Restarting incremental Fock matrix formation ***
    2    -463.6428915931574011    -5.99e-05  3.28e-05  6.26e-04  2.82e-04     3.1
    3    -463.6428924265669593    -8.33e-07  2.53e-05  1.16e-03  5.84e-04     2.3
    4    -463.6428948081932049    -2.38e-06  1.66e-05  5.70e-04  3.19e-04     2.3
    5    -463.6428957375594564    -9.29e-07  8.42e-06  2.73e-04  1.01e-04     2.2
    6    -463.6428962445345405    -5.07e-07  6.52e-06  2.68e-04  3.40e-05     2.2
    7    -463.6428963467669746    -1.02e-07  3.20e-06  9.95e-05  1.45e-05     2.2
                  *** Gradient check signals convergence ***

               *****************************************************
               *                     SUCCESS                       *
               *           SCF CONVERGED AFTER   7 CYCLES          *
               *****************************************************

             **** ENERGY FILE WAS UPDATED (xtb_opt.en.tmp) ****

----------------
TOTAL SCF ENERGY
----------------

Total Energy       :       -463.64289634676697 Eh          -12616.36461 eV

Components:
Nuclear Repulsion  :        577.79249294376632 Eh           15722.53305 eV
Electronic Energy  :      -1041.43538929053329 Eh          -28338.89766 eV
One Electron Energy:      -1775.47195645372130 Eh          -48313.04812 eV
Two Electron Energy:        734.03656716318801 Eh           19974.15046 eV

Virial components:
Potential Energy   :       -925.12839953350306 Eh          -25174.02357 eV
Kinetic Energy     :        461.48550318673608 Eh           12557.65896 eV
Virial Ratio       :          2.00467488825788

DFT components:
N(Alpha)           :       39.000175899904 electrons
N(Beta)            :       39.000175899904 electrons
N(Total)           :       78.000351799807 electrons
E(X)               :      -63.191417545924 Eh       
E(C)               :       -2.502578743471 Eh       
E(XC)              :      -65.693996289396 Eh       

---------------
SCF CONVERGENCE
---------------

  Last Energy change         ...    1.0223e-07  Tolerance :   1.0000e-07
  Last MAX-Density change    ...    9.9504e-05  Tolerance :   1.0000e-07
  Last RMS-Density change    ...    3.1961e-06  Tolerance :   5.0000e-09
  Last DIIS Error            ...    3.0708e-03  Tolerance :   1.0000e-07
  Last Orbital Gradient      ...    1.4494e-05  Tolerance :   1.0000e-04
  Last Orbital Rotation      ...    3.0194e-05  Tolerance :   1.0000e-04


----------------
ORBITAL ENERGIES
----------------

  NO   OCC          E(Eh)            E(eV) 
   0   2.0000     -18.997833      -516.9573 
   1   2.0000     -18.934444      -515.2324 
   2   2.0000     -10.153300      -276.2853 
   3   2.0000     -10.086209      -274.4597 
   4   2.0000     -10.049934      -273.4726 
   5   2.0000     -10.031185      -272.9624 
   6   2.0000     -10.026682      -272.8399 
   7   2.0000     -10.026479      -272.8344 
   8   2.0000     -10.024052      -272.7683 
   9   2.0000     -10.021611      -272.7019 
  10   2.0000      -1.065228       -28.9863 
  11   2.0000      -0.977882       -26.6095 
  12   2.0000      -0.804434       -21.8898 
  13   2.0000      -0.729875       -19.8609 
  14   2.0000      -0.708433       -19.2774 
  15   2.0000      -0.683875       -18.6092 
  16   2.0000      -0.595895       -16.2151 
  17   2.0000      -0.575306       -15.6549 
  18   2.0000      -0.542904       -14.7732 
  19   2.0000      -0.511543       -13.9198 
  20   2.0000      -0.464349       -12.6356 
  21   2.0000      -0.453544       -12.3416 
  22   2.0000      -0.441297       -12.0083 
  23   2.0000      -0.435036       -11.8379 
  24   2.0000      -0.410762       -11.1774 
  25   2.0000      -0.403666       -10.9843 
  26   2.0000      -0.392023       -10.6675 
  27   2.0000      -0.370688       -10.0869 
  28   2.0000      -0.349179        -9.5016 
  29   2.0000      -0.347560        -9.4576 
  30   2.0000      -0.338704        -9.2166 
  31   2.0000      -0.337633        -9.1874 
  32   2.0000      -0.320642        -8.7251 
  33   2.0000      -0.310608        -8.4521 
  34   2.0000      -0.289028        -7.8649 
  35   2.0000      -0.275605        -7.4996 
  36   2.0000      -0.271229        -7.3805 
  37   2.0000      -0.270139        -7.3509 
  38   2.0000      -0.237201        -6.4546 
  39   0.0000      -0.020232        -0.5505 
  40   0.0000       0.060157         1.6369 
  41   0.0000       0.084674         2.3041 
  42   0.0000       0.100157         2.7254 
  43   0.0000       0.111924         3.0456 
  44   0.0000       0.120162         3.2698 
  45   0.0000       0.121246         3.2993 
  46   0.0000       0.124433         3.3860 
  47   0.0000       0.141172         3.8415 
  48   0.0000       0.147725         4.0198 
  49   0.0000       0.160042         4.3550 
*Only the first 10 virtual orbitals were printed.
Total SCF time: 0 days 0 hours 0 min 17 sec 
Finished LeanSCF after  17.8 sec

Maximum memory used throughout the entire LEANSCF-calculation: 33.4 MB


-------------------------------------------------------------------------------
                          DFT DISPERSION CORRECTION                            
                                                                               
                                DFTD4 V3.4.0                                   
-------------------------------------------------------------------------------
-------------------------   ----------------
Dispersion correction           -0.007854843
-------------------------   ----------------

------------------   -----------------
gCP correction             0.012980083
------------------   -----------------

-------------------------   --------------------
FINAL SINGLE POINT ENERGY      -463.637771106965
-------------------------   --------------------

------------------------------------------------------------------------------
                         ORCA SCF GRADIENT CALCULATION
------------------------------------------------------------------------------

Nuc. rep. gradient        (SHARK) ... done (  0.0 sec)
HCore & Overlap gradient  (SHARK) ... done (  0.5 sec)
Split-RIJ-J gradient      (SHARK) ... done (  2.8 sec)
XC gradient                       ... done (  9.9 sec)
Dispersion correction             ... done (  0.0 sec)

-------------------
DISPERSION GRADIENT
-------------------

   1   C   :   -0.000117464    0.000021256    0.000032110
   2   O   :   -0.000112107    0.000034595   -0.000007406
   3   C   :   -0.000101081   -0.000021369   -0.000003439
   4   O   :   -0.000096479   -0.000080514    0.000040167
   5   C   :   -0.000001747   -0.000027417   -0.000062391
   6   C   :    0.000037785   -0.000086960   -0.000030533
   7   C   :    0.000074643   -0.000058894    0.000050005
   8   C   :    0.000104164    0.000022836    0.000039520
   9   C   :    0.000069085    0.000089021    0.000014183
  10   C   :    0.000032433    0.000061576   -0.000073856
  11   H   :   -0.000032765    0.000007716    0.000008126
  12   H   :   -0.000036471    0.000015754    0.000007726
  13   H   :   -0.000043963    0.000009425    0.000015628
  14   H   :   -0.000013281   -0.000017495   -0.000046795
  15   H   :    0.000001544   -0.000051658   -0.000005296
  16   H   :    0.000022114   -0.000037434   -0.000023207
  17   H   :    0.000024248   -0.000027918    0.000033332
  18   H   :    0.000036135   -0.000033746    0.000023675
  19   H   :    0.000039334    0.000013303    0.000032311
  20   H   :    0.000041872    0.000008297    0.000009301
  21   H   :    0.000026375    0.000042052    0.000017824
  22   H   :    0.000028597    0.000049974    0.000003703
  23   H   :   -0.000000099    0.000041590   -0.000035204
  24   H   :    0.000017127    0.000026009   -0.000039486

Difference to translation invariance:
           :    0.0000000000   -0.0000000000    0.0000000000

Difference to rotation invariance:
           :    0.0000000000   -0.0000000000   -0.0000000000

[...]
  12   2.0000      -0.804411       -21.8891 
  13   2.0000      -0.729717       -19.8566 
  14   2.0000      -0.708256       -19.2726 
  15   2.0000      -0.683886       -18.6095 
  16   2.0000      -0.595514       -16.2048 
  17   2.0000      -0.575063       -15.6483 
  18   2.0000      -0.542915       -14.7735 
  19   2.0000      -0.511613       -13.9217 
  20   2.0000      -0.464326       -12.6349 
  21   2.0000      -0.453228       -12.3330 
  22   2.0000      -0.441671       -12.0185 
  23   2.0000      -0.434839       -11.8326 
  24   2.0000      -0.410433       -11.1684 
  25   2.0000      -0.403732       -10.9861 
  26   2.0000      -0.392111       -10.6699 
  27   2.0000      -0.370585       -10.0841 
  28   2.0000      -0.349242        -9.5033 
  29   2.0000      -0.347224        -9.4484 
  30   2.0000      -0.338819        -9.2197 
  31   2.0000      -0.338014        -9.1978 
  32   2.0000      -0.320509        -8.7215 
  33   2.0000      -0.310382        -8.4459 
  34   2.0000      -0.289147        -7.8681 
  35   2.0000      -0.276000        -7.5103 
  36   2.0000      -0.270855        -7.3703 
  37   2.0000      -0.269957        -7.3459 
  38   2.0000      -0.237100        -6.4518 
  39   0.0000      -0.020284        -0.5519 
  40   0.0000       0.060167         1.6372 
  41   0.0000       0.084489         2.2991 
  42   0.0000       0.099819         2.7162 
  43   0.0000       0.111989         3.0474 
  44   0.0000       0.120208         3.2710 
  45   0.0000       0.121172         3.2973 
  46   0.0000       0.125062         3.4031 
  47   0.0000       0.141281         3.8445 
  48   0.0000       0.147500         4.0137 
  49   0.0000       0.159803         4.3485 
*Only the first 10 virtual orbitals were printed.
Total SCF time: 0 days 0 hours 0 min 10 sec 
Finished LeanSCF after  16.2 sec

Maximum memory used throughout the entire LEANSCF-calculation: 33.8 MB


-------------------------------------------------------------------------------
                          DFT DISPERSION CORRECTION                            
                                                                               
                                DFTD4 V3.4.0                                   
-------------------------------------------------------------------------------
-------------------------   ----------------
Dispersion correction           -0.007871170
-------------------------   ----------------

------------------   -----------------
gCP correction             0.012980868
------------------   -----------------

-------------------------   --------------------
FINAL SINGLE POINT ENERGY      -463.637841279544
-------------------------   --------------------

------------------------------------------------------------------------------
                         ORCA SCF GRADIENT CALCULATION
------------------------------------------------------------------------------

Nuc. rep. gradient        (SHARK) ... done (  0.0 sec)
HCore & Overlap gradient  (SHARK) ... done (  0.4 sec)
Split-RIJ-J gradient      (SHARK) ... done (  2.2 sec)
XC gradient                       ... done (  8.3 sec)
Dispersion correction             ... done (  0.0 sec)

-------------------
DISPERSION GRADIENT
-------------------

   1   C   :   -0.000117800    0.000021734    0.000032519
   2   O   :   -0.000112270    0.000033587   -0.000008926
   3   C   :   -0.000100426   -0.000021019   -0.000003594
   4   O   :   -0.000095898   -0.000079723    0.000043108
   5   C   :   -0.000001656   -0.000027472   -0.000062942
   6   C   :    0.000038113   -0.000086828   -0.000031266
   7   C   :    0.000074161   -0.000059305    0.000049545
   8   C   :    0.000104327    0.000022908    0.000039897
   9   C   :    0.000069064    0.000088848    0.000014708
  10   C   :    0.000032674    0.000061431   -0.000073929
  11   H   :   -0.000032777    0.000007543    0.000008188
  12   H   :   -0.000036621    0.000015603    0.000007306
  13   H   :   -0.000045302    0.000009954    0.000016155
  14   H   :   -0.000013325   -0.000017311   -0.000047210
  15   H   :    0.000001877   -0.000051843   -0.000005847
  16   H   :    0.000022260   -0.000037211   -0.000023489
  17   H   :    0.000023578   -0.000028273    0.000032855
  18   H   :    0.000036270   -0.000033943    0.000023525
  19   H   :    0.000039517    0.000013345    0.000032668
  20   H   :    0.000041955    0.000008471    0.000009508
  21   H   :    0.000026175    0.000041457    0.000017875
  22   H   :    0.000028788    0.000050381    0.000004159
  23   H   :   -0.000000047    0.000041547   -0.000035497
  24   H   :    0.000017362    0.000026116   -0.000039317

Difference to translation invariance:
           :    0.0000000000    0.0000000000   -0.0000000000

Difference to rotation invariance:
           :    0.0000000000   -0.0000000000    0.0000000000

Norm of the Dispersion gradient    ...    0.0003929847
RMS gradient                       ...    0.0000463137
MAX gradient                       ...    0.0001177996
gCP correction                   ... done

------------------
CARTESIAN GRADIENT
------------------

   1   C   :    0.000325896    0.000034649   -0.000233814
   2   O   :   -0.000257601   -0.000014967    0.000140170
   3   C   :    0.000120197    0.000071844   -0.000069907
   4   O   :   -0.000021487   -0.000000378   -0.000028013
   5   C   :   -0.000032946   -0.000009351   -0.000016524
   6   C   :    0.000030634   -0.000017557   -0.000037495
   7   C   :   -0.000020116    0.000021256   -0.000027621
   8   C   :   -0.000021868    0.000019666    0.000005787
   9   C   :    0.000027712    0.000038372   -0.000016494
  10   C   :   -0.000062605   -0.000036279    0.000073268
  11   H   :   -0.000083630   -0.000038988   -0.000007417
  12   H   :    0.000011824    0.000031676    0.000054019
  13   H   :    0.000012037   -0.000048450    0.000126496
  14   H   :    0.000008960   -0.000029604   -0.000007548
  15   H   :   -0.000019748   -0.000007699   -0.000010818
  16   H   :    0.000022125   -0.000013984   -0.000011909
  17   H   :   -0.000025091   -0.000018947    0.000019671
  18   H   :    0.000004308   -0.000008738   -0.000013391
  19   H   :   -0.000028651    0.000007053    0.000032111
  20   H   :    0.000015940   -0.000000678    0.000019555
  21   H   :   -0.000042388   -0.000001004   -0.000010953
  22   H   :    0.000009235    0.000014370    0.000029130
  23   H   :    0.000011343    0.000006289   -0.000007763
  24   H   :    0.000015920    0.000001449   -0.000000539

Difference to translation invariance:
           :   -0.0000000000    0.0000000000    0.0000000000

Difference to rotation invariance:
           :    0.0006702245   -0.0001983325    0.0000794552

Norm of the Cartesian gradient     ...    0.0005788301
RMS gradient                       ...    0.0000682158
MAX gradient                       ...    0.0003258960

-------
TIMINGS
-------

Total SCF gradient time     ....       11.009 sec

Densities                   ....       0.001 sec  (  0.0%)
One electron gradient       ....       0.444 sec  (  4.0%)
RI-J Coulomb gradient       ....       2.232 sec  ( 20.3%)
XC gradient                 ....       8.296 sec  ( 75.4%)

Maximum memory used throughout the entire SCFGRAD-calculation: 41.8 MB

------------------------------------------------------------------------------
                              ORCA PROPERTY CALCULATIONS
------------------------------------------------------------------------------

GBWName                                 ... xtb_opt.gbw
Number of atoms                         ...     24
Number of basis functions               ...    270
Max core memory                         ...   1024 MB

Electric properties:
Dipole moment                           ... YES
Quadrupole moment                       ...  NO
Static polarizability (Dipole/Dipole)   ...  NO
Static polarizability (Dipole/Quad.)    ...  NO
Static polarizability (Quad./Quad.)     ...  NO
Static polarizability (Velocity)        ...  NO

Atomic electric properties:
Dipole moment                           ...  NO
Quadrupole moment                       ...  NO
Static polarizability                   ...  NO

Choice of electric origin               ... Center of mass
Position of electric origin             ...    -0.018223    -0.002847    -0.029209

General magnetic properties:
Magnetizability                         ...  NO

EPR properties:
g-Tensor (aka g-matrix)                 ...  NO
Zero-Field splitting spin-orbit         ...  NO
Zero-field splitting spin-spin          ...  NO
Hyperfine couplings                     ...  NO (   0 nuclei)
Quadrupole couplings                    ...  NO (   0 nuclei)
Contact density                         ...  NO (   0 nuclei)

NMR properties:
Chemical shifts                         ...  NO (   0 nuclei)
Spin-rotation constants                 ...  NO (   0 nuclei)
Spin-spin couplings                     ...  NO (   0 nuclei,    0 pairs)

Choice of magnetic origin               ... GIAO
Position of magnetic origin             ...     0.000000     0.000000     0.000000

Properties with geometric perturbations:
SCF Hessian                             ...  NO
IR spectrum                             ...  NO
VCD spectrum                            ...  NO
X-ray spectroscopy properties:
SCF XES/XAS/RIXS spectra                ...  NO


-------------
DIPOLE MOMENT
-------------

Method             : SCF
Type of density    : Electron Density
Multiplicity       :   1
Irrep              :   0
Energy             :  -463.6429509778329248 Eh
Relativity type    : 
Basis              : AO
                                X                 Y                 Z
Electronic contribution:     -6.083427993      -1.922883160      -0.549843311
Nuclear contribution   :      6.078914656       2.501525112       0.218368630
                        -----------------------------------------
Total Dipole Moment    :     -0.004513336       0.578641953      -0.331474681
                        -----------------------------------------
Magnitude (a.u.)       :      0.666875059
Magnitude (Debye)      :      1.695061690



--------------------
Rotational spectrum 
--------------------
 
Rotational constants in cm-1:             0.075874             0.032084             0.028044 
Rotational constants in MHz :          2274.635143           961.846604           840.742452 

Dipole components along the rotational axes: 
x,y,z [a.u.] :    -0.047164     0.630925    -0.210789 
x,y,z [Debye]:    -0.119881     1.603683    -0.535784 

 

Dipole moment calculation done in   3.0 sec 

Maximum memory used throughout the entire PROP-calculation: 20.6 MB

--------------------------------
SUGGESTED CITATIONS FOR THIS RUN
--------------------------------

Below you find a list of papers that are relevant to this ORCA run
We neither can nor want to force you to cite these papers, but we appreciate if you do
You receive ORCA, which is the product of decades of hard work by many enthusiastic individuals, for free
The only thing we kindly ask in return is that you cite our papers,
We deeply appreciate it, if you show your appreciation for ORCA by not just citing the generic ORCA reference.

Please note that relegating all ORCA citations to the supporting information does *not* help us.
SI sections are not indexed - citations you put there will not count into any citation statistics
But we need these citations in order to attract the funding resources that allow us to do what we are doing

Therefore, if you are a happy ORCA user, please consider citing a few of the papers listed below in the main body of your paper

In addition to the list printed below, the program has created the file xtb_opt.bibtex that contains the list in bibtex format
You can import this file easily into all common literature databanks and citation aid programs


List of essential papers. We consider these as the minimum necessary citations

  1. Neese,F.
     Software update: the ORCA program system, version 5.0
     WIRES Comput. Molec. Sci., 2022 12(1)e1606
     doi.org/10.1002/wcms.1606
  2. Grimme,S.; Hansen,A.; Ehlert,S.; Mewes,J.
     r2SCAN-3c: A 'Swiss army knife' composite electronic-structure method
     J. Chem. Phys., 2021 154 064103
     doi.org/10.1063/5.0040021

List of papers to cite with high priority. The work reported in these papers was absolutely
necessary for this run to complete.
Our perspective: the developers of density functionals and basis sets usually get cited in chemistry papers
Good! But without the algorithms to do something with them, the functionals or basis sets would not do anything.
Hence, in our opinion, the algorithm design and method developments papers are equally worthy of getting cited

  1. Neese,F.
     An improvement of the resolution of the identity approximation for the formation of the Coulomb matrix
     J. Comp. Chem., 2003 24(14)1740-1747
     doi.org/10.1002/jcc.10318
  2. Neese,F.
     The SHARK Integral Generation and Digestion System
     J. Comp. Chem., 2022  1-16
     doi.org/10.1002/jcc.26942
  3. Lehtola,S.; Steigemann,C.; Oliveira,M.; Marques,M.
     Recent developments in Libxc - A comprehensive library of functionals for density functional theory
     Software X, 2018 7 
     doi.org/10.1016/j.softx.2017.11.002
  4. Caldeweyher,E.; Bannwarth,C.; Grimme,S.
     Extension of the D3 dispersion coefficient model
     J. Chem. Phys., 2017 147 034112
     doi.org/10.1063/1.4993215
  5. Caldeweyher,E.; Ehlert,S.; Hansen,A.; Neugebauer,H.; Spicher,S.; Bannwarth,C.; Grimme,S.
     A generally applicable atomic-charge dependent London dispersion correction
     J. Chem. Phys., 2019 150 154122
     doi.org/10.1063/1.5090222
  6. Caldeweyher,E.; Mewes,J.; Ehlert,S.; Grimme,S.
     Extension and evaluation of the D4 London-dispersion model for periodic systems
     Phys. Chem. Chem. Phys., 2020 22(16)8499-8512
     doi.org/10.1039/D0CP00502A
  7. Wittmann,L.; Gordiy,I.; Friede,M.; Helmich-Paris,B.; Grimme,S.; Hansen,A.; Bursch,M.
     Extension of the D3 and D4 London Dispersion Corrections to the full Actinides Series
     Phys. Chem. Chem. Phys., 2024 26(32)21379-21394
     doi.org/https://doi.org/10.1039/D4CP01514B 

List of suggested additional citations. These are papers that are important in the 'surrounding' of 
of this run, or papers that preceded the highly important papers. If you like your results we are grateful for a citation.

  1. Neese,F.
     The ORCA program system
     WIRES Comput. Molec. Sci., 2012 2(1)73-78
     doi.org/10.1002/wcms.81
  2. Neese,F.
     Software update: the ORCA program system, version 4.0
     WIRES Comput. Molec. Sci., 2018 8(1)1-6
     doi.org/10.1002/wcms.1327
  3. Neese,F.; Wennmohs,F.; Becker,U.; Riplinger,C.
     The ORCA quantum chemistry program package
     J. Chem. Phys., 2020 152 Art. No. L224108
     doi.org/10.1063/5.0004608

List of optional additional citations

  1. Neese,F.
     Approximate second-order SCF convergence for spin unrestricted wavefunctions
     Chem. Phys. Lett., 2000 325(1-3)93-98
     doi.org/10.1016/s0009-2614(00)00662-x

Timings for individual modules:

Sum of individual times          ...       33.515 sec (=   0.559 min)
Startup calculation              ...        1.154 sec (=   0.019 min)   3.4 %
SCF iterations                   ...       16.311 sec (=   0.272 min)  48.7 %
Property calculations            ...        3.103 sec (=   0.052 min)   9.3 %
SCF Gradient evaluation          ...       12.947 sec (=   0.216 min)  38.6 %
                             ****ORCA TERMINATED NORMALLY****
TOTAL RUN TIME: 0 days 0 hours 0 minutes 44 seconds 217 msec
  ------------------------------------------------------------------------
          * successful ORCA run, taking over control again...

         :::::::::::::::::::::::::::::::::::::::::::::::::::::
         ::                  ORCA SUMMARY                   ::
         :::::::::::::::::::::::::::::::::::::::::::::::::::::
         :: total energy            -463.637841279544 Eh    ::
         :: gradient norm              0.000578830066 Eh/a0 ::
         :: HOMO-LUMO gap              0.000000000000 eV    ::
         :::::::::::::::::::::::::::::::::::::::::::::::::::::

           -------------------------------------------------
          |                Property Printout                |
           -------------------------------------------------
           -------------------------------------------------
          |                Geometry Summary                 |
           -------------------------------------------------

      molecular mass/u    :      142.1958675
   center of mass at/Å    :       -0.0096621      -0.0015097      -0.0154546
  moments of inertia/u·Å² :        0.2221758E+03   0.5254154E+03   0.6011000E+03
rotational constants/cm⁻¹ :        0.7587518E-01   0.3208439E-01   0.2804464E-01

 * 23 selected distances

     #   Z          #   Z                                           value/Å
     1   6 C        2   8 O                                       1.4417739
     2   8 O        3   6 C                                       1.3561474
     3   6 C        4   8 O                                       1.2096507
     5   6 C        6   6 C                                       1.5340143
     6   6 C        7   6 C                                       1.5315605
     7   6 C        8   6 C                                       1.5305019
     8   6 C        9   6 C                                       1.5306594
     5   6 C       10   6 C                                       1.5385250 (max)
     9   6 C       10   6 C                                       1.5297720
     1   6 C       11   1 H                                       1.0934243
     1   6 C       12   1 H                                       1.0900447 (min)
     1   6 C       13   1 H                                       1.0933308
     5   6 C       14   1 H                                       1.1004572
     6   6 C       15   1 H                                       1.0936660
     6   6 C       16   1 H                                       1.0980441
     7   6 C       17   1 H                                       1.0969702
     7   6 C       18   1 H                                       1.0959251
     8   6 C       19   1 H                                       1.0960673
     8   6 C       20   1 H                                       1.0995056
     9   6 C       21   1 H                                       1.0999160
     9   6 C       22   1 H                                       1.0960185
    10   6 C       23   1 H                                       1.0927845
    10   6 C       24   1 H                                       1.0981119

 * 3 distinct bonds (by element types)

   Z      Z             #   av. dist./Å        max./Å        min./Å
   1 H    6 C          14     1.0960190     1.1004572     1.0900447
   6 C    6 C           6     1.5325055     1.5385250     1.5297720
   6 C    8 O           3     1.3358573     1.4417739     1.2096507


optimized geometry written to: xtbopt.coord


           -------------------------------------------------
          | TOTAL ENERGY             -463.637841279544 Eh   |
          | GRADIENT NORM               0.000578830066 Eh/α |
           -------------------------------------------------

------------------------------------------------------------------------
 * finished run on 2025/04/15 at 20:24:42.255     
------------------------------------------------------------------------
 total:
 * wall-time:     0 d,  0 h,  8 min,  8.743 sec
 *  cpu-time:     0 d,  0 h,  0 min, 25.738 sec
 * ratio c/w:     0.053 speedup
 SCF:
 * wall-time:     0 d,  0 h,  0 min, 22.649 sec
 *  cpu-time:     0 d,  0 h,  0 min,  8.769 sec
 * ratio c/w:     0.387 speedup
 ANC optimizer:
 * wall-time:     0 d,  0 h,  7 min, 45.175 sec
 *  cpu-time:     0 d,  0 h,  0 min, 10.741 sec
 * ratio c/w:     0.023 speedup

