24
 energy: -463.637708245583 gnorm: 0.008035647029 xtb: 6.7.1 (edcfbbe)
C           -3.06083770092483        0.81107901291517        0.51033236527542
O           -1.83608970122040        0.77882583393132       -0.24551994509163
C           -1.10374540658954       -0.35203578860260       -0.08460991246154
O           -1.43820829778238       -1.25103618800925        0.65673998094208
C            0.11540964633676       -0.36728095309991       -0.99264922857085
C            1.11530907105008       -1.43545433164158       -0.53252422415061
C            1.83770737996965       -1.02054970354451        0.75191079957620
C            2.50578054648899        0.34859199460362        0.60533943528503
C            1.49657607816617        1.41139027634840        0.16482419072318
C            0.79585583586803        1.00272841288386       -1.13223425260652
H           -3.72988926264813        0.00407024192736        0.18542096573293
H           -3.50749752347469        1.78868729827097        0.30567828620813
H           -2.85541362568296        0.69423767586696        1.58118583780121
H           -0.28823101935084       -0.65521161061475       -1.97551144450204
H            0.59517393955097       -2.38570812247684       -0.38354844776231
H            1.85011900463973       -1.58082483397842       -1.33454138084350
H            1.11388254517758       -0.98969868598928        1.57547660393980
H            2.58310120010999       -1.77933417615456        1.01481523124523
H            2.97607759943580        0.64221475554302        1.55037658533257
H            3.30798865805160        0.28361789018689       -0.14281521840160
H            0.74593087146530        1.55400275674227        0.95476614366043
H            1.99493021956144        2.37734842959870        0.02722891269269
H            0.06975152164877        1.76040988154253       -1.43668842180475
H            1.54220223952772        0.92665269037668       -1.93335862219679
24
 energy: -463.637771106965 gnorm: 0.002322072407 xtb: 6.7.1 (edcfbbe)
C           -3.06117444821441        0.81302721385913        0.51238523960677
O           -1.83820038769556        0.77496518745748       -0.24870419192164
C           -1.10556316122340       -0.35506474371333       -0.08833508909735
O           -1.43556704735274       -1.24888676395535        0.65770818304725
C            0.11559183224022       -0.36903799628701       -0.99434279093073
C            1.11719735173062       -1.43576614260044       -0.53388116499579
C            1.83677950878768       -1.02059851462908        0.75228509033827
C            2.50512991391875        0.34843712816387        0.60577899723174
C            1.49509657928351        1.41086195167713        0.16574236302013
C            0.79581545240428        1.00239141028774       -1.13230972434455
H           -3.73116440118999        0.00814918535963        0.19505445179027
H           -3.50625029599296        1.78706859973081        0.30524576227963
H           -2.85399550474478        0.70095299798556        1.58032083538048
H           -0.28629243183025       -0.65690788710593       -1.97793041459448
H            0.59995444044106       -2.38808055674132       -0.38798548636900
H            1.85395041563694       -1.57782400855043       -1.33519470772772
H            1.11069211142166       -0.98900771148119        1.57431826106732
H            2.58097051537238       -1.77980462364519        1.01821320513876
H            2.97719763180045        0.64201429979578        1.55030292008288
H            3.30690259672702        0.28365158042277       -0.14354614147593
H            0.74334989596767        1.55181481668870        0.95563706617666
H            1.99225728390220        2.37814712937529        0.03048947001009
H            0.06984991154523        1.75972467538904       -1.43824574726375
H            1.54335564144639        0.92649511746220       -1.93291207904355
24
 energy: -463.637790368826 gnorm: 0.001552502833 xtb: 6.7.1 (edcfbbe)
C           -3.06083844859871        0.81434264473125        0.51355808027265
O           -1.83999462751015        0.77121087810386       -0.25299345365054
C           -1.10409077650706       -0.35556124663730       -0.08733300877849
O           -1.43257060186505       -1.24748563192114        0.66024665440525
C            0.11559595667170       -0.37038466796903       -0.99618841751192
C            1.11856136914049       -1.43606444104088       -0.53562829364282
C            1.83523614662873       -1.02095094881936        0.75237129943463
C            2.50379414763338        0.34792711910649        0.60620428895133
C            1.49287081235367        1.40990739663071        0.16694037863138
C            0.79560849661280        1.00223196100626       -1.13246316388031
H           -3.73137317123123        0.00846406867465        0.20514308860370
H           -3.50489179823751        1.78598170637624        0.30115932888564
H           -2.84844474615896        0.71012585136721        1.57992832075555
H           -0.28515987086518       -0.65724304562179       -1.98052456813378
H            0.60457934335556       -2.39070682246477       -0.39311280459300
H            1.85741662904163       -1.57396323831537       -1.33607714206626
H            1.10670418684520       -0.98824730905024        1.57246706452871
H            2.57808335449843       -1.78052352271316        1.02148483158044
H            2.97746467122006        0.64144753666919        1.55013613647202
H            3.30482531696895        0.28340456084006       -0.14435392775649
H            0.73997217082568        1.54842132643257        0.95660649308600
H            1.98842858347659        2.37858271815480        0.03422752099438
H            0.06969877229624        1.75923418761176       -1.43945752579706
H            1.54440721981714        0.92657088824789       -1.93224686629003
24
 energy: -463.637808006681 gnorm: 0.002181238545 xtb: 6.7.1 (edcfbbe)
C           -3.05824218459578        0.81699331456857        0.51567286590686
O           -1.84351348134568        0.76496696410692       -0.26292936685387
C           -1.10463405110645       -0.35857008960507       -0.09061514997164
O           -1.42629737588751       -1.24439650802265        0.66722076195471
C            0.11591632835753       -0.37249194362148       -0.99944948995664
C            1.12102484218847       -1.43623065394456       -0.53879004989158
C            1.83226694877889       -1.02169258031865        0.75251438279181
C            2.50075367148250        0.34711103656645        0.60737649810333
C            1.48833782688073        1.40813570389936        0.16911827973081
C            0.79517516296396        1.00180005404456       -1.13282221388159
H           -3.73068909048355        0.00677577253521        0.22398319988337
H           -3.50280157914245        1.78588780219379        0.29365746983930
H           -2.83362906368082        0.72735558775061        1.58081176500053
H           -0.28287159071493       -0.65813638656489       -1.98470050107937
H            0.61180215318732       -2.39436400882141       -0.40206720635514
H            1.86367114519612       -1.56734284339393       -1.33719364662800
H            1.09973091999436       -0.98767152933148        1.56908110500415
H            2.57317497416882       -1.78159372409890        1.02621201731249
H            2.97593066067116        0.64043260303780        1.55068663027250
H            3.30074267720993        0.28334378592749       -0.14460214905240
H            0.73323941891195        1.54183611883591        0.95783492720309
H            1.98103964929448        2.37900021044791        0.04089952006830
H            0.06915862603562        1.75803437332766       -1.44136837223930
H            1.54659583003906        0.92753803757505       -1.93043693128251
24
 energy: -463.637817992333 gnorm: 0.001391673024 xtb: 6.7.1 (edcfbbe)
C           -3.05555421385903        0.81832841338428        0.51575887369769
O           -1.84541224212222        0.76184916355252       -0.27001654762386
C           -1.10282259524361       -0.35810822100206       -0.09104213578029
O           -1.42087486159081       -1.24077311062893        0.67265209387368
C            0.11641220064509       -0.37344973560622       -1.00158555678153
C            1.12207381986880       -1.43658047990432       -0.54102500908689
C            1.83046824908538       -1.02263430804606        0.75201971837832
C            2.49844695809480        0.34652146953755        0.60849552416379
C            1.48530666955899        1.40699482620264        0.17066272183178
C            0.79477448457358        1.00153177734415       -1.13288490038116
H           -3.72835542001675        0.00301855338803        0.23673068686990
H           -3.50417301956338        1.78465530043253        0.28716840953468
H           -2.82281090913296        0.73989250366617        1.58078044495699
H           -0.28241412411616       -0.65815787875205       -1.98700287580782
H            0.61435506076966       -2.39586557771697       -0.40696404242229
H            1.86638914567462       -1.56465098183754       -1.33827525010139
H            1.09617197777699       -0.98894259942858        1.56680435456478
H            2.57089965175650       -1.78240146033267        1.02697792758005
H            2.97309415983152        0.63946185706288        1.55206918562979
H            3.29841743645964        0.28378271448290       -0.14344114153419
H            0.72882682705979        1.53775652189703        0.95841202907607
H            1.97649733870499        2.37882235751234        0.04491844635326
H            0.06864403209683        1.75737196104373       -1.44195093204714
H            1.54752160167700        0.92829758784146       -1.92916771282571
24
 energy: -463.637826282933 gnorm: 0.001664316183 xtb: 6.7.1 (edcfbbe)
C           -3.05131967532860        0.81979147370090        0.51539224827612
O           -1.84836777811012        0.75828803372888       -0.27935787895595
C           -1.10039720902682       -0.35685023163896       -0.09187045512739
O           -1.41244820355915       -1.23406275012853        0.68132704952802
C            0.11703515268403       -0.37374027401820       -1.00418405562625
C            1.12254725746231       -1.43688307370567       -0.54399659431348
C            1.82868054168888       -1.02465257834944        0.75075998801934
C            2.49498945745932        0.34571644523915        0.61069448657988
C            1.48122882492672        1.40541575396726        0.17251045356242
C            0.79487988694531        1.00129250279913       -1.13362267876028
H           -3.72259649344921       -0.00418774119250        0.25516456104429
H           -3.50865370207587        1.78092025492450        0.27684429642985
H           -2.80793326498419        0.75873601266612        1.58011020055868
H           -0.28258478462741       -0.65712949506862       -1.98959623125587
H            0.61519775352210       -2.39657014799652       -0.41217411991028
H            1.86808579703300       -1.56286416790442       -1.34012795398481
H            1.09314349012053       -0.99339611268421        1.56405333723296
H            2.56977070415442       -1.78376626846033        1.02502573751284
H            2.96689068760315        0.63777706918083        1.55571206747534
H            3.29620750122855        0.28544834280773       -0.13977474584958
H            0.72254368437443        1.53273251541007        0.95845680517408
H            1.97078180587490        2.37820770817582        0.04988084165110
H            0.06859578600428        1.75669641019509       -1.44325743555555
H            1.54960497818403        0.92980043839952       -1.92787566305261
24
 energy: -463.637832763605 gnorm: 0.001353427372 xtb: 6.7.1 (edcfbbe)
C           -3.04956915993266        0.82033919055281        0.51467788231155
O           -1.85052665888281        0.75668393665717       -0.28406596970101
C           -1.09888552371599       -0.35539611022790       -0.09176477742431
O           -1.40714917487649       -1.22846085270629        0.68732662970717
C            0.11711705632753       -0.37357118346263       -1.00545209756441
C            1.12222719152250       -1.43726658826451       -0.54588481446605
C            1.82854564550787       -1.02628045986692        0.74924932666164
C            2.49320446735538        0.34538672994435        0.61233664238434
C            1.47943873388451        1.40488137339891        0.17353100856241
C            0.79507862971822        1.00129461328793       -1.13382969897647
H           -3.71824110004583       -0.00904458652521        0.26595041288180
H           -3.51322657380496        1.77674987895490        0.26956751483552
H           -2.80190409596176        0.77080403680607        1.57882815388814
H           -0.28337726848200       -0.65627409153518       -1.99072948605931
H            0.61410900410254       -2.39653926861235       -0.41406964278550
H            1.86742866208100       -1.56370812790550       -1.34216236286540
H            1.09367600519259       -0.99814581737860        1.56307583151025
H            2.57118664566848       -1.78476403274738        1.02107345219156
H            2.96232416203360        0.63653797647031        1.55902610833776
H            3.29635745844167        0.28730833533860       -0.13617643138983
H            0.71931813908621        1.53110903070658        0.95820011465256
H            1.96872748986484        2.37797397180389        0.05258479886015
H            0.06917398330489        1.75684684336639       -1.44412392481957
H            1.55084889140982        0.93025519001007       -1.92707445724905
24
 energy: -463.637838461711 gnorm: 0.000842198660 xtb: 6.7.1 (edcfbbe)
C           -3.05063132185622        0.82021500361396        0.51332025224833
O           -1.85239058180439        0.75646831091473       -0.28518788927518
C           -1.09832153840163       -0.35372661923964       -0.09025919137203
O           -1.40455042209846       -1.22405856984979        0.69193653240554
C            0.11659766223167       -0.37254410131079       -1.00517389621212
C            1.12117874956607       -1.43730689539916       -0.54670393398504
C            1.83038833717117       -1.02796907707925        0.74749368370390
C            2.49301422431841        0.34514203962872        0.61345784172171
C            1.47940599878817        1.40462762865637        0.17413593692444
C            0.79571558683819        1.00172692040938       -1.13378373987933
H           -3.71519539865425       -0.01355826318248        0.27173278413154
H           -3.51923523167375        1.77189107959352        0.26205754754136
H           -2.80270974829400        0.77991151955963        1.57713033359115
H           -0.28477017534490       -0.65447499856234       -1.99034095224830
H            0.61150034448576       -2.39562727016951       -0.41325701774173
H            1.86455877897082       -1.56595327990330       -1.34443215977980
H            1.09769369723558       -1.00379482144924        1.56347291379998
H            2.57541043010465       -1.78586209061173        1.01493488067082
H            2.95932913996518        0.63517109534161        1.56199963667051
H            3.29840171754503        0.28954690267365       -0.13295472164852
H            0.71888271382983        1.53154365172872        0.95842480827682
H            1.96930892636132        2.37751214660877        0.05346381099031
H            0.07047792398305        1.75779160353595       -1.44456298826474
H            1.55182392350847        0.93004838907884       -1.92681032203947
24
 energy: -463.637841142502 gnorm: 0.000594672242 xtb: 6.7.1 (edcfbbe)
C           -3.05183062539439        0.82062486523298        0.51234359943440
O           -1.85426701132306        0.75532493819451       -0.28783701534895
C           -1.09818156670080       -0.35290140571259       -0.08958306644119
O           -1.40223843692618       -1.22093989715829        0.69610965983305
C            0.11627705444455       -0.37248014352718       -1.00516339630222
C            1.12110179118696       -1.43754360748283       -0.54781617581251
C            1.83127934462954       -1.02896454306946        0.74616535429706
C            2.49309756113742        0.34469348392227        0.61389308448722
C            1.47937663166614        1.40436733767433        0.17528269289237
C            0.79574219125068        1.00196896252248       -1.13273923889391
H           -3.71375760645547       -0.01769282330657        0.27856448886173
H           -3.52396759384405        1.76855183784591        0.25404455127009
H           -2.80197652153112        0.78990455173634        1.57629909251579
H           -0.28533660849107       -0.65372525238827       -1.99036057969140
H            0.61146348518356       -2.39596451147965       -0.41438753737717
H            1.86379993739078       -1.56600017437775       -1.34631417443208
H            1.09946385090826       -1.00663723491579        1.56304412927957
H            2.57713955264352       -1.78676500920121        1.01165095910136
H            2.95867657589842        0.63390017149519        1.56308163151219
H            3.29908083345475        0.29045975829705       -0.13200374943589
H            0.71858882891533        1.53067686587168        0.95954211085730
H            1.96925028834912        2.37748012853314        0.05556798923266
H            0.07095864634338        1.75836615084540       -1.44375330608064
H            1.55214416891062        0.93001613901203       -1.92553699717257
24
 energy: -463.637841142502 gnorm: 0.000594672242 xtb: 6.7.1 (edcfbbe)
C           -3.05183062539439        0.82062486523298        0.51234359943440
O           -1.85426701132306        0.75532493819451       -0.28783701534895
C           -1.09818156670080       -0.35290140571259       -0.08958306644119
O           -1.40223843692618       -1.22093989715829        0.69610965983305
C            0.11627705444455       -0.37248014352718       -1.00516339630222
C            1.12110179118696       -1.43754360748283       -0.54781617581251
C            1.83127934462954       -1.02896454306946        0.74616535429706
C            2.49309756113742        0.34469348392227        0.61389308448722
C            1.47937663166614        1.40436733767433        0.17528269289237
C            0.79574219125068        1.00196896252248       -1.13273923889391
H           -3.71375760645547       -0.01769282330657        0.27856448886173
H           -3.52396759384405        1.76855183784591        0.25404455127009
H           -2.80197652153112        0.78990455173634        1.57629909251579
H           -0.28533660849107       -0.65372525238827       -1.99036057969140
H            0.61146348518356       -2.39596451147965       -0.41438753737717
H            1.86379993739078       -1.56600017437775       -1.34631417443208
H            1.09946385090826       -1.00663723491579        1.56304412927957
H            2.57713955264352       -1.78676500920121        1.01165095910136
H            2.95867657589842        0.63390017149519        1.56308163151219
H            3.29908083345475        0.29045975829705       -0.13200374943589
H            0.71858882891533        1.53067686587168        0.95954211085730
H            1.96925028834912        2.37748012853314        0.05556798923266
H            0.07095864634338        1.75836615084540       -1.44375330608064
H            1.55214416891062        0.93001613901203       -1.92553699717257
