 Entering Gaussian System
 *********************************************
 Gaussian 98:
 frequency output generated by the xtb code
 *********************************************
                         Standard orientation:
 --------------------------------------------------------------------
  Center     Atomic     Atomic              Coordinates (Angstroms)
  Number     Number      Type              X           Y           Z
 --------------------------------------------------------------------
    1          6             0       -2.022479   -0.600449   -0.682640
    2          6             0       -1.218197   -0.079385    0.536753
    3          1             0       -1.893661   -0.035258    1.404569
    4          6             0       -0.639253    1.325483    0.298011
    5          1             0       -1.378267    1.912652   -0.267785
    6          6             0        0.673747    1.296219   -0.525315
    7          1             0        1.112099    2.299747   -0.449746
    8          6             0        1.651878    0.280010    0.086519
    9          1             0        2.503648    0.148510   -0.590100
   10          6             0        0.939237   -1.085742    0.204360
   11          1             0        1.573267   -1.775967    0.784126
   12          8             0       -0.238854   -1.016198    0.958946
   13          8             0        0.726016   -1.577662   -1.091502
   14          8             0        2.168068    0.696849    1.314750
   15          8             0        0.429933    1.043338   -1.880389
   16          8             0       -0.331850    1.959815    1.522652
   17          8             0       -2.026512   -2.007105   -0.734784
   18          1             0       -1.579680   -0.263302   -1.620734
   19          1             0       -3.047024   -0.209069   -0.621662
   20          1             0       -0.050464   -2.164786   -1.075153
   21          1             0        1.440264    1.065437    1.837986
   22          1             0        0.544808    0.088707   -2.028390
   23          1             0       -1.134058    2.063836    2.046524
   24          1             0       -2.283891   -2.349975    0.129957
 --------------------------------------------------------------------
     1 basis functions        1 primitive gaussians
     1 alpha electrons        1 beta electrons
 
 Harmonic frequencies (cm**-1), IR intensities (km*mol⁻¹),
 Raman scattering activities (A**4/amu), Raman depolarization ratios,
 reduced masses (AMU), force constants (mDyne/A) and normal coordinates:
                      1                      2                      3
                        a                      a                      a 
 Frequencies --    93.5760               119.8780               149.5705
 Red. masses --    14.0910                10.8070                13.5455
 Frc consts  --     0.0000                 0.0000                 0.0000
 IR Inten    --     1.9558                 3.2695                 1.6478
 Raman Activ --     0.0000                 0.0000                 0.0000
 Depolar     --     0.0000                 0.0000                 0.0000
 Atom AN      X      Y      Z        X      Y      Z        X      Y      Z
   1   6     0.01   0.15  -0.12    -0.17   0.07   0.26     0.05  -0.16  -0.12
   2   6    -0.08   0.04  -0.00     0.02   0.05   0.16    -0.14   0.09  -0.09
   3   1    -0.04   0.00  -0.02     0.05   0.03   0.08    -0.08   0.05  -0.06
   4   6    -0.02   0.03   0.11     0.03   0.03  -0.00    -0.03   0.05  -0.04
   5   1    -0.01   0.04   0.08     0.00  -0.02  -0.02     0.01   0.05  -0.00
   6   6    -0.12  -0.05  -0.04     0.01  -0.07  -0.02     0.02   0.05   0.04
   7   1    -0.03  -0.01  -0.07     0.01  -0.02  -0.03     0.02   0.00   0.05
   8   6    -0.04   0.03  -0.02    -0.02  -0.07   0.03    -0.05  -0.08  -0.05
   9   1    -0.04  -0.02  -0.04     0.01  -0.01   0.03    -0.05  -0.07  -0.05
  10   6    -0.02   0.03   0.17    -0.04  -0.06  -0.08    -0.21   0.02   0.08
  11   1    -0.01   0.04   0.09    -0.01  -0.04  -0.05    -0.08  -0.01   0.02
  12   8    -0.12   0.04   0.05     0.01  -0.05  -0.01    -0.20   0.21   0.17
  13   8     0.16  -0.19   0.25    -0.09   0.03  -0.13    -0.35   0.07   0.11
  14   8     0.17   0.22  -0.19    -0.19  -0.15   0.13     0.26  -0.12  -0.18
  15   8    -0.34  -0.30   0.03    -0.07  -0.18   0.01     0.13   0.28  -0.02
  16   8     0.20  -0.17   0.18     0.01   0.28  -0.12     0.03  -0.14   0.04
  17   8     0.16   0.18  -0.41     0.51   0.09  -0.22     0.43  -0.21   0.05
  18   1     0.00   0.10  -0.01    -0.17   0.16   0.07     0.01  -0.04  -0.04
  19   1    -0.01   0.01  -0.03    -0.09  -0.12   0.20    -0.01  -0.12  -0.07
  20   1    -0.01   0.02   0.04    -0.12   0.13  -0.07    -0.10   0.02   0.03
  21   1     0.07   0.07  -0.03    -0.06  -0.02   0.00     0.10  -0.05   0.01
  22   1    -0.01  -0.07   0.03    -0.03  -0.05   0.02    -0.02   0.07  -0.03
  23   1     0.08  -0.08   0.09    -0.01   0.14  -0.06     0.01  -0.06   0.02
  24   1     0.01  -0.01  -0.13     0.29  -0.09  -0.05     0.18  -0.04   0.04
                      4                      5                      6
                        a                      a                      a 
 Frequencies --   190.0558               206.3738               220.0305
 Red. masses --    13.0697                12.0771                12.3812
 Frc consts  --     0.0000                 0.0000                 0.0000
 IR Inten    --     1.9180                 5.6456                17.8287
 Raman Activ --     0.0000                 0.0000                 0.0000
 Depolar     --     0.0000                 0.0000                 0.0000
 Atom AN      X      Y      Z        X      Y      Z        X      Y      Z
   1   6     0.02  -0.03  -0.09    -0.43  -0.06   0.20    -0.23   0.03  -0.03
   2   6    -0.03   0.12  -0.15    -0.11  -0.06   0.02    -0.12   0.15  -0.17
   3   1    -0.02   0.04  -0.05     0.01   0.02   0.04    -0.01   0.04  -0.03
   4   6     0.09   0.09  -0.01     0.00  -0.13  -0.10    -0.02   0.13  -0.01
   5   1     0.02   0.09   0.07    -0.00  -0.02  -0.01     0.03   0.06  -0.03
   6   6     0.01   0.03  -0.12     0.05  -0.03  -0.04     0.03   0.04   0.09
   7   1     0.01   0.01  -0.08    -0.02   0.00   0.01     0.02   0.01   0.01
   8   6    -0.05   0.08   0.05     0.05   0.05   0.10     0.04  -0.01   0.00
   9   1     0.03   0.03   0.07     0.00  -0.02   0.02    -0.01  -0.00  -0.03
  10   6    -0.05   0.07  -0.08    -0.02   0.07   0.11    -0.00   0.02  -0.04
  11   1    -0.03   0.01  -0.02    -0.02   0.00   0.02    -0.04   0.02   0.05
  12   8    -0.08   0.11  -0.13    -0.14  -0.11  -0.05    -0.19   0.03  -0.34
  13   8     0.01   0.09  -0.11     0.07   0.25   0.03     0.43  -0.16  -0.06
  14   8    -0.44   0.03   0.24     0.16   0.29  -0.01     0.27  -0.15  -0.04
  15   8    -0.08  -0.17  -0.09     0.39   0.01  -0.09    -0.09  -0.07   0.15
  16   8     0.42  -0.29   0.13     0.15  -0.25  -0.09    -0.21  -0.01   0.12
  17   8     0.13  -0.06   0.29    -0.19  -0.05  -0.10     0.03   0.02   0.29
  18   1     0.01  -0.06  -0.04    -0.23   0.06   0.03    -0.12  -0.01  -0.04
  19   1    -0.00  -0.02  -0.05    -0.14  -0.08   0.18    -0.08  -0.04   0.02
  20   1     0.02   0.01  -0.03     0.01   0.07  -0.03     0.09  -0.02  -0.06
  21   1    -0.14   0.05  -0.01     0.06   0.13  -0.02     0.09  -0.09   0.05
  22   1     0.00  -0.05   0.01    -0.02  -0.02   0.00    -0.01  -0.02   0.05
  23   1     0.15  -0.17   0.12     0.06  -0.12   0.03    -0.10   0.15  -0.08
  24   1     0.13   0.05   0.13     0.08  -0.08  -0.01     0.24   0.05   0.16
                      7                      8                      9
                        a                      a                      a 
 Frequencies --   249.1060               286.5871               291.8483
 Red. masses --    13.7686                 5.0834                11.7226
 Frc consts  --     0.0000                 0.0000                 0.0000
 IR Inten    --     0.5300                72.8263                17.0657
 Raman Activ --     0.0000                 0.0000                 0.0000
 Depolar     --     0.0000                 0.0000                 0.0000
 Atom AN      X      Y      Z        X      Y      Z        X      Y      Z
   1   6    -0.05   0.05   0.10     0.05   0.04  -0.02    -0.17   0.01   0.11
   2   6     0.00  -0.01   0.07    -0.01   0.02   0.02     0.06   0.07  -0.07
   3   1     0.01   0.00   0.03    -0.02  -0.02  -0.00     0.05   0.02   0.00
   4   6    -0.01  -0.01   0.01    -0.07   0.01   0.01    -0.03   0.08  -0.08
   5   1    -0.03  -0.01   0.03    -0.03  -0.03  -0.02    -0.00   0.04  -0.01
   6   6    -0.04   0.06  -0.03    -0.03  -0.02   0.07     0.03   0.13  -0.04
   7   1     0.01   0.00   0.07    -0.01  -0.00   0.01    -0.01   0.05  -0.03
   8   6    -0.14  -0.06  -0.09    -0.02  -0.03   0.04     0.09   0.14  -0.12
   9   1    -0.03  -0.03  -0.01    -0.03  -0.02  -0.02     0.04   0.10  -0.02
  10   6    -0.01  -0.12   0.05    -0.03  -0.03  -0.02     0.15   0.11  -0.11
  11   1     0.01   0.03   0.08    -0.02  -0.02  -0.01     0.06   0.07  -0.00
  12   8    -0.09  -0.15  -0.04    -0.07  -0.08  -0.06     0.29   0.37   0.05
  13   8     0.26  -0.47   0.16     0.04   0.09  -0.10    -0.12  -0.36   0.12
  14   8    -0.26   0.00  -0.07     0.14  -0.12   0.01    -0.07  -0.17   0.05
  15   8     0.06   0.55  -0.14     0.00  -0.12   0.09     0.17  -0.07  -0.03
  16   8     0.16   0.08  -0.08    -0.14   0.33  -0.16    -0.25  -0.21   0.12
  17   8     0.06   0.07   0.01     0.06   0.05   0.09    -0.05   0.03  -0.10
  18   1    -0.03   0.04   0.03     0.03  -0.00  -0.00    -0.14   0.05   0.00
  19   1    -0.02  -0.01   0.05     0.01   0.02  -0.03    -0.06  -0.03   0.13
  20   1     0.07  -0.12   0.04     0.03  -0.00  -0.05    -0.12   0.03   0.10
  21   1    -0.07   0.08  -0.07     0.11   0.24  -0.09    -0.05  -0.14   0.04
  22   1    -0.01   0.15  -0.12     0.02  -0.03   0.04    -0.03  -0.03   0.04
  23   1     0.09  -0.11   0.08     0.10  -0.71   0.33    -0.05  -0.31   0.09
  24   1     0.10  -0.00   0.02     0.01   0.03   0.03    -0.04  -0.04  -0.05
                     10                     11                     12
                        a                      a                      a 
 Frequencies --   310.6253               347.7127               356.5534
 Red. masses --    10.4200                12.0208                 7.0813
 Frc consts  --     0.0000                 0.0000                 0.0000
 IR Inten    --    27.8361                41.7503               127.1860
 Raman Activ --     0.0000                 0.0000                 0.0000
 Depolar     --     0.0000                 0.0000                 0.0000
 Atom AN      X      Y      Z        X      Y      Z        X      Y      Z
   1   6     0.14   0.20  -0.05     0.10   0.11   0.06     0.11   0.04  -0.08
   2   6     0.11  -0.03  -0.01    -0.12  -0.02   0.19    -0.02  -0.12   0.03
   3   1     0.02  -0.01  -0.01    -0.02  -0.05   0.06    -0.03  -0.06  -0.01
   4   6     0.09  -0.07   0.02    -0.24  -0.01   0.11    -0.19  -0.07  -0.01
   5   1     0.04  -0.03  -0.02    -0.11  -0.01   0.08    -0.10  -0.04   0.03
   6   6     0.10  -0.09  -0.02    -0.25   0.07   0.00    -0.21   0.06  -0.02
   7   1     0.05  -0.03   0.00    -0.12   0.04   0.01    -0.11   0.04  -0.00
   8   6     0.03  -0.10  -0.03    -0.19   0.14  -0.05    -0.09   0.15   0.01
   9   1     0.02  -0.05   0.01    -0.08   0.07  -0.05    -0.04   0.08  -0.02
  10   6     0.00  -0.13  -0.01    -0.09   0.07  -0.13     0.06   0.11   0.04
  11   1     0.00  -0.06  -0.03     0.00   0.05  -0.03     0.05   0.06   0.01
  12   8     0.02  -0.17  -0.01    -0.08  -0.10  -0.09     0.10   0.01   0.13
  13   8    -0.22  -0.09  -0.03     0.02  -0.13  -0.12     0.01   0.06   0.10
  14   8    -0.10   0.38  -0.15     0.02  -0.00  -0.14     0.09  -0.25   0.08
  15   8     0.13  -0.04  -0.04     0.53  -0.22  -0.08     0.04  -0.05  -0.05
  16   8    -0.34  -0.17   0.20     0.03  -0.04   0.08     0.15   0.01  -0.18
  17   8    -0.00   0.23   0.13     0.22   0.14   0.17    -0.28   0.05  -0.13
  18   1     0.05   0.04  -0.01     0.11   0.02   0.05     0.06   0.01  -0.01
  19   1     0.05   0.08  -0.02     0.03   0.04  -0.07     0.05   0.07  -0.04
  20   1    -0.14   0.09  -0.01    -0.02   0.00  -0.02     0.02  -0.01   0.02
  21   1    -0.04   0.15  -0.09     0.02  -0.09   0.05     0.04  -0.14   0.09
  22   1     0.05  -0.01  -0.02     0.13  -0.07   0.05     0.04  -0.01   0.00
  23   1    -0.14  -0.06  -0.04     0.02   0.11   0.01     0.08   0.04   0.01
  24   1     0.42   0.11   0.18    -0.22   0.04  -0.04     0.64   0.04   0.20
                     13                     14                     15
                        a                      a                      a 
 Frequencies --   378.9993               420.1180               449.5505
 Red. masses --    11.8745                 5.2714                 5.9657
 Frc consts  --     0.0000                 0.0000                 0.0000
 IR Inten    --    60.9609                41.3023               261.3291
 Raman Activ --     0.0000                 0.0000                 0.0000
 Depolar     --     0.0000                 0.0000                 0.0000
 Atom AN      X      Y      Z        X      Y      Z        X      Y      Z
   1   6     0.04   0.18   0.13     0.01  -0.08   0.03    -0.02  -0.07  -0.01
   2   6    -0.02   0.04   0.11    -0.01   0.05   0.04    -0.02   0.05  -0.01
   3   1     0.00   0.04   0.03    -0.01   0.01   0.01    -0.02   0.00  -0.01
   4   6    -0.02  -0.09  -0.13     0.03   0.10   0.12     0.04   0.09   0.09
   5   1     0.00  -0.03  -0.05     0.02   0.04   0.04     0.02   0.03   0.02
   6   6    -0.03  -0.15  -0.17     0.02  -0.00  -0.00     0.03  -0.06   0.06
   7   1     0.00  -0.05  -0.03     0.03  -0.01  -0.03     0.05  -0.04   0.04
   8   6    -0.01  -0.14  -0.04    -0.03  -0.05  -0.12    -0.00  -0.11   0.02
   9   1    -0.00  -0.06   0.00    -0.02  -0.02  -0.05     0.01  -0.01   0.02
  10   6    -0.02  -0.02   0.14    -0.05  -0.01  -0.04    -0.02  -0.12  -0.03
  11   1    -0.03  -0.03   0.04    -0.02   0.00  -0.00    -0.04  -0.07  -0.01
  12   8    -0.00   0.10   0.22     0.02   0.13   0.08    -0.03   0.02   0.01
  13   8     0.25   0.35   0.03    -0.03   0.09  -0.07     0.00   0.00  -0.09
  14   8    -0.04  -0.18  -0.05    -0.13  -0.07  -0.12    -0.06   0.36  -0.18
  15   8    -0.09   0.04  -0.27     0.21  -0.11   0.01     0.09  -0.04   0.08
  16   8    -0.21  -0.28  -0.05    -0.05   0.10   0.24     0.06   0.24   0.05
  17   8     0.14   0.26   0.10    -0.07  -0.08  -0.17    -0.09  -0.11  -0.08
  18   1     0.03   0.07   0.05    -0.02  -0.01   0.00    -0.01  -0.02  -0.01
  19   1     0.01   0.06   0.03    -0.00  -0.02   0.03    -0.01  -0.02   0.00
  20   1     0.24  -0.13  -0.05     0.43  -0.53   0.06     0.08  -0.10  -0.04
  21   1    -0.06  -0.26   0.07     0.01   0.27  -0.17    -0.18  -0.67   0.26
  22   1    -0.02   0.02  -0.11    -0.27  -0.08   0.10    -0.02  -0.02   0.02
  23   1    -0.07  -0.14  -0.03    -0.04   0.09   0.00     0.06  -0.18   0.13
  24   1    -0.08   0.06  -0.01     0.15  -0.04   0.00     0.09  -0.03   0.01
                     16                     17                     18
                        a                      a                      a 
 Frequencies --   457.0839               485.2042               550.3516
 Red. masses --     9.5716                12.5662                 8.0860
 Frc consts  --     0.0000                 0.0000                 0.0000
 IR Inten    --    35.0894                10.9497               150.3780
 Raman Activ --     0.0000                 0.0000                 0.0000
 Depolar     --     0.0000                 0.0000                 0.0000
 Atom AN      X      Y      Z        X      Y      Z        X      Y      Z
   1   6     0.03  -0.10   0.05     0.08  -0.12   0.07    -0.11   0.03  -0.24
   2   6    -0.13   0.07   0.10     0.16   0.03   0.03     0.02  -0.08  -0.17
   3   1    -0.04   0.01   0.03     0.03   0.07  -0.00    -0.02  -0.12  -0.07
   4   6    -0.08   0.05   0.08     0.24   0.16   0.07    -0.12   0.02   0.16
   5   1     0.01   0.05   0.02     0.03   0.02   0.05    -0.05   0.02   0.08
   6   6    -0.03  -0.17   0.06     0.12   0.25  -0.24    -0.16  -0.18  -0.02
   7   1     0.02  -0.06   0.06     0.06   0.07  -0.14    -0.02  -0.07  -0.00
   8   6    -0.01  -0.18  -0.07    -0.13   0.11  -0.09     0.01  -0.13  -0.07
   9   1    -0.00  -0.05  -0.02    -0.04  -0.05  -0.01    -0.02  -0.00  -0.05
  10   6    -0.06  -0.08  -0.03    -0.10   0.12   0.13     0.23  -0.09   0.15
  11   1    -0.07  -0.06   0.00     0.03   0.08   0.03     0.05  -0.04   0.04
  12   8     0.09   0.39   0.20    -0.18  -0.32   0.01     0.14   0.01  -0.04
  13   8     0.32   0.02  -0.19     0.09   0.12   0.15     0.08   0.19   0.18
  14   8    -0.12  -0.02  -0.13    -0.03  -0.21  -0.07    -0.10  -0.11  -0.10
  15   8     0.07  -0.02  -0.00     0.03  -0.08  -0.28     0.16   0.04  -0.13
  16   8     0.00   0.04   0.12    -0.13   0.16   0.31     0.03   0.18   0.15
  17   8    -0.19  -0.15  -0.10    -0.12  -0.18  -0.09     0.04   0.03   0.11
  18   1     0.07  -0.02   0.04     0.01  -0.04   0.01    -0.12  -0.01  -0.11
  19   1     0.01  -0.01  -0.04     0.03  -0.02   0.03    -0.04  -0.01  -0.01
  20   1    -0.15   0.30  -0.21    -0.10   0.18  -0.03    -0.17   0.29  -0.00
  21   1    -0.01   0.17  -0.13     0.01  -0.07   0.03    -0.04  -0.01  -0.05
  22   1     0.36   0.05  -0.11     0.12  -0.01  -0.03    -0.48  -0.07   0.06
  23   1     0.00   0.04   0.03    -0.08  -0.06   0.02     0.03   0.06   0.07
  24   1     0.07  -0.06   0.00     0.02  -0.07  -0.02    -0.07   0.07   0.02
                     19                     20                     21
                        a                      a                      a 
 Frequencies --   572.5162               576.0041               600.0279
 Red. masses --    11.0239                 9.6686                 9.0263
 Frc consts  --     0.0000                 0.0000                 0.0000
 IR Inten    --    41.1064                44.0418                15.1721
 Raman Activ --     0.0000                 0.0000                 0.0000
 Depolar     --     0.0000                 0.0000                 0.0000
 Atom AN      X      Y      Z        X      Y      Z        X      Y      Z
   1   6     0.11   0.00   0.05    -0.19   0.04  -0.12    -0.08   0.00  -0.04
   2   6     0.21   0.03  -0.07    -0.02  -0.11  -0.11     0.31   0.05  -0.27
   3   1     0.05   0.09  -0.03    -0.01  -0.05  -0.03     0.09   0.00  -0.07
   4   6     0.04   0.08  -0.21     0.06  -0.15   0.05    -0.14   0.29  -0.09
   5   1    -0.01  -0.01  -0.06     0.04  -0.05  -0.02    -0.09   0.08   0.04
   6   6     0.05   0.26   0.15     0.07   0.02   0.15    -0.22   0.04   0.00
   7   1     0.06   0.05   0.04     0.00   0.02   0.09     0.03  -0.03   0.01
   8   6    -0.27  -0.00  -0.06     0.05   0.00  -0.27    -0.32  -0.10   0.22
   9   1    -0.12  -0.03  -0.06     0.01   0.00  -0.08    -0.11   0.02   0.02
  10   6    -0.12  -0.05   0.06     0.10   0.12   0.07     0.08  -0.31   0.09
  11   1     0.02   0.01  -0.01     0.06   0.08   0.04     0.04  -0.11  -0.03
  12   8     0.00  -0.07   0.23     0.03  -0.07  -0.06     0.20  -0.05   0.05
  13   8     0.18   0.03  -0.07    -0.08   0.22   0.26    -0.09   0.05  -0.02
  14   8    -0.15  -0.03  -0.24    -0.26  -0.13  -0.28     0.11   0.04   0.04
  15   8     0.05  -0.05   0.40     0.02  -0.09   0.28    -0.01  -0.02  -0.09
  16   8     0.03  -0.22  -0.23     0.04   0.06  -0.05     0.03  -0.02   0.07
  17   8    -0.04   0.02   0.00     0.08   0.07   0.07     0.02   0.02   0.02
  18   1    -0.03  -0.00  -0.01    -0.09   0.03  -0.04    -0.17   0.02  -0.08
  19   1     0.04   0.02   0.07    -0.07  -0.03   0.03    -0.03  -0.03   0.16
  20   1    -0.07   0.15  -0.14     0.08  -0.08   0.12     0.09  -0.13  -0.00
  21   1    -0.02  -0.00  -0.04    -0.11  -0.05  -0.12     0.10   0.07   0.07
  22   1    -0.28  -0.08   0.26     0.49   0.06  -0.02     0.34   0.05  -0.09
  23   1     0.01  -0.01  -0.06     0.02   0.01  -0.00     0.01   0.04   0.01
  24   1    -0.02  -0.00  -0.01    -0.03   0.05   0.01    -0.05   0.02  -0.01
                     22                     23                     24
                        a                      a                      a 
 Frequencies --   660.6586               800.5446               860.7803
 Red. masses --    12.1313                10.8093                 8.6070
 Frc consts  --     0.0000                 0.0000                 0.0000
 IR Inten    --    20.4108                12.5266                 2.9376
 Raman Activ --     0.0000                 0.0000                 0.0000
 Depolar     --     0.0000                 0.0000                 0.0000
 Atom AN      X      Y      Z        X      Y      Z        X      Y      Z
   1   6    -0.24   0.05  -0.30     0.17  -0.01   0.08    -0.28   0.02  -0.12
   2   6    -0.02  -0.24  -0.11     0.28  -0.02  -0.14    -0.26   0.05   0.19
   3   1    -0.09  -0.05  -0.10     0.05   0.01  -0.05     0.02   0.02   0.11
   4   6     0.18  -0.24   0.14     0.27  -0.32   0.11     0.25   0.06  -0.07
   5   1     0.02  -0.10   0.04     0.07  -0.12  -0.00     0.15   0.07  -0.08
   6   6     0.09   0.15  -0.08    -0.14  -0.31   0.09     0.10  -0.11   0.01
   7   1    -0.04   0.07  -0.05    -0.05  -0.08   0.06     0.14  -0.08   0.01
   8   6    -0.02   0.13   0.02    -0.32   0.01   0.11    -0.46   0.00   0.16
   9   1     0.01  -0.01   0.04    -0.11  -0.02   0.01    -0.13   0.02   0.02
  10   6    -0.20   0.02  -0.08    -0.22   0.30  -0.06     0.17   0.09  -0.07
  11   1    -0.00   0.02  -0.06    -0.05   0.12   0.03     0.16   0.09  -0.06
  12   8     0.03   0.01   0.51    -0.02   0.26  -0.23     0.28  -0.08   0.02
  13   8     0.10  -0.15  -0.25     0.02  -0.02   0.04    -0.00   0.01  -0.00
  14   8     0.07   0.03   0.08     0.00   0.00  -0.03    -0.01  -0.01  -0.07
  15   8    -0.02  -0.01  -0.08     0.04   0.02   0.01    -0.01   0.00   0.01
  16   8     0.00   0.14   0.06    -0.00   0.07   0.01     0.00  -0.01   0.01
  17   8     0.07   0.10   0.10    -0.03  -0.01  -0.01     0.04  -0.03  -0.01
  18   1    -0.17   0.03  -0.13    -0.10   0.01  -0.04     0.18  -0.04   0.07
  19   1    -0.08  -0.03   0.03     0.06   0.00   0.19    -0.09   0.01  -0.32
  20   1     0.03  -0.04  -0.13    -0.01   0.01   0.03    -0.01   0.02   0.11
  21   1     0.03   0.00   0.05     0.08   0.00   0.10     0.12   0.04   0.12
  22   1     0.03  -0.00   0.01    -0.05   0.02  -0.10    -0.05   0.00  -0.04
  23   1    -0.02   0.01  -0.01    -0.05  -0.04  -0.06    -0.07  -0.08  -0.09
  24   1    -0.05   0.11   0.04    -0.01  -0.02  -0.01     0.03  -0.01   0.01
                     25                     26                     27
                        a                      a                      a 
 Frequencies --   887.4695               909.7503               999.8925
 Red. masses --    10.4917                 9.4402                10.0293
 Frc consts  --     0.0000                 0.0000                 0.0000
 IR Inten    --    39.6326                19.8293                47.0976
 Raman Activ --     0.0000                 0.0000                 0.0000
 Depolar     --     0.0000                 0.0000                 0.0000
 Atom AN      X      Y      Z        X      Y      Z        X      Y      Z
   1   6     0.03  -0.01  -0.04     0.07  -0.02  -0.04    -0.02   0.19  -0.41
   2   6     0.05   0.28  -0.04    -0.00  -0.15  -0.01     0.21   0.26   0.48
   3   1    -0.04   0.22  -0.07    -0.03  -0.16  -0.02     0.08   0.07   0.15
   4   6     0.10   0.13  -0.10    -0.33   0.32  -0.07     0.00   0.02   0.11
   5   1     0.12   0.10  -0.08    -0.05   0.11  -0.03    -0.10  -0.09   0.05
   6   6    -0.27  -0.41   0.15     0.22  -0.21  -0.01    -0.05   0.05  -0.02
   7   1    -0.10  -0.09   0.04     0.19  -0.11  -0.00    -0.03   0.02   0.00
   8   6     0.15   0.22  -0.13     0.03  -0.16   0.02     0.04  -0.09   0.00
   9   1     0.02   0.24  -0.10     0.02  -0.22   0.06     0.02  -0.07   0.02
  10   6     0.15   0.09  -0.08    -0.23   0.49  -0.08    -0.06   0.02  -0.06
  11   1     0.11   0.06  -0.06     0.06   0.20  -0.06    -0.05  -0.02  -0.00
  12   8    -0.21  -0.29   0.33     0.14  -0.20   0.08     0.03   0.00  -0.08
  13   8     0.01  -0.05  -0.11     0.03  -0.06  -0.03     0.02   0.02   0.07
  14   8    -0.01  -0.03   0.03     0.01   0.02   0.02     0.01   0.02   0.02
  15   8     0.05   0.04   0.06    -0.02   0.01   0.04     0.01   0.00   0.00
  16   8     0.01  -0.02   0.03    -0.00  -0.04   0.01    -0.05  -0.12  -0.14
  17   8    -0.02  -0.04  -0.02    -0.00   0.04   0.02    -0.04  -0.35  -0.02
  18   1    -0.07  -0.01  -0.05    -0.10   0.03  -0.05    -0.17   0.18  -0.13
  19   1    -0.00  -0.03   0.04     0.02  -0.01   0.13    -0.06  -0.14   0.06
  20   1    -0.01   0.01   0.05     0.00  -0.00   0.07     0.01  -0.01   0.03
  21   1    -0.02   0.00  -0.03    -0.03  -0.02  -0.02    -0.01  -0.00  -0.01
  22   1    -0.02   0.03  -0.13    -0.02   0.02  -0.10     0.02  -0.00   0.02
  23   1    -0.04  -0.04  -0.05     0.08   0.06   0.12    -0.01  -0.02  -0.04
  24   1    -0.02   0.00  -0.00    -0.02   0.05   0.02    -0.05   0.24   0.11
                     28                     29                     30
                        a                      a                      a 
 Frequencies --  1007.0369              1048.2361              1057.0503
 Red. masses --     7.4360                 7.8277                10.9110
 Frc consts  --     0.0000                 0.0000                 0.0000
 IR Inten    --    33.9382                58.8464                94.2937
 Raman Activ --     0.0000                 0.0000                 0.0000
 Depolar     --     0.0000                 0.0000                 0.0000
 Atom AN      X      Y      Z        X      Y      Z        X      Y      Z
   1   6     0.37   0.02   0.02    -0.07  -0.00   0.04     0.14  -0.06   0.02
   2   6    -0.35  -0.12   0.05     0.17   0.14  -0.06    -0.22   0.33  -0.07
   3   1    -0.21  -0.15  -0.07    -0.02   0.27  -0.07    -0.07   0.03  -0.03
   4   6     0.03   0.04   0.05    -0.16  -0.20   0.08     0.02  -0.15   0.15
   5   1     0.09   0.07  -0.03    -0.24  -0.21   0.12     0.05   0.00   0.02
   6   6     0.19   0.04  -0.03     0.12   0.10  -0.03    -0.04   0.06  -0.09
   7   1     0.14  -0.03  -0.01     0.12  -0.02   0.04    -0.13   0.06   0.03
   8   6    -0.17   0.08   0.08    -0.06  -0.20   0.18    -0.03  -0.07   0.01
   9   1    -0.01   0.15   0.03     0.03  -0.10   0.10    -0.02  -0.26   0.04
  10   6     0.29  -0.16  -0.17     0.35   0.12  -0.24     0.18   0.15   0.53
  11   1     0.05  -0.03  -0.01     0.11   0.04  -0.07     0.17   0.09   0.05
  12   8    -0.19   0.07   0.02    -0.30   0.05   0.15     0.17  -0.09  -0.06
  13   8     0.01   0.04   0.03     0.05   0.01  -0.08    -0.11  -0.11  -0.39
  14   8    -0.03  -0.03  -0.09    -0.02  -0.01  -0.11    -0.01  -0.02  -0.00
  15   8    -0.02  -0.02  -0.03    -0.03  -0.03  -0.04    -0.00   0.02   0.00
  16   8    -0.00  -0.01  -0.05    -0.05  -0.00   0.00    -0.03  -0.02  -0.07
  17   8    -0.07  -0.05   0.01     0.00   0.02  -0.01    -0.03   0.04  -0.01
  18   1    -0.23   0.20  -0.07     0.05  -0.11  -0.00    -0.09   0.01  -0.04
  19   1     0.06  -0.13   0.35    -0.00   0.05  -0.08     0.01  -0.09   0.10
  20   1    -0.01   0.02   0.11    -0.02   0.05   0.32    -0.01  -0.04  -0.01
  21   1     0.08   0.04   0.07     0.02   0.01   0.01    -0.02  -0.02  -0.01
  22   1     0.01   0.00  -0.02     0.00  -0.01   0.01     0.05  -0.01   0.10
  23   1    -0.02  -0.02  -0.03     0.10   0.10   0.15     0.01   0.00   0.00
  24   1    -0.06   0.16   0.06     0.03  -0.09  -0.03    -0.01   0.01  -0.00
                     31                     32                     33
                        a                      a                      a 
 Frequencies --  1082.0394              1086.5230              1098.6108
 Red. masses --    10.5753                10.7453                10.9285
 Frc consts  --     0.0000                 0.0000                 0.0000
 IR Inten    --    47.3704                28.6986                21.7345
 Raman Activ --     0.0000                 0.0000                 0.0000
 Depolar     --     0.0000                 0.0000                 0.0000
 Atom AN      X      Y      Z        X      Y      Z        X      Y      Z
   1   6     0.09  -0.14   0.05    -0.08   0.24   0.10     0.01  -0.46  -0.08
   2   6    -0.21   0.16  -0.10     0.03   0.00  -0.15     0.01   0.28   0.10
   3   1    -0.09   0.05  -0.06    -0.05  -0.14  -0.07    -0.01   0.04   0.01
   4   6     0.16   0.02   0.13     0.09   0.21   0.58    -0.09  -0.03   0.23
   5   1     0.11   0.09   0.02    -0.04   0.03   0.19    -0.07  -0.07   0.05
   6   6    -0.23   0.21   0.19     0.05  -0.04   0.03     0.18  -0.13  -0.18
   7   1    -0.17   0.10   0.10     0.19  -0.08  -0.07     0.02  -0.01  -0.15
   8   6     0.05  -0.32  -0.01    -0.03   0.04  -0.15    -0.03   0.21   0.02
   9   1    -0.00  -0.20   0.00    -0.03   0.08  -0.07     0.07   0.09   0.09
  10   6    -0.12   0.03  -0.38    -0.01  -0.02   0.04    -0.13  -0.15  -0.08
  11   1     0.01  -0.01  -0.14     0.03   0.03   0.01    -0.02  -0.05  -0.04
  12   8     0.19  -0.15   0.06    -0.04   0.00   0.04     0.12  -0.05  -0.04
  13   8     0.10   0.08   0.26    -0.01   0.00  -0.03     0.01   0.03   0.16
  14   8     0.05   0.08   0.10     0.02   0.03   0.10    -0.03  -0.04  -0.08
  15   8    -0.01  -0.04  -0.19     0.03  -0.01  -0.04     0.03   0.03   0.16
  16   8     0.00  -0.03  -0.11    -0.12  -0.18  -0.42    -0.07  -0.08  -0.12
  17   8    -0.03   0.14  -0.00     0.03  -0.16   0.02    -0.03   0.38  -0.02
  18   1    -0.05  -0.05  -0.03     0.05  -0.07   0.01    -0.08  -0.20  -0.09
  19   1     0.01  -0.05   0.04     0.01   0.14  -0.05    -0.01  -0.11  -0.00
  20   1     0.00   0.04   0.11     0.01  -0.02  -0.03     0.00   0.01  -0.12
  21   1    -0.06   0.00  -0.06     0.01   0.01   0.02     0.09   0.02   0.08
  22   1     0.02  -0.03   0.12    -0.00   0.01  -0.07    -0.01   0.03  -0.12
  23   1    -0.06  -0.05  -0.11    -0.00  -0.01  -0.06     0.06   0.05   0.08
  24   1     0.00  -0.03  -0.02     0.02  -0.21  -0.06     0.01   0.02  -0.03
                     34                     35                     36
                        a                      a                      a 
 Frequencies --  1102.2350              1103.2328              1120.0108
 Red. masses --     9.9568                 8.7315                11.5179
 Frc consts  --     0.0000                 0.0000                 0.0000
 IR Inten    --    39.2148                43.9160               235.1272
 Raman Activ --     0.0000                 0.0000                 0.0000
 Depolar     --     0.0000                 0.0000                 0.0000
 Atom AN      X      Y      Z        X      Y      Z        X      Y      Z
   1   6    -0.05  -0.34  -0.09     0.01   0.22   0.08     0.06   0.05   0.04
   2   6     0.12  -0.26   0.23    -0.07  -0.02  -0.11    -0.10   0.06  -0.08
   3   1    -0.03  -0.10   0.03    -0.04  -0.07  -0.04    -0.01   0.12  -0.02
   4   6     0.19   0.24  -0.00     0.04   0.05  -0.02    -0.03  -0.15  -0.09
   5   1    -0.11   0.01   0.15    -0.03   0.08   0.10    -0.10  -0.07   0.06
   6   6    -0.25   0.04  -0.12    -0.16  -0.08  -0.41     0.01  -0.05  -0.33
   7   1     0.10  -0.05  -0.06    -0.28   0.10  -0.28     0.10  -0.06  -0.07
   8   6     0.04  -0.18  -0.04     0.09   0.01   0.20    -0.22  -0.13  -0.45
   9   1    -0.04  -0.03  -0.08     0.15  -0.20   0.24    -0.15  -0.08  -0.21
  10   6     0.18   0.14   0.08    -0.01  -0.02  -0.12     0.02  -0.10  -0.11
  11   1    -0.06  -0.01   0.07    -0.02  -0.05  -0.06     0.12   0.10  -0.01
  12   8    -0.22   0.13  -0.02     0.04  -0.03   0.05     0.02   0.00   0.01
  13   8    -0.01  -0.03  -0.17     0.04   0.01   0.05     0.02   0.06   0.09
  14   8     0.03   0.03   0.09    -0.06  -0.07  -0.18     0.18   0.15   0.44
  15   8     0.04   0.03   0.13     0.08   0.11   0.41     0.05   0.04   0.29
  16   8     0.05  -0.02  -0.06     0.03   0.03   0.02    -0.00   0.06   0.10
  17   8     0.00   0.28  -0.01     0.01  -0.16   0.01    -0.02  -0.05  -0.01
  18   1    -0.02  -0.10  -0.03     0.01   0.01   0.01     0.01   0.08   0.03
  19   1     0.00  -0.03   0.00     0.01   0.08   0.00    -0.01  -0.05   0.00
  20   1    -0.02   0.02   0.14     0.00   0.01   0.10     0.00   0.01  -0.04
  21   1    -0.05  -0.02  -0.05     0.06   0.02   0.04    -0.07  -0.03  -0.01
  22   1     0.04   0.01   0.03     0.01   0.05  -0.07     0.01   0.02  -0.02
  23   1    -0.18  -0.16  -0.28    -0.10  -0.08  -0.14     0.02   0.03   0.05
  24   1     0.02   0.06   0.00     0.00  -0.09  -0.02    -0.02   0.05   0.02
                     37                     38                     39
                        a                      a                      a 
 Frequencies --  1149.0112              1177.6870              1193.1347
 Red. masses --     3.3242                 3.8007                 3.1726
 Frc consts  --     0.0000                 0.0000                 0.0000
 IR Inten    --    44.0496                 5.4713                49.2834
 Raman Activ --     0.0000                 0.0000                 0.0000
 Depolar     --     0.0000                 0.0000                 0.0000
 Atom AN      X      Y      Z        X      Y      Z        X      Y      Z
   1   6    -0.01   0.15  -0.12    -0.06  -0.10  -0.02     0.05   0.06  -0.01
   2   6     0.03   0.10   0.28     0.16  -0.12   0.05    -0.14   0.05   0.00
   3   1    -0.13  -0.23  -0.02     0.08  -0.09   0.05    -0.06   0.06  -0.03
   4   6    -0.06  -0.05  -0.13     0.02   0.10   0.13     0.07  -0.05  -0.05
   5   1     0.12  -0.00  -0.19     0.33   0.09  -0.32    -0.09  -0.10   0.03
   6   6     0.05   0.01  -0.05     0.02   0.02   0.11     0.04   0.07   0.05
   7   1    -0.06   0.03   0.09    -0.32   0.17  -0.27     0.05   0.02  -0.29
   8   6    -0.08  -0.01  -0.10    -0.09   0.04  -0.03     0.04   0.04   0.25
   9   1    -0.02  -0.03  -0.02    -0.11  -0.32  -0.05    -0.31   0.14  -0.37
  10   6     0.03  -0.06  -0.01     0.12  -0.12  -0.04    -0.09   0.07   0.08
  11   1     0.02   0.00  -0.00     0.13   0.08   0.00    -0.24  -0.26  -0.07
  12   8    -0.04   0.02  -0.03    -0.19   0.12   0.01     0.17  -0.06  -0.03
  13   8     0.00   0.02   0.00     0.01   0.03  -0.05     0.06  -0.02  -0.07
  14   8     0.03   0.03   0.08     0.04   0.02   0.07     0.04  -0.03  -0.02
  15   8    -0.02   0.00  -0.00     0.04  -0.02   0.02     0.02  -0.02   0.05
  16   8     0.04   0.01   0.09    -0.09  -0.08  -0.08    -0.02   0.00   0.01
  17   8     0.04   0.00   0.05     0.01   0.03  -0.02    -0.01  -0.01   0.01
  18   1    -0.22  -0.44  -0.31     0.05   0.03   0.05    -0.05  -0.05  -0.05
  19   1     0.11   0.30   0.14    -0.01   0.00  -0.02     0.01   0.01   0.04
  20   1     0.00   0.00   0.03    -0.01   0.02   0.09    -0.01   0.04   0.29
  21   1     0.00  -0.00   0.02    -0.09  -0.04  -0.08    -0.24  -0.08  -0.28
  22   1     0.04  -0.01   0.08    -0.05   0.03  -0.22    -0.04   0.04  -0.26
  23   1    -0.01  -0.01  -0.00     0.17   0.13   0.24     0.04   0.03   0.06
  24   1     0.06  -0.42  -0.14    -0.01   0.11   0.03     0.01  -0.07  -0.02
                     40                     41                     42
                        a                      a                      a 
 Frequencies --  1213.2603              1240.3442              1260.8100
 Red. masses --     3.5825                 5.0266                 4.8619
 Frc consts  --     0.0000                 0.0000                 0.0000
 IR Inten    --   131.1793                 8.2924                 3.3366
 Raman Activ --     0.0000                 0.0000                 0.0000
 Depolar     --     0.0000                 0.0000                 0.0000
 Atom AN      X      Y      Z        X      Y      Z        X      Y      Z
   1   6    -0.01  -0.02   0.01     0.03   0.04  -0.03    -0.03  -0.04   0.02
   2   6    -0.00  -0.07  -0.03    -0.13  -0.17   0.08     0.08   0.06  -0.02
   3   1     0.05   0.06   0.02    -0.09   0.27  -0.04     0.04  -0.19   0.03
   4   6     0.10   0.03   0.08     0.22   0.08  -0.02     0.01  -0.04   0.07
   5   1     0.23   0.04  -0.21     0.01  -0.12  -0.10     0.11   0.12   0.01
   6   6    -0.18   0.00  -0.24    -0.27   0.05  -0.04    -0.02  -0.13  -0.32
   7   1     0.10  -0.08   0.13     0.14  -0.06  -0.23     0.09  -0.10   0.29
   8   6    -0.04  -0.04  -0.17     0.07  -0.20   0.19     0.04   0.21   0.30
   9   1     0.12   0.14   0.09     0.05   0.15   0.05    -0.19  -0.11  -0.16
  10   6    -0.06   0.10   0.07     0.09   0.10  -0.05     0.04   0.02  -0.08
  11   1    -0.35  -0.30  -0.00     0.09   0.19   0.12     0.12  -0.07  -0.24
  12   8     0.07  -0.05   0.02     0.04   0.00  -0.06    -0.11   0.04   0.02
  13   8     0.08  -0.00  -0.09    -0.10  -0.03   0.10    -0.01  -0.04   0.11
  14   8    -0.01   0.00   0.04     0.02  -0.01  -0.07     0.08  -0.05  -0.03
  15   8     0.02   0.06   0.05     0.03   0.05   0.04    -0.03   0.08   0.00
  16   8    -0.12  -0.05  -0.05    -0.12  -0.05  -0.04    -0.05  -0.01  -0.04
  17   8     0.01   0.00  -0.02     0.02  -0.01   0.02    -0.00   0.00  -0.01
  18   1     0.01   0.00   0.01    -0.06  -0.07  -0.07     0.03   0.03   0.04
  19   1     0.00   0.01   0.00     0.04   0.10   0.07    -0.01  -0.02  -0.04
  20   1    -0.02   0.05   0.36     0.02  -0.07  -0.44     0.02  -0.03  -0.15
  21   1     0.13   0.05   0.15    -0.06  -0.01  -0.09    -0.24  -0.08  -0.31
  22   1     0.07  -0.03   0.26     0.04   0.01   0.07     0.09  -0.04   0.37
  23   1     0.19   0.16   0.29     0.18   0.15   0.27     0.03   0.03   0.04
  24   1     0.01   0.06   0.02    -0.01  -0.04  -0.02    -0.01   0.04   0.01
                     43                     44                     45
                        a                      a                      a 
 Frequencies --  1272.2278              1281.1496              1296.0455
 Red. masses --     2.4923                 4.6603                 2.9600
 Frc consts  --     0.0000                 0.0000                 0.0000
 IR Inten    --     3.6593                 2.6579                23.2381
 Raman Activ --     0.0000                 0.0000                 0.0000
 Depolar     --     0.0000                 0.0000                 0.0000
 Atom AN      X      Y      Z        X      Y      Z        X      Y      Z
   1   6     0.06   0.12   0.10    -0.05  -0.08  -0.01     0.11   0.11  -0.04
   2   6     0.15   0.13  -0.00     0.06   0.13  -0.05     0.02  -0.11   0.02
   3   1    -0.23  -0.39  -0.19     0.15  -0.20   0.10     0.07   0.14   0.05
   4   6     0.05   0.07  -0.02    -0.07  -0.12   0.03     0.01  -0.01  -0.01
   5   1    -0.04  -0.32  -0.29     0.13   0.22   0.08     0.05   0.22   0.18
   6   6    -0.05   0.03  -0.03     0.16   0.05  -0.16     0.05  -0.05  -0.06
   7   1    -0.02   0.01  -0.07    -0.25   0.14  -0.04    -0.05   0.00   0.16
   8   6     0.01  -0.15   0.02    -0.03  -0.42   0.11    -0.02   0.11   0.08
   9   1     0.03   0.16  -0.00    -0.00   0.59  -0.10    -0.04  -0.07  -0.00
  10   6    -0.00   0.06  -0.00    -0.06   0.08  -0.01     0.00  -0.14  -0.16
  11   1     0.02   0.02  -0.02     0.07   0.19   0.11    -0.22   0.27   0.58
  12   8    -0.03  -0.01   0.02    -0.06  -0.03   0.06     0.08  -0.04   0.04
  13   8    -0.00  -0.01   0.01     0.00   0.01  -0.04    -0.03   0.05  -0.09
  14   8    -0.00   0.01  -0.00     0.03   0.03  -0.01     0.04  -0.01  -0.01
  15   8     0.01   0.02   0.01    -0.01   0.02   0.04    -0.01  -0.00  -0.00
  16   8     0.04  -0.03   0.06    -0.02   0.01  -0.03    -0.06   0.00  -0.05
  17   8    -0.10   0.07   0.05     0.02  -0.02  -0.03    -0.07   0.09   0.07
  18   1     0.02   0.07   0.04     0.04   0.02   0.04    -0.07  -0.02  -0.08
  19   1    -0.20  -0.51  -0.27     0.04   0.12   0.04    -0.11  -0.32  -0.13
  20   1     0.01  -0.01  -0.04    -0.01   0.01   0.03    -0.02   0.02   0.11
  21   1     0.01   0.01   0.01    -0.02   0.00  -0.04    -0.09  -0.04  -0.11
  22   1     0.01  -0.00   0.03     0.01   0.00   0.04     0.00  -0.01   0.04
  23   1     0.02   0.01   0.02    -0.00   0.01   0.00     0.03   0.03   0.05
  24   1     0.01  -0.16  -0.05    -0.00   0.08   0.03     0.02  -0.24  -0.08
                     46                     47                     48
                        a                      a                      a 
 Frequencies --  1303.7836              1309.0122              1320.7978
 Red. masses --     3.3007                 4.0412                 5.0020
 Frc consts  --     0.0000                 0.0000                 0.0000
 IR Inten    --    15.6305                46.2277                52.2321
 Raman Activ --     0.0000                 0.0000                 0.0000
 Depolar     --     0.0000                 0.0000                 0.0000
 Atom AN      X      Y      Z        X      Y      Z        X      Y      Z
   1   6    -0.17  -0.08   0.15     0.00   0.05  -0.02    -0.02  -0.02  -0.00
   2   6     0.10   0.11   0.05     0.17  -0.12   0.13     0.07   0.18  -0.07
   3   1    -0.42  -0.01  -0.34    -0.24   0.23  -0.20     0.10  -0.09   0.06
   4   6    -0.03   0.08   0.05    -0.13  -0.10  -0.00    -0.29  -0.29   0.11
   5   1    -0.04  -0.14  -0.12     0.17   0.38   0.17     0.29   0.14  -0.22
   6   6     0.09  -0.04  -0.08     0.13   0.03  -0.02    -0.18   0.17   0.05
   7   1    -0.12   0.04   0.15    -0.14   0.08  -0.00     0.43  -0.15  -0.32
   8   6    -0.03   0.04   0.05    -0.07  -0.10  -0.05     0.01   0.02   0.02
   9   1    -0.09  -0.07  -0.08    -0.08  -0.00  -0.10     0.04  -0.07   0.07
  10   6     0.08   0.00  -0.11     0.21   0.25   0.04     0.10   0.07  -0.10
  11   1    -0.26   0.06   0.36    -0.17  -0.30  -0.18    -0.18  -0.00   0.18
  12   8     0.13  -0.09  -0.01    -0.01  -0.01  -0.04    -0.01  -0.07   0.08
  13   8    -0.04   0.01  -0.01    -0.05  -0.07   0.10    -0.03  -0.01   0.01
  14   8     0.00   0.00   0.01    -0.05   0.02   0.02     0.02  -0.01  -0.01
  15   8    -0.01  -0.01  -0.00    -0.01  -0.02   0.02     0.03   0.01   0.02
  16   8     0.03  -0.02   0.02    -0.03   0.02  -0.04     0.12   0.05   0.05
  17   8     0.08  -0.10  -0.11    -0.03   0.03   0.06     0.00  -0.02  -0.01
  18   1     0.07  -0.03   0.09     0.00   0.06   0.01     0.02   0.02   0.02
  19   1     0.07   0.27   0.02    -0.06  -0.15  -0.08     0.01   0.02   0.00
  20   1    -0.01  -0.00  -0.06     0.03  -0.06  -0.30    -0.00  -0.01  -0.11
  21   1    -0.02  -0.01  -0.02     0.09   0.03   0.12    -0.04  -0.01  -0.06
  22   1    -0.00  -0.01   0.03    -0.02   0.01  -0.09     0.00   0.01  -0.03
  23   1    -0.03  -0.02  -0.06    -0.01   0.00  -0.01    -0.12  -0.11  -0.19
  24   1    -0.03   0.34   0.10     0.01  -0.14  -0.04    -0.01   0.02   0.01
                     49                     50                     51
                        a                      a                      a 
 Frequencies --  1335.2196              1339.0569              1341.5684
 Red. masses --     4.1819                 3.5889                 4.3242
 Frc consts  --     0.0000                 0.0000                 0.0000
 IR Inten    --     9.3501                47.7230               108.4741
 Raman Activ --     0.0000                 0.0000                 0.0000
 Depolar     --     0.0000                 0.0000                 0.0000
 Atom AN      X      Y      Z        X      Y      Z        X      Y      Z
   1   6    -0.08  -0.11  -0.08     0.03   0.18   0.30     0.01  -0.06  -0.07
   2   6     0.12   0.12   0.14     0.01  -0.03   0.01    -0.11   0.17  -0.10
   3   1    -0.31  -0.18  -0.23     0.00  -0.10   0.01     0.23  -0.34   0.19
   4   6     0.13  -0.15  -0.18     0.06  -0.09  -0.08     0.19   0.03  -0.09
   5   1     0.04   0.23   0.23     0.04   0.17   0.15    -0.11  -0.09   0.06
   6   6    -0.17   0.12   0.04    -0.08   0.11   0.01    -0.07   0.13  -0.06
   7   1     0.19  -0.07   0.08     0.10  -0.03   0.10    -0.02   0.01   0.31
   8   6    -0.02   0.05  -0.03     0.01  -0.00  -0.01     0.02  -0.01   0.00
   9   1     0.18   0.03   0.23     0.07   0.01   0.08    -0.05  -0.13  -0.05
  10   6    -0.15  -0.12   0.07    -0.02   0.00   0.04     0.23   0.16  -0.10
  11   1     0.14   0.08  -0.04     0.06  -0.00  -0.06    -0.24  -0.12   0.11
  12   8     0.04   0.02  -0.07    -0.02   0.02  -0.00    -0.07  -0.07   0.12
  13   8     0.03   0.03  -0.04     0.00  -0.00  -0.00    -0.06  -0.04   0.06
  14   8     0.08  -0.02  -0.01     0.02  -0.01  -0.01    -0.05   0.00  -0.00
  15   8     0.02  -0.07   0.05     0.01  -0.07   0.04     0.02  -0.12   0.08
  16   8    -0.09   0.00  -0.03    -0.05   0.01  -0.02    -0.07  -0.02  -0.01
  17   8    -0.01   0.01   0.05     0.04  -0.06  -0.19     0.00   0.00   0.03
  18   1     0.09   0.26   0.14    -0.14  -0.52  -0.20     0.02   0.09   0.03
  19   1     0.03   0.11   0.05    -0.09  -0.18  -0.20     0.04   0.08   0.06
  20   1    -0.01   0.03   0.15    -0.01   0.01  -0.02     0.01  -0.04  -0.25
  21   1    -0.11  -0.03  -0.15    -0.03  -0.01  -0.04     0.08   0.04   0.10
  22   1    -0.07   0.01  -0.22    -0.05   0.02  -0.22    -0.11   0.02  -0.37
  23   1     0.09   0.10   0.15     0.04   0.04   0.07     0.09   0.08   0.13
  24   1     0.01  -0.11  -0.03    -0.04   0.44   0.12    -0.01  -0.07  -0.02
                     52                     53                     54
                        a                      a                      a 
 Frequencies --  1352.0325              1364.7206              1479.8105
 Red. masses --     3.7457                 5.3338                 1.7771
 Frc consts  --     0.0000                 0.0000                 0.0000
 IR Inten    --   146.7812                18.2484                 2.0428
 Raman Activ --     0.0000                 0.0000                 0.0000
 Depolar     --     0.0000                 0.0000                 0.0000
 Atom AN      X      Y      Z        X      Y      Z        X      Y      Z
   1   6     0.03   0.02  -0.04     0.00   0.00  -0.02    -0.11   0.15  -0.18
   2   6    -0.02  -0.13  -0.02     0.03  -0.07   0.04    -0.01   0.01  -0.01
   3   1     0.04   0.27   0.02    -0.06   0.14  -0.05    -0.02  -0.01  -0.02
   4   6    -0.12   0.11   0.21    -0.08  -0.02   0.10     0.01  -0.00  -0.00
   5   1     0.08  -0.14  -0.28     0.15   0.03  -0.16    -0.00   0.01   0.01
   6   6     0.03   0.11  -0.18    -0.13   0.17  -0.22     0.00  -0.00  -0.01
   7   1    -0.05   0.03   0.37     0.14  -0.05   0.25    -0.00  -0.00   0.01
   8   6    -0.17  -0.03  -0.00     0.34  -0.05   0.17    -0.00  -0.00   0.00
   9   1     0.18   0.17   0.25    -0.21  -0.03  -0.34    -0.00   0.00  -0.00
  10   6    -0.00   0.03   0.07    -0.17  -0.13   0.02     0.00  -0.00  -0.01
  11   1     0.01  -0.06  -0.08     0.22   0.19  -0.02    -0.01   0.01   0.01
  12   8     0.02   0.01  -0.03     0.03   0.04  -0.05     0.00  -0.00   0.00
  13   8    -0.00  -0.01   0.01     0.02   0.02  -0.02     0.00   0.00   0.01
  14   8     0.16  -0.02   0.01    -0.18   0.00  -0.05     0.00   0.00   0.00
  15   8     0.02  -0.11   0.08     0.02  -0.08   0.09     0.00  -0.00   0.00
  16   8     0.09  -0.00   0.02     0.03   0.00   0.00    -0.00  -0.00  -0.00
  17   8    -0.01   0.01   0.03    -0.01   0.01   0.02    -0.01   0.02  -0.01
  18   1    -0.01   0.02  -0.01     0.00   0.03   0.01     0.58  -0.34   0.14
  19   1    -0.00  -0.02   0.01    -0.00  -0.01   0.00    -0.08  -0.31   0.60
  20   1     0.00  -0.00  -0.03    -0.00   0.02   0.09    -0.01   0.01  -0.01
  21   1    -0.22  -0.06  -0.31     0.23   0.08   0.31    -0.00   0.00  -0.00
  22   1    -0.11   0.02  -0.33    -0.06   0.02  -0.23    -0.02  -0.00   0.00
  23   1    -0.10  -0.10  -0.16    -0.02  -0.02  -0.03     0.00   0.00   0.00
  24   1     0.00  -0.06  -0.02     0.00  -0.04  -0.01    -0.00   0.02   0.00
                     55                     56                     57
                        a                      a                      a 
 Frequencies --  2876.3086              2878.5325              2879.2742
 Red. masses --     1.7240                 1.7244                 1.7344
 Frc consts  --     0.0000                 0.0000                 0.0000
 IR Inten    --     2.6646               100.4239                28.6092
 Raman Activ --     0.0000                 0.0000                 0.0000
 Depolar     --     0.0000                 0.0000                 0.0000
 Atom AN      X      Y      Z        X      Y      Z        X      Y      Z
   1   6    -0.03   0.01   0.00     0.00   0.00  -0.00     0.07  -0.02  -0.01
   2   6     0.04  -0.01  -0.04    -0.05  -0.00   0.07    -0.13   0.00   0.18
   3   1    -0.13   0.01   0.17     0.21  -0.01  -0.26     0.52  -0.04  -0.66
   4   6     0.11  -0.09   0.08     0.13  -0.11   0.10    -0.02   0.01  -0.00
   5   1    -0.42   0.34  -0.32    -0.48   0.39  -0.37     0.06  -0.05   0.05
   6   6     0.01   0.00   0.00     0.01   0.00   0.00     0.00  -0.00  -0.00
   7   1    -0.01  -0.02  -0.00    -0.01  -0.02  -0.00    -0.00   0.00   0.00
   8   6    -0.00   0.01  -0.01     0.00  -0.00   0.00     0.00   0.00  -0.00
   9   1    -0.00  -0.00   0.00     0.01  -0.00  -0.00    -0.01   0.00   0.01
  10   6    -0.10   0.12  -0.09     0.08  -0.09   0.07    -0.06   0.07  -0.05
  11   1     0.41  -0.44   0.36    -0.32   0.34  -0.28     0.23  -0.25   0.20
  12   8    -0.01   0.00   0.00     0.00  -0.00  -0.00    -0.02   0.01   0.00
  13   8    -0.00  -0.00  -0.01     0.00   0.00   0.01    -0.00  -0.00  -0.01
  14   8     0.00  -0.00   0.00    -0.00   0.00  -0.00    -0.00  -0.00   0.00
  15   8    -0.00  -0.00  -0.00    -0.00  -0.00  -0.00     0.00  -0.00   0.00
  16   8     0.00   0.00   0.01     0.00   0.00   0.01     0.00   0.00  -0.00
  17   8    -0.00   0.00  -0.00     0.00   0.00  -0.00     0.00  -0.00  -0.00
  18   1    -0.00   0.00  -0.01    -0.01  -0.01   0.03    -0.01  -0.02   0.05
  19   1     0.12  -0.05  -0.01    -0.00   0.00  -0.00    -0.24   0.09   0.01
  20   1    -0.01  -0.00  -0.00     0.00   0.00   0.00     0.00   0.00  -0.00
  21   1     0.00   0.00  -0.00     0.00  -0.00  -0.00     0.00  -0.00  -0.00
  22   1     0.00   0.00   0.00     0.00   0.00  -0.00    -0.00   0.00   0.00
  23   1     0.00   0.00  -0.00     0.00   0.00  -0.00    -0.00  -0.00  -0.00
  24   1     0.00  -0.00   0.00     0.00   0.00   0.00    -0.00   0.00   0.00
                     58                     59                     60
                        a                      a                      a 
 Frequencies --  2897.4586              2922.0378              2947.8829
 Red. masses --     1.7439                 1.7471                 1.7512
 Frc consts  --     0.0000                 0.0000                 0.0000
 IR Inten    --    83.2169                32.9083                27.5800
 Raman Activ --     0.0000                 0.0000                 0.0000
 Depolar     --     0.0000                 0.0000                 0.0000
 Atom AN      X      Y      Z        X      Y      Z        X      Y      Z
   1   6     0.23  -0.07  -0.03    -0.00   0.00  -0.00    -0.00   0.00   0.00
   2   6     0.05  -0.00  -0.06     0.00  -0.00   0.00    -0.00   0.00   0.00
   3   1    -0.16   0.01   0.20     0.00   0.00  -0.00     0.01  -0.00  -0.01
   4   6     0.02  -0.02   0.01     0.00   0.01  -0.01    -0.00   0.00  -0.00
   5   1    -0.07   0.06  -0.06     0.02  -0.02   0.02     0.00  -0.00   0.00
   6   6     0.00   0.00   0.00     0.10   0.24   0.01    -0.01  -0.01   0.00
   7   1    -0.00  -0.01  -0.00    -0.38  -0.88  -0.06     0.02   0.03   0.00
   8   6    -0.00   0.00   0.00    -0.01   0.01   0.01    -0.21   0.03   0.15
   9   1     0.01  -0.00  -0.01     0.03  -0.00  -0.02     0.75  -0.11  -0.59
  10   6     0.00  -0.00   0.00    -0.00  -0.00   0.00    -0.01   0.00   0.00
  11   1    -0.01   0.01  -0.00     0.00  -0.00   0.00     0.01  -0.01   0.01
  12   8     0.00  -0.00  -0.00    -0.00  -0.00  -0.00     0.00  -0.00  -0.00
  13   8    -0.00  -0.00   0.00    -0.00  -0.00  -0.00     0.00   0.00  -0.00
  14   8     0.00   0.00   0.00     0.00  -0.00  -0.00     0.00   0.00   0.01
  15   8    -0.00  -0.00  -0.00     0.00   0.00   0.01     0.00  -0.00  -0.00
  16   8     0.00   0.00   0.00    -0.00  -0.00  -0.00     0.00   0.00  -0.00
  17   8     0.00  -0.01  -0.00     0.00   0.00   0.00     0.00  -0.00  -0.00
  18   1     0.02  -0.02   0.03    -0.00  -0.00   0.00     0.00   0.00  -0.00
  19   1    -0.86   0.32   0.06     0.01  -0.00  -0.00     0.01  -0.00  -0.00
  20   1     0.00   0.00   0.00     0.00   0.00  -0.00    -0.00  -0.00  -0.00
  21   1    -0.00   0.00   0.00    -0.00   0.00  -0.00    -0.01  -0.00   0.01
  22   1    -0.00   0.00   0.00     0.00   0.02   0.00    -0.00   0.00  -0.00
  23   1     0.00   0.00   0.00     0.00  -0.00  -0.00    -0.00  -0.00  -0.00
  24   1    -0.00  -0.00   0.00    -0.00  -0.00  -0.00     0.00   0.00   0.00
                     61                     62                     63
                        a                      a                      a 
 Frequencies --  3010.5617              3353.8014              3373.7936
 Red. masses --     1.7213                 1.8822                 1.8799
 Frc consts  --     0.0000                 0.0000                 0.0000
 IR Inten    --     4.1864               202.0629               114.7512
 Raman Activ --     0.0000                 0.0000                 0.0000
 Depolar     --     0.0000                 0.0000                 0.0000
 Atom AN      X      Y      Z        X      Y      Z        X      Y      Z
   1   6     0.09   0.08  -0.22     0.00  -0.00  -0.00     0.00   0.00  -0.00
   2   6     0.01  -0.00  -0.02    -0.00   0.00   0.00     0.00  -0.00   0.00
   3   1    -0.03   0.00   0.04     0.00  -0.00  -0.00    -0.00   0.00   0.00
   4   6    -0.00   0.00  -0.00    -0.00   0.00  -0.00    -0.00   0.00  -0.00
   5   1     0.01  -0.01   0.01     0.00  -0.00   0.00    -0.00   0.00  -0.00
   6   6    -0.00  -0.00   0.00     0.00   0.00   0.00     0.00   0.01   0.01
   7   1     0.00   0.00  -0.00    -0.00  -0.01  -0.00    -0.00  -0.01  -0.00
   8   6    -0.00  -0.00   0.00     0.00  -0.00   0.00    -0.00  -0.00   0.00
   9   1     0.00  -0.00  -0.00    -0.00  -0.00   0.00     0.00  -0.00  -0.00
  10   6    -0.00   0.00  -0.00     0.00   0.00   0.00    -0.00  -0.01  -0.01
  11   1     0.00  -0.00   0.00    -0.00   0.00  -0.00     0.00  -0.00   0.00
  12   8     0.00  -0.00   0.00     0.00   0.00   0.00    -0.00   0.00   0.00
  13   8     0.00   0.00   0.00     0.15   0.12  -0.00    -0.11  -0.09   0.01
  14   8     0.00   0.00   0.00    -0.00   0.00   0.00     0.00  -0.00  -0.00
  15   8     0.00  -0.00  -0.00    -0.02   0.14   0.02    -0.02   0.19   0.03
  16   8     0.00   0.00   0.00     0.00   0.00  -0.00     0.00  -0.00  -0.00
  17   8     0.00   0.01  -0.00    -0.00   0.00  -0.00    -0.00  -0.00   0.00
  18   1    -0.41  -0.29   0.82    -0.00  -0.00  -0.00    -0.00  -0.00   0.01
  19   1     0.06  -0.01  -0.03    -0.00   0.00  -0.00     0.00  -0.00  -0.00
  20   1    -0.00  -0.00  -0.00    -0.61  -0.48   0.00     0.46   0.35  -0.00
  21   1    -0.00   0.00  -0.00     0.01  -0.00  -0.00    -0.01   0.01   0.01
  22   1     0.00   0.01   0.00     0.07  -0.56  -0.10     0.09  -0.76  -0.14
  23   1    -0.00   0.00  -0.00    -0.00  -0.00  -0.00    -0.00  -0.00   0.00
  24   1     0.00   0.00  -0.01    -0.01  -0.01   0.02     0.01   0.01  -0.01
                     64                     65                     66
                        a                      a                      a 
 Frequencies --  3447.9329              3524.9926              3537.9176
 Red. masses --     1.8745                 1.8693                 1.8699
 Frc consts  --     0.0000                 0.0000                 0.0000
 IR Inten    --    97.1442                15.1631                 7.9817
 Raman Activ --     0.0000                 0.0000                 0.0000
 Depolar     --     0.0000                 0.0000                 0.0000
 Atom AN      X      Y      Z        X      Y      Z        X      Y      Z
   1   6    -0.00   0.00   0.00    -0.00  -0.01   0.01     0.00  -0.00   0.00
   2   6    -0.00   0.00   0.00     0.00  -0.00  -0.00     0.00   0.00  -0.00
   3   1     0.00   0.00  -0.00    -0.00  -0.00  -0.00     0.00   0.00   0.00
   4   6     0.00   0.00   0.00     0.00  -0.00  -0.00    -0.00   0.00   0.01
   5   1    -0.00  -0.00  -0.00    -0.00   0.00  -0.00     0.00  -0.00  -0.00
   6   6    -0.00  -0.00   0.00     0.00   0.00   0.00     0.00  -0.00   0.00
   7   1     0.00   0.00  -0.00     0.00   0.00  -0.00     0.00   0.00  -0.00
   8   6     0.00  -0.00  -0.01    -0.00   0.00  -0.00     0.00  -0.00  -0.00
   9   1    -0.01   0.00   0.00     0.00   0.00  -0.00    -0.00   0.00   0.00
  10   6    -0.00  -0.00   0.00    -0.00  -0.00  -0.00    -0.00   0.00   0.00
  11   1     0.00  -0.00  -0.00     0.00  -0.00  -0.00     0.00   0.00  -0.00
  12   8     0.00  -0.00  -0.00    -0.00   0.00   0.00    -0.00  -0.00  -0.00
  13   8     0.00   0.00   0.00     0.01   0.00  -0.00     0.00   0.00  -0.00
  14   8     0.18  -0.09  -0.13    -0.00   0.00   0.00     0.01  -0.01  -0.01
  15   8     0.00  -0.00  -0.00    -0.00   0.00   0.00    -0.00   0.00   0.00
  16   8     0.01  -0.00  -0.01     0.00  -0.00  -0.00    -0.20   0.03   0.13
  17   8     0.00  -0.00  -0.00    -0.06  -0.08   0.22    -0.00  -0.00   0.00
  18   1    -0.00   0.00  -0.00     0.00  -0.00  -0.01    -0.00  -0.00  -0.00
  19   1     0.00  -0.00   0.00    -0.00   0.00   0.00     0.00   0.00  -0.00
  20   1    -0.01  -0.01   0.00    -0.02  -0.02   0.00    -0.00  -0.00   0.00
  21   1    -0.72   0.37   0.54     0.00  -0.00  -0.00    -0.04   0.02   0.03
  22   1    -0.00   0.01   0.00     0.00  -0.00  -0.00    -0.00  -0.00   0.00
  23   1    -0.05   0.01   0.03    -0.01   0.00   0.01     0.81  -0.11  -0.53
  24   1    -0.00   0.00   0.00     0.26   0.35  -0.87     0.00   0.00  -0.01
