 Entering Gaussian System
 *********************************************
 Gaussian 98:
 frequency output generated by the xtb code
 *********************************************
                         Standard orientation:
 --------------------------------------------------------------------
  Center     Atomic     Atomic              Coordinates (Angstroms)
  Number     Number      Type              X           Y           Z
 --------------------------------------------------------------------
    1          6             0        1.384967    2.465374    1.205638
    2          6             0        1.694682    1.677039   -0.066444
    3          6             0        2.774201    0.594024    0.188972
    4          6             0        1.983606   -0.678002    0.129403
    5          6             0        2.348150   -1.988680    0.340228
    6          6             0        1.383798   -2.978520    0.201359
    7          6             0        0.078759   -2.653467   -0.124181
    8          6             0       -0.292387   -1.332862   -0.339108
    9          6             0        0.676844   -0.345481   -0.223719
   10          8             0        0.490616    0.971648   -0.440853
   11          8             0       -1.602641   -1.025022   -0.684440
   12          6             0       -2.238337   -0.119986    0.115847
   13          8             0       -1.835272    0.258901    1.183130
   14          7             0       -3.400446    0.247160   -0.463797
   15          6             0       -4.323281    1.156991    0.163248
   16          6             0        2.066486    2.608638   -1.216438
   17          1             0        1.059795    1.782684    1.987298
   18          1             0        2.264773    3.009532    1.539692
   19          1             0        0.578992    3.169108    1.015117
   20          1             0        3.550060    0.612472   -0.580166
   21          1             0        3.253886    0.732006    1.158445
   22          1             0        3.362671   -2.240620    0.609104
   23          1             0        1.648855   -4.012033    0.361522
   24          1             0       -0.674612   -3.420058   -0.215659
   25          1             0       -3.625737   -0.144390   -1.363505
   26          1             0       -5.285073    0.672767    0.345745
   27          1             0       -4.478996    2.040395   -0.459213
   28          1             0       -3.885591    1.458371    1.113304
   29          1             0        1.253464    3.305064   -1.404078
   30          1             0        2.243814    2.033199   -2.122409
   31          1             0        2.963905    3.168664   -0.967189
 --------------------------------------------------------------------
     1 basis functions        1 primitive gaussians
     1 alpha electrons        1 beta electrons
 
 Harmonic frequencies (cm**-1), IR intensities (km*mol⁻¹),
 Raman scattering activities (A**4/amu), Raman depolarization ratios,
 reduced masses (AMU), force constants (mDyne/A) and normal coordinates:
                      1                      2                      3
                        a                      a                      a 
 Frequencies --    32.1371                41.1408                52.4033
 Red. masses --     9.9027                10.6828                11.5821
 Frc consts  --     0.0000                 0.0000                 0.0000
 IR Inten    --     0.0222                 5.2049                 2.4090
 Raman Activ --     0.0000                 0.0000                 0.0000
 Depolar     --     0.0000                 0.0000                 0.0000
 Atom AN      X      Y      Z        X      Y      Z        X      Y      Z
   1   6     0.14   0.33  -0.17    -0.10   0.24  -0.09     0.33   0.08   0.09
   2   6     0.11   0.03   0.02    -0.13   0.01   0.04     0.06  -0.01   0.08
   3   6     0.01  -0.02   0.26    -0.11   0.06   0.17     0.06  -0.04  -0.06
   4   6    -0.02   0.01   0.10    -0.03   0.01   0.04     0.04  -0.02  -0.05
   5   6    -0.06  -0.01   0.04     0.05   0.01  -0.09     0.09  -0.04  -0.23
   6   6    -0.07   0.02  -0.09     0.12  -0.03  -0.17     0.08  -0.04  -0.20
   7   6    -0.04   0.07  -0.16     0.09  -0.09  -0.12     0.04  -0.01  -0.02
   8   6    -0.00   0.09  -0.09     0.00  -0.09   0.02    -0.01   0.01   0.16
   9   6     0.01   0.06   0.03    -0.05  -0.05   0.09    -0.01   0.01   0.17
  10   8     0.07   0.09   0.12    -0.17  -0.05   0.22    -0.04   0.03   0.37
  11   8     0.02   0.16  -0.16    -0.01  -0.12   0.06    -0.03  -0.07   0.23
  12   6    -0.06  -0.03  -0.01     0.04  -0.06   0.05    -0.07   0.06   0.02
  13   8    -0.10  -0.17   0.04    -0.02  -0.26   0.15    -0.14   0.34  -0.05
  14   7    -0.10  -0.06   0.05     0.18   0.19  -0.05    -0.09  -0.13  -0.09
  15   6    -0.19  -0.26   0.19     0.29   0.33  -0.11    -0.18  -0.08  -0.29
  16   6     0.26  -0.25  -0.17    -0.17  -0.19  -0.14    -0.11  -0.09  -0.04
  17   1     0.00   0.16  -0.01    -0.03   0.11   0.01     0.14   0.04   0.06
  18   1     0.05   0.08  -0.07    -0.02   0.08  -0.06     0.12   0.03  -0.04
  19   1     0.07   0.12  -0.11    -0.02   0.07  -0.06     0.09   0.02   0.06
  20   1     0.06  -0.01   0.13     0.00   0.04   0.08    -0.00  -0.00  -0.04
  21   1    -0.06  -0.01   0.11    -0.08   0.02   0.07     0.04  -0.03  -0.03
  22   1    -0.03  -0.02   0.03     0.02   0.01  -0.04     0.04  -0.02  -0.12
  23   1    -0.03  -0.00  -0.04     0.05  -0.01  -0.08     0.03  -0.01  -0.10
  24   1    -0.02   0.03  -0.08     0.04  -0.04  -0.05     0.01  -0.00  -0.01
  25   1    -0.02   0.01  -0.00     0.06   0.09  -0.03    -0.01  -0.10   0.00
  26   1    -0.04  -0.12   0.04     0.04   0.16  -0.09    -0.04  -0.04  -0.05
  27   1    -0.09  -0.05   0.09     0.17   0.12  -0.01    -0.08  -0.07  -0.14
  28   1    -0.06  -0.10   0.07     0.06   0.04  -0.00    -0.06   0.06  -0.11
  29   1     0.09  -0.07  -0.11    -0.06  -0.07  -0.07    -0.03  -0.02   0.02
  30   1     0.08  -0.13  -0.01    -0.05  -0.10  -0.01    -0.08  -0.04  -0.01
  31   1     0.08  -0.08  -0.07    -0.05  -0.03  -0.07    -0.01  -0.03  -0.07
                      4                      5                      6
                        a                      a                      a 
 Frequencies --    63.8816                96.1287               128.5487
 Red. masses --    12.0939                 9.0440                11.2632
 Frc consts  --     0.0000                 0.0000                 0.0000
 IR Inten    --     6.9506                 4.4968                 0.1814
 Raman Activ --     0.0000                 0.0000                 0.0000
 Depolar     --     0.0000                 0.0000                 0.0000
 Atom AN      X      Y      Z        X      Y      Z        X      Y      Z
   1   6    -0.26   0.06  -0.03    -0.03  -0.01  -0.00    -0.29  -0.05  -0.10
   2   6    -0.09  -0.02   0.06    -0.05  -0.02  -0.00     0.03  -0.01  -0.05
   3   6    -0.10   0.01   0.24    -0.02  -0.00  -0.02     0.01   0.00   0.12
   4   6    -0.04  -0.02   0.06    -0.00  -0.02   0.01     0.05  -0.02  -0.08
   5   6    -0.01  -0.02  -0.01     0.01  -0.02   0.01     0.09  -0.03  -0.20
   6   6     0.04  -0.05  -0.14     0.01  -0.02   0.02     0.09  -0.02  -0.19
   7   6     0.03  -0.07  -0.14     0.00  -0.04   0.03     0.03   0.00   0.04
   8   6    -0.00  -0.06  -0.06    -0.00  -0.05   0.03     0.01   0.01   0.12
   9   6    -0.02  -0.05  -0.02    -0.01  -0.04   0.03     0.05  -0.02  -0.09
  10   8    -0.04  -0.06  -0.04    -0.06  -0.06   0.05     0.12  -0.04  -0.29
  11   8    -0.04  -0.10   0.06     0.01  -0.01   0.03    -0.04  -0.01   0.33
  12   6     0.11   0.10  -0.04     0.08   0.11  -0.04    -0.06   0.05   0.21
  13   8     0.40   0.49  -0.29     0.02  -0.00   0.02    -0.22   0.06   0.29
  14   7    -0.06  -0.14   0.15     0.35   0.53  -0.29     0.06   0.10  -0.01
  15   6     0.07   0.01   0.12    -0.12  -0.23   0.14    -0.17  -0.02  -0.17
  16   6     0.04  -0.09   0.04    -0.12  -0.03  -0.03     0.29   0.01   0.06
  17   1    -0.12   0.03  -0.02     0.01  -0.00   0.01    -0.17  -0.02  -0.07
  18   1    -0.08   0.01   0.02    -0.01   0.01  -0.01    -0.10  -0.04   0.06
  19   1    -0.06   0.02  -0.06    -0.02  -0.01   0.00    -0.05   0.01  -0.09
  20   1     0.02   0.02   0.12    -0.01   0.00  -0.01     0.05   0.02   0.09
  21   1    -0.09  -0.00   0.10    -0.00   0.00  -0.01    -0.07  -0.01   0.07
  22   1    -0.00  -0.00   0.01     0.00  -0.00  -0.00     0.03  -0.01  -0.08
  23   1     0.02  -0.02  -0.06     0.01  -0.01   0.01     0.03  -0.01  -0.09
  24   1     0.02  -0.02  -0.06     0.00  -0.02   0.01     0.00   0.00   0.05
  25   1    -0.08  -0.12   0.09     0.03   0.04  -0.02     0.06   0.00  -0.00
  26   1     0.05  -0.00   0.18     0.12  -0.30   0.26    -0.05  -0.04  -0.11
  27   1    -0.06  -0.07  -0.05    -0.37  -0.16   0.00    -0.04  -0.01  -0.05
  28   1     0.10   0.12  -0.04     0.06   0.11  -0.06    -0.12   0.00  -0.02
  29   1     0.01  -0.04  -0.04    -0.04  -0.02  -0.00     0.09  -0.01  -0.05
  30   1     0.05  -0.05   0.03    -0.04  -0.01  -0.01     0.18   0.01   0.03
  31   1    -0.01  -0.01   0.04    -0.04   0.00  -0.02     0.05   0.02   0.10
                      7                      8                      9
                        a                      a                      a 
 Frequencies --   138.9320               189.0024               204.3134
 Red. masses --     4.7618                 1.7487                 9.0605
 Frc consts  --     0.0000                 0.0000                 0.0000
 IR Inten    --     1.5548                 0.0601                 1.1548
 Raman Activ --     0.0000                 0.0000                 0.0000
 Depolar     --     0.0000                 0.0000                 0.0000
 Atom AN      X      Y      Z        X      Y      Z        X      Y      Z
   1   6    -0.06  -0.02  -0.00    -0.11  -0.01  -0.04     0.07   0.11   0.04
   2   6    -0.05  -0.03   0.00    -0.01  -0.00  -0.01    -0.02   0.05   0.05
   3   6    -0.01  -0.00   0.00    -0.01   0.01   0.01    -0.08   0.00   0.02
   4   6     0.02  -0.03   0.02    -0.02   0.01   0.07    -0.08   0.04  -0.19
   5   6     0.01  -0.03  -0.00    -0.01   0.01   0.06     0.03   0.07  -0.24
   6   6     0.01  -0.03  -0.01     0.02  -0.00  -0.06     0.04   0.03   0.09
   7   6     0.00  -0.04   0.01     0.03  -0.01  -0.09    -0.01   0.01   0.28
   8   6     0.01  -0.04   0.03     0.00  -0.00  -0.00    -0.06  -0.03   0.05
   9   6     0.01  -0.05   0.04    -0.00  -0.00   0.01    -0.12   0.06  -0.08
  10   8    -0.04  -0.07   0.04     0.01  -0.01  -0.06    -0.08   0.13   0.04
  11   8     0.03   0.04   0.03    -0.01  -0.00   0.05    -0.15  -0.35   0.05
  12   6     0.10   0.16  -0.05    -0.00   0.01   0.04    -0.05  -0.12  -0.13
  13   8     0.14   0.26  -0.10    -0.01   0.02   0.04     0.02  -0.04  -0.21
  14   7     0.12   0.17  -0.08     0.01   0.01   0.02     0.02   0.07  -0.15
  15   6    -0.12  -0.20   0.10    -0.02   0.00  -0.02     0.12  -0.03   0.15
  16   6    -0.12  -0.04  -0.03     0.12  -0.02   0.02     0.26   0.01   0.11
  17   1     0.00  -0.01   0.01     0.33  -0.04   0.11    -0.12   0.06  -0.02
  18   1    -0.02   0.01  -0.01    -0.15   0.32  -0.22     0.08  -0.10   0.07
  19   1    -0.03  -0.02   0.00    -0.30  -0.29   0.06     0.13   0.15  -0.02
  20   1    -0.01   0.00  -0.00    -0.02  -0.01  -0.01     0.00   0.03   0.04
  21   1    -0.00   0.01  -0.00     0.01   0.02  -0.01    -0.06  -0.05   0.03
  22   1     0.00  -0.01  -0.01    -0.01   0.01   0.03     0.03   0.04  -0.12
  23   1     0.00  -0.01  -0.01     0.01  -0.00  -0.03     0.02   0.02   0.06
  24   1     0.00  -0.01   0.00     0.01  -0.01  -0.05    -0.01   0.00   0.15
  25   1     0.06   0.08  -0.04     0.01  -0.00   0.01    -0.06  -0.01  -0.01
  26   1    -0.14  -0.02  -0.41    -0.00  -0.00  -0.01     0.02   0.00   0.02
  27   1     0.23   0.18   0.30    -0.01  -0.00  -0.01     0.05   0.05   0.12
  28   1    -0.26  -0.43   0.25    -0.01   0.01  -0.00     0.06  -0.10   0.06
  29   1    -0.05  -0.03  -0.01     0.22   0.27   0.22     0.21   0.18   0.12
  30   1    -0.03  -0.02  -0.01    -0.32   0.01  -0.08    -0.10   0.01  -0.01
  31   1    -0.04   0.00  -0.02     0.26  -0.31  -0.13     0.21  -0.19  -0.00
                     10                     11                     12
                        a                      a                      a 
 Frequencies --   213.8873               228.4990               241.2777
 Red. masses --     7.9757                 7.6304                10.1133
 Frc consts  --     0.0000                 0.0000                 0.0000
 IR Inten    --     0.8088                 0.6440                 2.6811
 Raman Activ --     0.0000                 0.0000                 0.0000
 Depolar     --     0.0000                 0.0000                 0.0000
 Atom AN      X      Y      Z        X      Y      Z        X      Y      Z
   1   6    -0.14   0.06   0.01    -0.12   0.00   0.04     0.15   0.15   0.02
   2   6     0.00  -0.02   0.09    -0.08  -0.01   0.05    -0.01   0.04   0.04
   3   6     0.04   0.01   0.12    -0.02   0.02   0.04    -0.09  -0.03   0.02
   4   6     0.14  -0.06  -0.22     0.08  -0.03  -0.14    -0.11  -0.00  -0.20
   5   6     0.11  -0.09  -0.35     0.00  -0.06  -0.11    -0.16   0.02  -0.01
   6   6    -0.05  -0.00   0.10    -0.09  -0.00   0.10    -0.14  -0.01   0.11
   7   6    -0.11   0.05   0.37    -0.09   0.02   0.10    -0.10  -0.00  -0.01
   8   6     0.02   0.03   0.04     0.05   0.02  -0.09    -0.04  -0.02  -0.17
   9   6     0.10  -0.04  -0.05     0.08  -0.04  -0.09    -0.09   0.05  -0.21
  10   8     0.04  -0.06   0.10    -0.06  -0.05   0.08    -0.08   0.13   0.03
  11   8     0.11   0.18  -0.18     0.16   0.31  -0.14    -0.12  -0.17   0.08
  12   6    -0.02   0.02  -0.11     0.14   0.09   0.10     0.14  -0.05   0.16
  13   8    -0.07  -0.02  -0.09     0.20  -0.05   0.15     0.40  -0.12   0.11
  14   7    -0.10  -0.05  -0.02     0.07  -0.09   0.15     0.21   0.00   0.10
  15   6     0.05   0.03   0.08    -0.10  -0.04  -0.20    -0.10  -0.09  -0.25
  16   6    -0.07  -0.07   0.03    -0.15  -0.10  -0.04     0.08   0.08   0.10
  17   1     0.18   0.01   0.09    -0.25   0.02  -0.06     0.20   0.06   0.09
  18   1    -0.13   0.24  -0.12     0.02  -0.17   0.14     0.03   0.16  -0.13
  19   1    -0.21  -0.18   0.02     0.12   0.16  -0.05    -0.05  -0.05   0.05
  20   1     0.07   0.07   0.09     0.02   0.06   0.04     0.00   0.01   0.03
  21   1    -0.06  -0.04   0.08    -0.04  -0.02   0.03    -0.06  -0.05   0.03
  22   1     0.05  -0.05  -0.18    -0.00  -0.04  -0.04    -0.05   0.02   0.03
  23   1    -0.03  -0.00   0.07    -0.05   0.00   0.07    -0.05   0.01   0.09
  24   1    -0.06   0.03   0.21    -0.04   0.02   0.07    -0.05   0.01   0.03
  25   1    -0.03   0.03  -0.02     0.09  -0.00   0.01     0.09  -0.07   0.05
  26   1     0.02   0.03   0.07    -0.02  -0.03  -0.06    -0.03  -0.06  -0.15
  27   1    -0.00   0.00   0.02    -0.04  -0.06  -0.13    -0.01  -0.05  -0.11
  28   1     0.06   0.01   0.00    -0.08   0.07  -0.06    -0.13   0.02  -0.04
  29   1    -0.09  -0.13  -0.08     0.07   0.15   0.15    -0.03  -0.06  -0.06
  30   1     0.11  -0.04   0.05    -0.33  -0.04  -0.06     0.18   0.03   0.05
  31   1    -0.10   0.10   0.04     0.12  -0.22  -0.16    -0.06   0.12   0.11
                     13                     14                     15
                        a                      a                      a 
 Frequencies --   284.7750               305.4980               331.9116
 Red. masses --    10.7070                 9.1552                 9.7504
 Frc consts  --     0.0000                 0.0000                 0.0000
 IR Inten    --     1.2652                 1.3497                 3.2819
 Raman Activ --     0.0000                 0.0000                 0.0000
 Depolar     --     0.0000                 0.0000                 0.0000
 Atom AN      X      Y      Z        X      Y      Z        X      Y      Z
   1   6     0.09  -0.07   0.13     0.05   0.39  -0.21     0.24  -0.10   0.06
   2   6     0.00  -0.03   0.09     0.01   0.01   0.00     0.08   0.03  -0.06
   3   6     0.02   0.01   0.13     0.02  -0.04   0.00    -0.02   0.02   0.40
   4   6     0.12  -0.02  -0.34     0.10  -0.15  -0.05    -0.05   0.03   0.18
   5   6     0.09   0.07   0.19    -0.06  -0.20   0.06    -0.05  -0.01  -0.07
   6   6     0.10   0.07   0.20    -0.11  -0.17   0.01    -0.04  -0.00  -0.15
   7   6     0.17  -0.00  -0.18    -0.07  -0.12  -0.08    -0.08   0.06   0.14
   8   6     0.06  -0.03  -0.27     0.04  -0.08  -0.02    -0.03   0.06   0.07
   9   6     0.12  -0.06  -0.42     0.11  -0.13  -0.08     0.00   0.05  -0.02
  10   8     0.02  -0.02   0.02     0.11  -0.12  -0.03     0.21   0.03  -0.41
  11   8    -0.10  -0.08   0.13     0.05  -0.00   0.08    -0.05  -0.10   0.04
  12   6    -0.11   0.02   0.03    -0.01   0.00   0.01    -0.01  -0.05  -0.00
  13   8    -0.26   0.16   0.05    -0.18   0.11   0.04     0.08  -0.07  -0.04
  14   7    -0.09   0.08  -0.02     0.01  -0.05  -0.06     0.02   0.01  -0.02
  15   6    -0.04   0.07   0.08     0.10  -0.03   0.05     0.01  -0.01  -0.02
  16   6    -0.11  -0.16  -0.04    -0.15   0.37   0.22    -0.29   0.10  -0.12
  17   1     0.05  -0.03   0.04    -0.04   0.23   0.01     0.12  -0.06   0.01
  18   1     0.04  -0.03   0.02     0.04   0.10  -0.11     0.10  -0.06  -0.02
  19   1     0.02  -0.02   0.07     0.07   0.15  -0.15     0.07  -0.01   0.11
  20   1     0.08   0.08   0.12     0.01   0.01   0.01     0.11  -0.01   0.23
  21   1    -0.09  -0.06   0.10    -0.01  -0.02   0.01    -0.15   0.02   0.19
  22   1    -0.00   0.05   0.18    -0.03  -0.09   0.06    -0.01  -0.01  -0.05
  23   1     0.00   0.03   0.16    -0.05  -0.05   0.02    -0.00  -0.01  -0.10
  24   1     0.06  -0.01  -0.02    -0.04  -0.02  -0.03    -0.04   0.03   0.07
  25   1    -0.05   0.00   0.01    -0.00  -0.01  -0.02    -0.01  -0.02   0.01
  26   1    -0.01   0.03   0.03     0.03   0.00   0.04     0.00  -0.00  -0.01
  27   1    -0.01   0.03   0.04     0.03   0.00   0.04     0.00   0.00  -0.00
  28   1     0.00  -0.00   0.02     0.06  -0.03   0.01    -0.00  -0.01  -0.00
  29   1    -0.04  -0.05  -0.01    -0.05   0.14   0.20    -0.13   0.01   0.08
  30   1    -0.08  -0.09   0.01    -0.09   0.23  -0.02    -0.20   0.04  -0.06
  31   1    -0.02  -0.04  -0.08    -0.03   0.08   0.09    -0.07   0.05  -0.16
                     16                     17                     18
                        a                      a                      a 
 Frequencies --   347.9469               373.0301               452.3079
 Red. masses --    11.2512                10.6832                 9.0259
 Frc consts  --     0.0000                 0.0000                 0.0000
 IR Inten    --    10.5742                 7.5432                 0.7521
 Raman Activ --     0.0000                 0.0000                 0.0000
 Depolar     --     0.0000                 0.0000                 0.0000
 Atom AN      X      Y      Z        X      Y      Z        X      Y      Z
   1   6     0.07   0.09  -0.08    -0.28   0.03  -0.01     0.02  -0.27  -0.23
   2   6    -0.00  -0.07  -0.00     0.28   0.06   0.10     0.08   0.00  -0.31
   3   6     0.02  -0.03   0.02     0.27  -0.03  -0.06     0.01   0.01   0.16
   4   6     0.05  -0.05   0.06     0.13  -0.02  -0.04     0.05  -0.01  -0.18
   5   6     0.23   0.01   0.02    -0.05  -0.07   0.02    -0.01  -0.01  -0.03
   6   6     0.22   0.01   0.04    -0.16   0.02   0.00    -0.05  -0.00   0.17
   7   6     0.16  -0.06   0.07    -0.08   0.14  -0.08     0.02  -0.05  -0.16
   8   6    -0.06  -0.10  -0.01     0.00   0.16  -0.01    -0.00  -0.02   0.07
   9   6     0.01  -0.14   0.04     0.11   0.09   0.05    -0.05   0.02   0.23
  10   8     0.05  -0.16  -0.02     0.29   0.11   0.20    -0.15   0.02   0.36
  11   8    -0.14  -0.02  -0.17    -0.17  -0.29   0.12     0.02   0.00  -0.00
  12   6    -0.12   0.03  -0.07    -0.09  -0.13  -0.00     0.00   0.00  -0.01
  13   8     0.22  -0.19  -0.15     0.15  -0.13  -0.11     0.02  -0.01  -0.02
  14   7    -0.24   0.26   0.18    -0.01   0.11  -0.03    -0.01   0.01   0.01
  15   6    -0.43   0.25  -0.01    -0.07   0.05  -0.02    -0.02   0.01   0.00
  16   6    -0.01   0.08   0.11    -0.12  -0.01  -0.09     0.08   0.29  -0.16
  17   1     0.01   0.07   0.01    -0.17  -0.01  -0.06     0.01  -0.16  -0.14
  18   1     0.04   0.02  -0.06    -0.17   0.06   0.14    -0.03  -0.07   0.01
  19   1     0.04   0.04  -0.05    -0.10  -0.04  -0.13    -0.03  -0.10  -0.02
  20   1     0.00  -0.01   0.00     0.04  -0.01  -0.06     0.19   0.03   0.24
  21   1     0.01   0.00   0.00     0.13  -0.03  -0.04    -0.23  -0.01   0.17
  22   1     0.08   0.02  -0.01    -0.03  -0.06   0.02    -0.00  -0.01  -0.01
  23   1     0.07   0.00   0.00    -0.08  -0.00   0.01    -0.02   0.00   0.09
  24   1     0.09  -0.06   0.03    -0.05   0.07  -0.04     0.02  -0.02  -0.11
  25   1    -0.09   0.08   0.05    -0.09  -0.10   0.07    -0.00   0.01  -0.00
  26   1    -0.12   0.04  -0.05    -0.02   0.01  -0.03    -0.00   0.00  -0.00
  27   1    -0.12   0.04  -0.05    -0.00   0.02   0.00    -0.01   0.00  -0.00
  28   1    -0.20   0.12   0.01    -0.04   0.00   0.01    -0.01   0.00   0.00
  29   1    -0.00   0.03   0.07    -0.09  -0.05   0.03     0.03   0.11   0.03
  30   1     0.00   0.07   0.00    -0.12  -0.04  -0.02     0.05   0.19  -0.11
  31   1    -0.00   0.01   0.07    -0.03   0.04  -0.15     0.02   0.06   0.04
                     19                     20                     21
                        a                      a                      a 
 Frequencies --   465.6075               488.1556               513.0760
 Red. masses --     2.8155                10.2228                10.6508
 Frc consts  --     0.0000                 0.0000                 0.0000
 IR Inten    --   105.2033                 1.2267                 4.2912
 Raman Activ --     0.0000                 0.0000                 0.0000
 Depolar     --     0.0000                 0.0000                 0.0000
 Atom AN      X      Y      Z        X      Y      Z        X      Y      Z
   1   6    -0.04   0.02   0.01     0.03   0.04   0.19    -0.02  -0.01  -0.08
   2   6     0.09   0.02   0.04    -0.23   0.18  -0.02     0.08  -0.11   0.04
   3   6     0.03  -0.05  -0.01    -0.01   0.34  -0.05    -0.01  -0.21  -0.04
   4   6    -0.04  -0.01  -0.07     0.31   0.04  -0.15    -0.10  -0.06  -0.37
   5   6    -0.04   0.01   0.03    -0.12  -0.09   0.14    -0.09   0.08   0.32
   6   6     0.02  -0.03  -0.01    -0.17  -0.07  -0.13     0.15  -0.04  -0.24
   7   6     0.02  -0.02  -0.01    -0.18  -0.09  -0.05     0.08   0.06   0.11
   8   6    -0.02  -0.01   0.07     0.05  -0.00   0.31    -0.07   0.08   0.47
   9   6    -0.04   0.03  -0.03     0.22  -0.09  -0.02    -0.08   0.10  -0.15
  10   8     0.05   0.08   0.00    -0.05  -0.13  -0.04    -0.06   0.13   0.02
  11   8    -0.05  -0.13   0.09     0.10  -0.08   0.12     0.13   0.18  -0.02
  12   6     0.05   0.08  -0.07    -0.04  -0.04  -0.08     0.00   0.04  -0.06
  13   8     0.06   0.02  -0.06     0.10  -0.13  -0.13     0.10  -0.12  -0.05
  14   7    -0.11  -0.16   0.09    -0.09   0.04  -0.01    -0.02  -0.01  -0.05
  15   6    -0.03  -0.02   0.02    -0.09   0.06   0.02     0.01  -0.01  -0.01
  16   6    -0.03   0.00  -0.01     0.11   0.01  -0.10    -0.06  -0.06   0.10
  17   1    -0.02   0.00  -0.00     0.07  -0.03   0.04    -0.03   0.03  -0.00
  18   1    -0.03   0.02   0.03     0.06  -0.04   0.01    -0.03   0.03  -0.02
  19   1    -0.02  -0.01  -0.03     0.02   0.05   0.18    -0.01  -0.02  -0.09
  20   1     0.01  -0.02   0.00     0.02   0.19   0.01     0.05  -0.01   0.04
  21   1     0.01  -0.04   0.00    -0.03   0.11  -0.00    -0.07  -0.15   0.04
  22   1    -0.01   0.02   0.03    -0.07  -0.11   0.10    -0.04   0.09   0.19
  23   1     0.01  -0.01  -0.01    -0.04  -0.02  -0.07     0.06  -0.02  -0.16
  24   1     0.00  -0.00  -0.01    -0.07   0.00  -0.05     0.03   0.01  -0.02
  25   1     0.41   0.70  -0.41    -0.03   0.05  -0.02    -0.07  -0.11   0.05
  26   1     0.02  -0.04   0.07    -0.02   0.01   0.01    -0.00   0.01   0.00
  27   1    -0.07  -0.04  -0.02    -0.03   0.02   0.00     0.01   0.01   0.01
  28   1     0.02   0.05  -0.02    -0.03   0.02   0.00     0.02  -0.02  -0.00
  29   1    -0.03  -0.02   0.01     0.10   0.05  -0.15    -0.05  -0.04   0.08
  30   1    -0.03  -0.01  -0.00     0.08  -0.07   0.02    -0.04   0.01   0.01
  31   1    -0.01   0.02  -0.04     0.05  -0.05   0.02    -0.03   0.01   0.01
                     22                     23                     24
                        a                      a                      a 
 Frequencies --   515.8720               527.5108               574.6282
 Red. masses --    10.8851                11.3060                11.2510
 Frc consts  --     0.0000                 0.0000                 0.0000
 IR Inten    --     4.9751                 4.0557                 1.9453
 Raman Activ --     0.0000                 0.0000                 0.0000
 Depolar     --     0.0000                 0.0000                 0.0000
 Atom AN      X      Y      Z        X      Y      Z        X      Y      Z
   1   6    -0.00  -0.09  -0.07    -0.07   0.09   0.20    -0.01  -0.03  -0.03
   2   6     0.04   0.05  -0.11     0.10   0.25   0.04    -0.23  -0.03  -0.07
   3   6     0.00   0.04   0.04    -0.10  -0.06  -0.01    -0.24  -0.14  -0.02
   4   6    -0.02   0.01   0.24    -0.18  -0.08  -0.01     0.02  -0.27   0.09
   5   6    -0.04  -0.03   0.18    -0.14  -0.14  -0.08     0.18  -0.33   0.02
   6   6     0.08  -0.08  -0.36     0.10  -0.41   0.13     0.03  -0.17   0.07
   7   6    -0.08   0.01   0.35     0.15  -0.28   0.01     0.21   0.42  -0.03
   8   6     0.07  -0.04  -0.26     0.18  -0.17   0.03     0.15   0.35  -0.04
   9   6     0.13  -0.06  -0.39    -0.09   0.14  -0.02     0.12   0.18   0.00
  10   8    -0.11   0.03   0.37     0.07   0.28  -0.06    -0.17   0.11  -0.04
  11   8    -0.01  -0.04  -0.01     0.23   0.01  -0.06     0.06  -0.07   0.12
  12   6     0.01  -0.00   0.00     0.05   0.01  -0.06    -0.04  -0.04  -0.01
  13   8    -0.04   0.04   0.01    -0.11   0.02  -0.00     0.05  -0.04  -0.05
  14   7    -0.01   0.01   0.02    -0.04   0.08   0.09    -0.03   0.01  -0.02
  15   6    -0.02   0.02   0.01    -0.13   0.10   0.04    -0.03   0.02   0.01
  16   6     0.06   0.14  -0.12     0.04   0.12  -0.21    -0.03  -0.01   0.01
  17   1    -0.01  -0.08  -0.07    -0.02  -0.04  -0.00     0.03  -0.00   0.01
  18   1    -0.03  -0.02   0.04    -0.06   0.04   0.13     0.03  -0.03  -0.06
  19   1    -0.02  -0.04  -0.00    -0.05  -0.00   0.08     0.01   0.02   0.04
  20   1    -0.03  -0.06  -0.02    -0.04  -0.04  -0.02    -0.07  -0.03  -0.01
  21   1     0.04   0.08  -0.02    -0.00  -0.05  -0.01    -0.06   0.01  -0.02
  22   1    -0.03  -0.01   0.13    -0.02   0.02  -0.04     0.06  -0.08   0.00
  23   1     0.03  -0.03  -0.15     0.06  -0.11   0.06    -0.13  -0.08   0.01
  24   1    -0.06   0.02   0.26     0.01  -0.05  -0.02    -0.01   0.19  -0.01
  25   1     0.00   0.02  -0.01    -0.09  -0.04   0.07     0.00   0.04  -0.02
  26   1    -0.01   0.00  -0.00    -0.03   0.02  -0.02    -0.01   0.01   0.01
  27   1    -0.01   0.00  -0.00    -0.03   0.01  -0.01    -0.01   0.01   0.00
  28   1    -0.01   0.01   0.00    -0.07   0.05   0.02    -0.00   0.00   0.00
  29   1     0.02   0.05  -0.02    -0.01   0.01  -0.09     0.02   0.02  -0.02
  30   1     0.04   0.07  -0.05    -0.03  -0.04  -0.02     0.02   0.01  -0.00
  31   1     0.01   0.03   0.00     0.02   0.07  -0.15    -0.01  -0.03   0.06
                     25                     26                     27
                        a                      a                      a 
 Frequencies --   606.3688               650.3550               676.0122
 Red. masses --    11.6736                12.1710                12.3673
 Frc consts  --     0.0000                 0.0000                 0.0000
 IR Inten    --     1.0549                 7.0838                28.8157
 Raman Activ --     0.0000                 0.0000                 0.0000
 Depolar     --     0.0000                 0.0000                 0.0000
 Atom AN      X      Y      Z        X      Y      Z        X      Y      Z
   1   6    -0.05   0.13   0.22    -0.01   0.01   0.01     0.00  -0.00  -0.00
   2   6     0.03   0.23   0.01    -0.05  -0.02   0.00     0.01   0.01  -0.00
   3   6    -0.18  -0.04  -0.05     0.03   0.02  -0.08    -0.01  -0.00   0.03
   4   6    -0.01  -0.22  -0.12     0.10  -0.03  -0.30    -0.04   0.01   0.10
   5   6     0.25  -0.14   0.16    -0.07  -0.00   0.23     0.01   0.00  -0.08
   6   6     0.11   0.03  -0.05     0.03  -0.05  -0.21    -0.00  -0.01   0.09
   7   6     0.03   0.08   0.05    -0.03   0.07   0.22     0.02  -0.03  -0.08
   8   6    -0.31  -0.01  -0.02     0.09   0.01  -0.28    -0.05   0.01   0.24
   9   6    -0.08  -0.17   0.09    -0.09   0.09   0.46     0.05  -0.02  -0.24
  10   8     0.21  -0.10   0.04     0.02  -0.00  -0.11    -0.01  -0.01   0.06
  11   8    -0.34   0.16  -0.12     0.04  -0.15  -0.25     0.07   0.17  -0.19
  12   6    -0.06   0.08   0.09     0.01  -0.30   0.11    -0.35  -0.61   0.36
  13   8     0.09   0.01   0.08    -0.17   0.23  -0.01     0.11   0.25  -0.11
  14   7     0.03  -0.07  -0.09     0.16   0.08   0.17     0.10   0.12  -0.05
  15   6     0.14  -0.12  -0.06    -0.03   0.03   0.03     0.02  -0.01  -0.01
  16   6     0.08   0.19  -0.24    -0.01  -0.04   0.04     0.01   0.01  -0.02
  17   1     0.01  -0.03   0.01     0.00   0.02   0.02    -0.00  -0.01  -0.01
  18   1    -0.03   0.03   0.11     0.01  -0.00  -0.02    -0.00  -0.00   0.01
  19   1    -0.03   0.03   0.12     0.00   0.01   0.00    -0.00  -0.00   0.00
  20   1    -0.03   0.00   0.01     0.07   0.09   0.04    -0.02  -0.03  -0.01
  21   1    -0.06  -0.06  -0.00    -0.07  -0.05   0.03     0.02   0.02  -0.01
  22   1     0.07  -0.03   0.05    -0.02  -0.01   0.04     0.00   0.01  -0.02
  23   1    -0.03  -0.01  -0.05     0.00  -0.02  -0.08     0.01  -0.00  -0.01
  24   1     0.07  -0.04   0.01    -0.02   0.03   0.03     0.02  -0.02  -0.05
  25   1     0.06  -0.05  -0.02     0.03   0.08   0.02     0.08   0.12  -0.06
  26   1     0.04  -0.01   0.02    -0.00  -0.03  -0.05     0.00  -0.00  -0.01
  27   1     0.04  -0.01   0.02    -0.00  -0.03  -0.05     0.01  -0.00  -0.00
  28   1     0.09  -0.07  -0.02    -0.09   0.07   0.02    -0.00   0.00  -0.00
  29   1     0.04   0.05  -0.11     0.00  -0.01  -0.00    -0.00   0.00  -0.00
  30   1     0.02  -0.01  -0.03    -0.00  -0.02   0.02     0.00   0.01  -0.01
  31   1     0.03   0.05  -0.11    -0.00  -0.02   0.02     0.00   0.01  -0.00
                     28                     29                     30
                        a                      a                      a 
 Frequencies --   703.9364               764.7021               800.9849
 Red. masses --    12.3943                11.7267                 3.8738
 Frc consts  --     0.0000                 0.0000                 0.0000
 IR Inten    --     6.1547                 7.9292                23.0323
 Raman Activ --     0.0000                 0.0000                 0.0000
 Depolar     --     0.0000                 0.0000                 0.0000
 Atom AN      X      Y      Z        X      Y      Z        X      Y      Z
   1   6     0.01  -0.02  -0.03    -0.03   0.06   0.10     0.01  -0.03  -0.05
   2   6    -0.01  -0.02   0.00     0.01   0.02   0.00     0.00   0.00   0.00
   3   6     0.08   0.06  -0.01    -0.28  -0.29  -0.02     0.01   0.09   0.05
   4   6     0.03   0.06  -0.07    -0.13  -0.07  -0.04     0.01   0.01   0.02
   5   6    -0.11   0.01   0.03     0.08   0.15  -0.02     0.03  -0.05  -0.18
   6   6     0.08  -0.19  -0.06    -0.09   0.41  -0.13     0.08  -0.11  -0.23
   7   6     0.04  -0.12   0.08    -0.15  -0.00  -0.06     0.08  -0.01  -0.18
   8   6     0.14  -0.06  -0.33     0.16  -0.03  -0.09    -0.09   0.02   0.16
   9   6    -0.05   0.08   0.23     0.00  -0.09   0.11    -0.05   0.03   0.10
  10   8    -0.03   0.05  -0.07     0.12  -0.17   0.03     0.04   0.03  -0.02
  11   8    -0.02   0.29   0.29     0.41   0.01   0.27    -0.09   0.01  -0.11
  12   6    -0.32   0.00   0.18    -0.01  -0.14  -0.03     0.02  -0.01  -0.02
  13   8     0.32  -0.10  -0.01     0.02  -0.04  -0.10    -0.04   0.02  -0.01
  14   7    -0.22  -0.01  -0.34    -0.03   0.02  -0.04     0.05   0.00   0.07
  15   6    -0.00  -0.02  -0.04    -0.08   0.07   0.04     0.03  -0.02  -0.01
  16   6    -0.02  -0.04   0.05     0.04   0.10  -0.12    -0.01  -0.02   0.03
  17   1     0.00   0.01  -0.00    -0.01   0.01   0.02     0.01  -0.01  -0.02
  18   1     0.01  -0.00  -0.02    -0.01   0.02   0.04     0.01  -0.01  -0.02
  19   1     0.01  -0.00  -0.02    -0.01   0.01   0.03     0.00  -0.01  -0.01
  20   1     0.03   0.04   0.01    -0.09  -0.14  -0.01    -0.04   0.01  -0.03
  21   1     0.01   0.02   0.01    -0.05  -0.15  -0.01     0.06   0.07  -0.02
  22   1    -0.03   0.03   0.02    -0.01   0.04   0.09    -0.11   0.04   0.45
  23   1     0.04  -0.04   0.08    -0.05   0.13   0.12    -0.13   0.03   0.56
  24   1    -0.02  -0.02   0.11    -0.06   0.00   0.13    -0.08   0.04   0.42
  25   1     0.02  -0.02  -0.10    -0.05   0.04  -0.01     0.01   0.00   0.02
  26   1    -0.01   0.06   0.09    -0.02   0.02   0.01     0.01  -0.02  -0.02
  27   1    -0.01   0.06   0.09    -0.02   0.02   0.00     0.01  -0.02  -0.02
  28   1     0.15  -0.11  -0.04    -0.03   0.03   0.01    -0.02   0.01   0.00
  29   1    -0.00  -0.01   0.01     0.00   0.02  -0.02    -0.00  -0.01   0.01
  30   1    -0.01  -0.01   0.01     0.01   0.03  -0.04    -0.00  -0.01   0.01
  31   1    -0.00  -0.01   0.02     0.01   0.04  -0.04    -0.00  -0.01   0.01
                     31                     32                     33
                        a                      a                      a 
 Frequencies --   822.9638               849.5703               887.3500
 Red. masses --    12.4770                11.5672                 3.8163
 Frc consts  --     0.0000                 0.0000                 0.0000
 IR Inten    --    10.3185                24.2322                 0.3869
 Raman Activ --     0.0000                 0.0000                 0.0000
 Depolar     --     0.0000                 0.0000                 0.0000
 Atom AN      X      Y      Z        X      Y      Z        X      Y      Z
   1   6    -0.06   0.14   0.23    -0.08   0.08   0.15    -0.00  -0.01  -0.02
   2   6     0.02  -0.01   0.00    -0.07  -0.06  -0.03    -0.00  -0.00   0.01
   3   6     0.48  -0.28   0.08     0.17  -0.09   0.01    -0.02  -0.01   0.10
   4   6     0.10  -0.02   0.06    -0.13   0.14  -0.03     0.01   0.00  -0.02
   5   6     0.13  -0.06   0.02    -0.42   0.19  -0.12     0.06  -0.02  -0.33
   6   6    -0.01   0.10  -0.04     0.07  -0.22   0.04    -0.01   0.01   0.01
   7   6    -0.05  -0.03  -0.03     0.26   0.29   0.02    -0.07   0.03   0.33
   8   6    -0.01  -0.03   0.01     0.01   0.14   0.00     0.03   0.00  -0.06
   9   6    -0.01   0.03   0.02     0.01  -0.09  -0.01    -0.00   0.00   0.03
  10   8    -0.60   0.02  -0.21     0.10  -0.48   0.08    -0.01  -0.02  -0.01
  11   8    -0.02   0.00  -0.01    -0.02  -0.00   0.00     0.02  -0.03  -0.00
  12   6    -0.00  -0.01   0.01     0.01   0.01  -0.02    -0.01   0.02   0.02
  13   8     0.00   0.01  -0.00    -0.01  -0.00  -0.00     0.01   0.00   0.03
  14   7     0.00   0.00   0.00     0.01  -0.00   0.01    -0.02  -0.00  -0.03
  15   6     0.00  -0.00  -0.00     0.01  -0.00  -0.00    -0.02   0.01  -0.00
  16   6     0.05   0.13  -0.16    -0.00   0.09  -0.16     0.02   0.02  -0.02
  17   1    -0.02   0.07   0.09     0.01   0.05   0.08     0.01  -0.01  -0.01
  18   1    -0.02   0.05   0.05     0.03  -0.01  -0.02     0.01  -0.01  -0.01
  19   1    -0.01   0.04   0.04     0.00   0.06   0.09     0.00   0.00   0.01
  20   1     0.15  -0.11   0.04     0.06  -0.06   0.02    -0.08  -0.03  -0.05
  21   1     0.11  -0.09   0.04     0.03  -0.07   0.02     0.09   0.02  -0.03
  22   1     0.02  -0.06   0.04    -0.09   0.17  -0.04    -0.14   0.06   0.58
  23   1    -0.04   0.02   0.04     0.04  -0.05   0.02     0.00   0.00  -0.00
  24   1    -0.00  -0.03   0.05     0.01   0.15  -0.00     0.13  -0.05  -0.59
  25   1     0.00  -0.00   0.00     0.00   0.00   0.00     0.00  -0.01  -0.01
  26   1     0.00  -0.00  -0.00     0.00  -0.00  -0.00    -0.01   0.01   0.01
  27   1     0.00  -0.00   0.00     0.00  -0.00  -0.01    -0.01   0.01   0.01
  28   1     0.00  -0.00  -0.00    -0.00   0.00   0.00     0.01  -0.01  -0.00
  29   1     0.01   0.03  -0.04     0.06   0.09  -0.07    -0.01  -0.00   0.01
  30   1     0.01   0.04  -0.05     0.06   0.07  -0.06    -0.00   0.01  -0.01
  31   1     0.01   0.05  -0.06     0.01  -0.03   0.06     0.00   0.02  -0.02
                     34                     35                     36
                        a                      a                      a 
 Frequencies --   908.3960               915.2092               925.3848
 Red. masses --     3.2585                 8.9059                 6.8288
 Frc consts  --     0.0000                 0.0000                 0.0000
 IR Inten    --     0.5323                13.5896                 3.2429
 Raman Activ --     0.0000                 0.0000                 0.0000
 Depolar     --     0.0000                 0.0000                 0.0000
 Atom AN      X      Y      Z        X      Y      Z        X      Y      Z
   1   6    -0.00   0.00   0.01     0.13  -0.06  -0.12    -0.15  -0.07  -0.16
   2   6    -0.01  -0.00  -0.01     0.30   0.11   0.18    -0.25  -0.04   0.04
   3   6     0.01  -0.00  -0.01    -0.18   0.21   0.24     0.08  -0.15   0.45
   4   6     0.01  -0.00  -0.04     0.01  -0.00  -0.15     0.08  -0.02  -0.20
   5   6     0.05  -0.02  -0.19    -0.05  -0.01   0.04    -0.02   0.04   0.07
   6   6    -0.07   0.03   0.33    -0.01  -0.06   0.03     0.00   0.04   0.02
   7   6     0.04  -0.02  -0.18     0.07   0.14  -0.02    -0.02  -0.09  -0.03
   8   6     0.00  -0.00  -0.04    -0.03   0.03  -0.02     0.02  -0.01   0.03
   9   6    -0.03   0.01   0.10    -0.04  -0.09   0.05     0.01   0.07   0.03
  10   8     0.01   0.00  -0.01    -0.33  -0.29  -0.10     0.16   0.16   0.05
  11   8    -0.01   0.03   0.01     0.04   0.04   0.07    -0.05  -0.01  -0.05
  12   6     0.00  -0.02  -0.02     0.01  -0.04  -0.03    -0.01   0.02   0.01
  13   8    -0.01  -0.01  -0.02    -0.02  -0.02  -0.05     0.00   0.01   0.02
  14   7     0.01   0.00   0.02     0.02   0.00   0.02    -0.00   0.00   0.00
  15   6     0.01  -0.01   0.00     0.01  -0.00   0.01     0.00  -0.01  -0.01
  16   6    -0.01  -0.00   0.00     0.20   0.07   0.03    -0.03   0.08  -0.14
  17   1    -0.00   0.00   0.00    -0.01  -0.06  -0.09     0.09  -0.03  -0.00
  18   1     0.00  -0.00  -0.00    -0.04   0.03   0.08     0.12  -0.17  -0.22
  19   1     0.00   0.00   0.00     0.00  -0.08  -0.10     0.02   0.10   0.18
  20   1     0.01   0.00   0.00    -0.26   0.09  -0.15    -0.29  -0.03  -0.20
  21   1    -0.01   0.00   0.00     0.22  -0.00  -0.06     0.42  -0.10  -0.07
  22   1    -0.10   0.04   0.41     0.01  -0.00  -0.08     0.03  -0.00  -0.11
  23   1     0.15  -0.06  -0.64    -0.04  -0.03  -0.05     0.05   0.02  -0.03
  24   1    -0.09   0.04   0.42    -0.01   0.06   0.03    -0.01  -0.03   0.06
  25   1    -0.01   0.01   0.00    -0.02   0.02   0.01     0.01  -0.01   0.00
  26   1     0.00  -0.01  -0.01     0.00  -0.01  -0.02     0.00   0.00   0.00
  27   1     0.00  -0.01  -0.01     0.00  -0.01  -0.02     0.00   0.00   0.00
  28   1    -0.01   0.01   0.00    -0.02   0.02   0.01     0.01  -0.01  -0.00
  29   1     0.00   0.00  -0.00    -0.11  -0.14   0.13     0.04   0.07  -0.06
  30   1     0.00  -0.00   0.00    -0.10  -0.03   0.01     0.04   0.06  -0.05
  31   1    -0.00  -0.01   0.01     0.02   0.19  -0.25    -0.00  -0.02   0.04
                     37                     38                     39
                        a                      a                      a 
 Frequencies --   945.9054               957.4051               985.6190
 Red. masses --    11.7861                 4.2221                 6.3278
 Frc consts  --     0.0000                 0.0000                 0.0000
 IR Inten    --    59.9830                 1.0907                 1.7096
 Raman Activ --     0.0000                 0.0000                 0.0000
 Depolar     --     0.0000                 0.0000                 0.0000
 Atom AN      X      Y      Z        X      Y      Z        X      Y      Z
   1   6     0.02  -0.01   0.01     0.04   0.33   0.07    -0.05  -0.12   0.31
   2   6     0.04  -0.00   0.02     0.07  -0.02  -0.20    -0.01  -0.39  -0.01
   3   6    -0.08  -0.02  -0.01    -0.03   0.02   0.07    -0.18   0.10   0.00
   4   6     0.02   0.01  -0.01     0.02  -0.00  -0.05     0.08   0.02  -0.01
   5   6    -0.04   0.02  -0.01    -0.00   0.00   0.01     0.00   0.02   0.01
   6   6    -0.04   0.06  -0.01    -0.00  -0.00   0.00    -0.00  -0.03   0.00
   7   6     0.02   0.04  -0.05     0.00  -0.00  -0.00    -0.02  -0.06   0.00
   8   6     0.08   0.00   0.11     0.00   0.00   0.01     0.04   0.02   0.01
   9   6     0.06  -0.01   0.02    -0.00   0.01   0.01     0.02   0.05   0.01
  10   8    -0.04  -0.05  -0.01    -0.01   0.00  -0.04     0.04   0.12   0.02
  11   8     0.14  -0.38  -0.40    -0.00  -0.01  -0.02    -0.07   0.02  -0.01
  12   6     0.02   0.16   0.20    -0.00   0.01   0.01    -0.02   0.01  -0.01
  13   8     0.12   0.14   0.37     0.00   0.00   0.01    -0.01  -0.01  -0.01
  14   7    -0.15  -0.07  -0.26    -0.00  -0.00  -0.01     0.00   0.01   0.03
  15   6    -0.23   0.13  -0.01    -0.01   0.00  -0.00     0.03  -0.02  -0.01
  16   6     0.04   0.02  -0.00    -0.02  -0.34  -0.03     0.19  -0.02  -0.29
  17   1    -0.01   0.01   0.01     0.06  -0.25  -0.24    -0.11   0.29   0.32
  18   1    -0.01   0.01   0.01    -0.09   0.05   0.32     0.00   0.06  -0.10
  19   1     0.00  -0.01  -0.03    -0.11   0.02   0.27     0.07  -0.01  -0.21
  20   1    -0.03   0.00  -0.01    -0.06  -0.02  -0.04    -0.08   0.09  -0.03
  21   1    -0.02  -0.02  -0.00     0.06   0.04  -0.03    -0.03   0.15  -0.03
  22   1    -0.02  -0.02   0.01     0.00  -0.00  -0.01    -0.00  -0.01  -0.01
  23   1    -0.00   0.02  -0.02     0.00  -0.00  -0.00     0.03   0.00   0.01
  24   1    -0.05   0.05   0.08    -0.00   0.00   0.00    -0.02  -0.00  -0.00
  25   1     0.12  -0.11  -0.07     0.00  -0.00  -0.00    -0.00   0.00   0.01
  26   1    -0.07   0.13   0.17    -0.00   0.00   0.01     0.01  -0.01  -0.01
  27   1    -0.07   0.15   0.17    -0.00   0.00   0.01     0.01  -0.01  -0.01
  28   1     0.18  -0.14  -0.05     0.01  -0.00  -0.00    -0.01   0.00   0.00
  29   1    -0.02  -0.03   0.02    -0.07  -0.07   0.32    -0.09  -0.08   0.21
  30   1    -0.02  -0.01   0.00     0.07   0.32  -0.25     0.02   0.28  -0.26
  31   1     0.00   0.04  -0.05    -0.10  -0.07   0.29    -0.04   0.12  -0.03
                     40                     41                     42
                        a                      a                      a 
 Frequencies --  1009.3554              1022.3880              1088.3991
 Red. masses --     4.1246                10.6219                 8.8456
 Frc consts  --     0.0000                 0.0000                 0.0000
 IR Inten    --     1.4306                48.4541               381.7862
 Raman Activ --     0.0000                 0.0000                 0.0000
 Depolar     --     0.0000                 0.0000                 0.0000
 Atom AN      X      Y      Z        X      Y      Z        X      Y      Z
   1   6     0.30  -0.07   0.09     0.12   0.02  -0.01    -0.01  -0.01  -0.01
   2   6     0.01  -0.04   0.05    -0.04   0.07  -0.01     0.04   0.03   0.04
   3   6    -0.00   0.08   0.19    -0.28  -0.30  -0.02    -0.02  -0.00  -0.02
   4   6    -0.02  -0.03  -0.11     0.27   0.07   0.04    -0.01   0.01   0.03
   5   6     0.03  -0.03   0.03    -0.16   0.16  -0.05     0.16   0.06   0.03
   6   6    -0.01   0.00   0.01     0.04   0.01   0.00     0.04  -0.13   0.02
   7   6     0.00   0.03  -0.00    -0.03  -0.17   0.01    -0.17  -0.09  -0.02
   8   6    -0.04  -0.01  -0.00     0.28   0.10   0.07     0.08   0.07   0.02
   9   6    -0.07  -0.00  -0.00     0.36   0.08   0.08     0.02   0.10  -0.01
  10   8     0.01   0.00  -0.07    -0.10  -0.03  -0.04    -0.01  -0.09   0.00
  11   8     0.06  -0.01   0.01    -0.35   0.01  -0.12    -0.27   0.20   0.11
  12   6     0.02  -0.01   0.00    -0.12   0.10  -0.00     0.38  -0.30  -0.13
  13   8     0.00   0.00   0.01    -0.01  -0.01  -0.02    -0.09   0.00  -0.08
  14   7     0.00  -0.01  -0.02    -0.03   0.08   0.12     0.14  -0.05   0.04
  15   6    -0.03   0.02   0.01     0.14  -0.12  -0.06    -0.30   0.13  -0.06
  16   6    -0.28   0.05  -0.12    -0.01   0.03   0.04    -0.02  -0.01  -0.02
  17   1    -0.14   0.05  -0.00    -0.04  -0.04  -0.07     0.00   0.01   0.01
  18   1    -0.16   0.22   0.25    -0.07   0.08   0.13     0.01  -0.01  -0.02
  19   1     0.00  -0.21  -0.38    -0.02  -0.08  -0.09     0.00   0.00   0.00
  20   1    -0.10  -0.05  -0.06    -0.07  -0.14  -0.00    -0.00   0.04  -0.00
  21   1     0.13   0.10  -0.03    -0.06  -0.10  -0.01    -0.01  -0.09   0.01
  22   1     0.02  -0.01  -0.02    -0.06  -0.00  -0.01     0.09   0.19   0.01
  23   1    -0.04  -0.01  -0.02     0.25   0.07   0.05     0.06  -0.02   0.02
  24   1     0.01   0.00   0.00    -0.06   0.01  -0.01    -0.19   0.12  -0.06
  25   1     0.00  -0.00  -0.01     0.02   0.01   0.03     0.19  -0.11   0.01
  26   1    -0.01   0.01   0.01     0.04  -0.04  -0.04    -0.09   0.14   0.18
  27   1    -0.01   0.01   0.01     0.03  -0.04  -0.04    -0.05   0.15   0.15
  28   1     0.00  -0.00  -0.00     0.00  -0.01  -0.01     0.21  -0.16  -0.08
  29   1     0.18   0.24  -0.26     0.00   0.00  -0.04     0.01   0.02   0.00
  30   1     0.14   0.01   0.01    -0.02  -0.06   0.05     0.02   0.02  -0.02
  31   1     0.00  -0.24   0.29     0.01   0.01  -0.03    -0.00  -0.02   0.03
                     43                     44                     45
                        a                      a                      a 
 Frequencies --  1092.1055              1096.9413              1112.3301
 Red. masses --     5.2777                 4.7309                 3.4493
 Frc consts  --     0.0000                 0.0000                 0.0000
 IR Inten    --    69.0085                34.8566                 1.5921
 Raman Activ --     0.0000                 0.0000                 0.0000
 Depolar     --     0.0000                 0.0000                 0.0000
 Atom AN      X      Y      Z        X      Y      Z        X      Y      Z
   1   6    -0.01   0.04   0.07     0.07  -0.03  -0.07    -0.00   0.00   0.00
   2   6    -0.05  -0.02  -0.20    -0.08   0.01   0.16     0.00  -0.00  -0.00
   3   6    -0.04  -0.07   0.08    -0.03  -0.04  -0.08     0.00   0.00   0.00
   4   6     0.14  -0.01  -0.14     0.07   0.03   0.18    -0.00  -0.00  -0.00
   5   6    -0.23  -0.04  -0.03    -0.24  -0.07  -0.07     0.00  -0.00   0.00
   6   6    -0.01   0.11  -0.00    -0.02   0.14  -0.02    -0.00   0.00  -0.00
   7   6     0.18   0.07   0.03     0.22   0.07   0.05     0.00   0.00  -0.00
   8   6    -0.10  -0.04  -0.01    -0.07  -0.05  -0.02    -0.00  -0.00   0.00
   9   6     0.03  -0.06   0.03     0.05  -0.05   0.01    -0.00  -0.01  -0.00
  10   8     0.02   0.10   0.02    -0.01   0.11  -0.04     0.00   0.00   0.00
  11   8    -0.06   0.10   0.07    -0.05   0.08   0.06     0.01  -0.02  -0.01
  12   6     0.19  -0.15  -0.05     0.12  -0.10  -0.04    -0.00   0.05  -0.01
  13   8    -0.04   0.00  -0.04    -0.03  -0.00  -0.04     0.00  -0.00   0.00
  14   7     0.08  -0.05  -0.02     0.05  -0.03  -0.01     0.08   0.16  -0.08
  15   6    -0.15   0.08   0.00    -0.10   0.05   0.00    -0.18  -0.33   0.18
  16   6     0.04   0.01   0.13     0.00  -0.01  -0.11     0.00   0.00   0.00
  17   1    -0.02   0.02   0.02    -0.01  -0.04  -0.05     0.00  -0.00  -0.00
  18   1    -0.01   0.03   0.02    -0.02   0.01   0.03    -0.00   0.00   0.00
  19   1    -0.00   0.01   0.02    -0.01  -0.05  -0.06     0.00   0.00   0.00
  20   1     0.00  -0.41   0.02    -0.02   0.41  -0.02     0.00  -0.00  -0.00
  21   1    -0.01   0.46  -0.05    -0.01  -0.43   0.04     0.00   0.00  -0.00
  22   1    -0.11  -0.22  -0.04    -0.16  -0.32   0.02     0.00   0.00   0.00
  23   1     0.02   0.04  -0.01     0.01   0.05   0.01    -0.00  -0.00  -0.00
  24   1     0.25  -0.18   0.07     0.30  -0.22   0.09    -0.00   0.00   0.00
  25   1     0.07  -0.05  -0.01     0.05  -0.03  -0.00     0.03   0.03  -0.02
  26   1    -0.04   0.06   0.07    -0.03   0.04   0.05    -0.31   0.50   0.13
  27   1    -0.03   0.06   0.06    -0.01   0.04   0.04     0.48  -0.22  -0.30
  28   1     0.07  -0.05  -0.02     0.05  -0.03  -0.02     0.10   0.16  -0.10
  29   1    -0.04  -0.07   0.01     0.01   0.03   0.02    -0.00  -0.00  -0.00
  30   1    -0.06  -0.10   0.09     0.03   0.09  -0.08    -0.00  -0.00   0.00
  31   1     0.02   0.05  -0.11    -0.02  -0.00   0.05     0.00   0.00  -0.00
                     46                     47                     48
                        a                      a                      a 
 Frequencies --  1122.6357              1144.9929              1174.3762
 Red. masses --     8.7372                 7.8305                 5.8167
 Frc consts  --     0.0000                 0.0000                 0.0000
 IR Inten    --    21.9331               165.0738               122.1676
 Raman Activ --     0.0000                 0.0000                 0.0000
 Depolar     --     0.0000                 0.0000                 0.0000
 Atom AN      X      Y      Z        X      Y      Z        X      Y      Z
   1   6    -0.03  -0.01   0.00     0.19   0.11  -0.02    -0.04  -0.03   0.00
   2   6     0.06   0.01   0.00    -0.44  -0.24  -0.05     0.10   0.07   0.01
   3   6     0.03   0.07   0.00     0.09  -0.16   0.02    -0.03   0.03  -0.01
   4   6    -0.08  -0.03  -0.02     0.09   0.05   0.05     0.03   0.01   0.00
   5   6    -0.00  -0.04   0.00     0.01   0.09  -0.01    -0.00  -0.01   0.00
   6   6    -0.03   0.06  -0.01     0.01  -0.12   0.01     0.07  -0.03   0.02
   7   6     0.04   0.02   0.01    -0.06   0.05  -0.02    -0.03   0.01  -0.01
   8   6     0.05  -0.04  -0.01    -0.20   0.01  -0.05    -0.11   0.04  -0.04
   9   6    -0.05   0.01  -0.01     0.02  -0.21   0.03    -0.00  -0.06   0.01
  10   8     0.00  -0.03   0.00     0.10   0.18   0.01    -0.04   0.03  -0.01
  11   8     0.16  -0.07   0.01     0.14  -0.03   0.04     0.07  -0.01   0.02
  12   6    -0.28   0.15  -0.03    -0.07   0.03   0.00    -0.24   0.15   0.02
  13   8    -0.09  -0.06  -0.20    -0.03  -0.02  -0.07    -0.05  -0.06  -0.17
  14   7    -0.03   0.27   0.46     0.06  -0.02   0.04     0.23  -0.19  -0.09
  15   6     0.05  -0.18  -0.28    -0.04   0.04   0.02    -0.08   0.22   0.29
  16   6    -0.02  -0.01  -0.00     0.16   0.12   0.05    -0.04  -0.04  -0.01
  17   1     0.01   0.01   0.02    -0.05  -0.10  -0.15     0.01   0.02   0.04
  18   1     0.02  -0.02  -0.03    -0.10   0.11   0.24     0.02  -0.02  -0.06
  19   1     0.01   0.02   0.02    -0.06  -0.10  -0.05     0.02   0.02  -0.00
  20   1     0.01  -0.01   0.00    -0.00   0.20  -0.01     0.00  -0.08   0.01
  21   1     0.01   0.03  -0.00     0.02   0.04  -0.00    -0.00  -0.05   0.00
  22   1    -0.01  -0.05  -0.00     0.07   0.29  -0.00    -0.04  -0.16   0.00
  23   1    -0.08  -0.00  -0.02    -0.05  -0.05  -0.01     0.26   0.06   0.06
  24   1     0.05  -0.03   0.01    -0.06   0.05  -0.02    -0.12   0.11  -0.04
  25   1     0.36  -0.15   0.12     0.14  -0.08   0.01     0.51  -0.32  -0.02
  26   1     0.02   0.02   0.13    -0.00   0.00   0.01     0.01  -0.04  -0.08
  27   1     0.02   0.08   0.11    -0.00   0.01   0.01    -0.00  -0.05  -0.07
  28   1     0.29  -0.25  -0.12     0.02  -0.01   0.00    -0.16   0.15   0.10
  29   1     0.01   0.01  -0.01    -0.06  -0.09  -0.01     0.01   0.02   0.01
  30   1     0.01   0.00  -0.00    -0.11  -0.07   0.04     0.02   0.02  -0.01
  31   1    -0.00  -0.02   0.02     0.02   0.15  -0.22    -0.01  -0.03   0.06
                     49                     50                     51
                        a                      a                      a 
 Frequencies --  1179.8238              1195.0698              1221.3854
 Red. masses --     3.0779                 8.1512                 5.5760
 Frc consts  --     0.0000                 0.0000                 0.0000
 IR Inten    --     7.7400                23.5651                17.4004
 Raman Activ --     0.0000                 0.0000                 0.0000
 Depolar     --     0.0000                 0.0000                 0.0000
 Atom AN      X      Y      Z        X      Y      Z        X      Y      Z
   1   6     0.03   0.08  -0.01    -0.01  -0.12   0.02     0.07   0.01   0.03
   2   6    -0.07  -0.19   0.00    -0.05   0.30  -0.05    -0.22  -0.03  -0.11
   3   6     0.08   0.01   0.01    -0.06   0.04  -0.01     0.03   0.10   0.01
   4   6    -0.09  -0.08  -0.01     0.18   0.18   0.01    -0.05   0.19  -0.03
   5   6     0.02  -0.04   0.01     0.00   0.05  -0.00     0.12   0.09   0.02
   6   6     0.10   0.07   0.02     0.09  -0.15   0.04    -0.03   0.04  -0.01
   7   6     0.02   0.01   0.00    -0.04   0.12  -0.02     0.18  -0.05   0.05
   8   6    -0.03   0.01  -0.01    -0.34  -0.05  -0.07     0.27  -0.22   0.08
   9   6    -0.22   0.01  -0.06     0.08  -0.34   0.06    -0.15   0.04  -0.04
  10   8     0.05  -0.03   0.02    -0.03   0.23  -0.03     0.10  -0.05   0.04
  11   8     0.04   0.01   0.01     0.17  -0.03   0.04    -0.16   0.07  -0.03
  12   6     0.07  -0.04  -0.01     0.06  -0.05   0.01    -0.02   0.01  -0.01
  13   8     0.01   0.01   0.04     0.01   0.01   0.01    -0.00  -0.01  -0.01
  14   7    -0.06   0.06   0.04    -0.05   0.07   0.06     0.01  -0.02  -0.03
  15   6     0.02  -0.07  -0.10     0.00  -0.07  -0.12     0.01   0.02   0.05
  16   6     0.03   0.08   0.01     0.00  -0.13  -0.00     0.07   0.01   0.04
  17   1     0.01  -0.05  -0.06    -0.03   0.07   0.08    -0.04   0.00  -0.01
  18   1    -0.02   0.01   0.08     0.01   0.01  -0.10    -0.04   0.05   0.06
  19   1    -0.03  -0.01   0.05     0.03  -0.02  -0.11    -0.01  -0.05  -0.05
  20   1     0.01   0.14  -0.00     0.01  -0.32   0.02     0.02  -0.22   0.01
  21   1     0.01   0.11  -0.01     0.02  -0.29   0.02     0.04  -0.25   0.02
  22   1    -0.11  -0.46   0.02    -0.01  -0.05   0.00    -0.06  -0.35   0.02
  23   1     0.51   0.16   0.11     0.09  -0.02   0.02    -0.46  -0.12  -0.10
  24   1    -0.30   0.31  -0.10    -0.15   0.17  -0.05    -0.17   0.22  -0.06
  25   1    -0.15   0.09   0.01    -0.17   0.11   0.02     0.08  -0.05  -0.01
  26   1    -0.00   0.01   0.03    -0.01   0.02   0.05     0.00  -0.01  -0.03
  27   1     0.00   0.02   0.03     0.00   0.04   0.04     0.00  -0.02  -0.02
  28   1     0.06  -0.05  -0.04     0.08  -0.07  -0.05    -0.04   0.03   0.02
  29   1     0.00   0.00  -0.06    -0.03  -0.04   0.11    -0.04  -0.06   0.03
  30   1    -0.02  -0.05   0.04     0.00   0.06  -0.06    -0.05  -0.02   0.01
  31   1     0.02   0.03  -0.08    -0.04  -0.02   0.09     0.00   0.05  -0.07
                     52                     53                     54
                        a                      a                      a 
 Frequencies --  1238.2863              1245.5379              1267.1436
 Red. masses --     9.1773                 8.2962                 7.1241
 Frc consts  --     0.0000                 0.0000                 0.0000
 IR Inten    --    27.8295                24.6452                 9.3390
 Raman Activ --     0.0000                 0.0000                 0.0000
 Depolar     --     0.0000                 0.0000                 0.0000
 Atom AN      X      Y      Z        X      Y      Z        X      Y      Z
   1   6    -0.14   0.13   0.01    -0.03   0.03   0.21    -0.02  -0.12   0.07
   2   6     0.42  -0.39  -0.04     0.10  -0.09  -0.68     0.07   0.39  -0.25
   3   6    -0.24  -0.12  -0.01    -0.00   0.17   0.13     0.05  -0.33   0.07
   4   6     0.27   0.19   0.05    -0.08  -0.03   0.01    -0.03  -0.09   0.02
   5   6     0.02   0.17  -0.01     0.01  -0.07   0.01    -0.11  -0.00  -0.03
   6   6    -0.02  -0.11   0.01     0.00  -0.02   0.00     0.03   0.16  -0.01
   7   6     0.09   0.01   0.02    -0.08  -0.01  -0.02     0.13   0.06   0.02
   8   6    -0.11  -0.08  -0.02    -0.02   0.10  -0.01     0.08  -0.27   0.04
   9   6    -0.02  -0.16   0.02     0.04   0.07  -0.00     0.02  -0.13   0.02
  10   8    -0.09   0.17  -0.03     0.01  -0.04   0.06    -0.00   0.06   0.01
  11   8     0.03   0.01   0.01     0.02  -0.02   0.00    -0.07   0.05  -0.01
  12   6     0.01  -0.01   0.01     0.00   0.00   0.00    -0.00  -0.00   0.00
  13   8    -0.00  -0.00  -0.01     0.00   0.00   0.00    -0.00  -0.00  -0.01
  14   7     0.01   0.00   0.01     0.00  -0.00   0.00    -0.00  -0.00  -0.01
  15   6    -0.01  -0.00  -0.01    -0.00  -0.00  -0.00     0.00   0.00   0.01
  16   6    -0.15   0.13   0.01    -0.03   0.02   0.21    -0.02  -0.12   0.07
  17   1     0.08  -0.04  -0.00    -0.04   0.11   0.12    -0.04   0.09   0.10
  18   1     0.04  -0.08   0.00    -0.04   0.07   0.04    -0.01   0.05  -0.09
  19   1    -0.02   0.09   0.20     0.02   0.03  -0.01     0.06   0.02  -0.08
  20   1    -0.09   0.13  -0.03    -0.10   0.12  -0.07    -0.05   0.45  -0.03
  21   1    -0.05   0.02  -0.02     0.14  -0.38   0.02     0.03   0.27  -0.04
  22   1    -0.02  -0.07   0.00     0.02   0.03   0.00    -0.02   0.07  -0.01
  23   1    -0.22  -0.09  -0.04     0.12   0.03   0.03    -0.12   0.01  -0.03
  24   1    -0.09   0.12  -0.03     0.09  -0.12   0.03    -0.17   0.23  -0.06
  25   1    -0.02   0.01   0.00    -0.01   0.01  -0.00     0.02  -0.02  -0.00
  26   1    -0.00   0.00   0.01    -0.00   0.00   0.00     0.00  -0.00  -0.01
  27   1    -0.00   0.01   0.01    -0.00   0.00   0.00     0.00  -0.01  -0.01
  28   1     0.01  -0.01  -0.01     0.00  -0.00  -0.00    -0.01   0.01   0.00
  29   1     0.08   0.10  -0.19    -0.03  -0.06  -0.05    -0.02  -0.03   0.07
  30   1     0.05  -0.10   0.10    -0.06  -0.17   0.15    -0.02  -0.01   0.01
  31   1     0.05  -0.10   0.01     0.04  -0.04  -0.05    -0.03  -0.02   0.08
                     55                     56                     57
                        a                      a                      a 
 Frequencies --  1296.2886              1355.4467              1392.2136
 Red. masses --    10.4584                10.8307                 3.3308
 Frc consts  --     0.0000                 0.0000                 0.0000
 IR Inten    --   147.3663                45.6527                 9.9124
 Raman Activ --     0.0000                 0.0000                 0.0000
 Depolar     --     0.0000                 0.0000                 0.0000
 Atom AN      X      Y      Z        X      Y      Z        X      Y      Z
   1   6    -0.02   0.06  -0.02    -0.01  -0.00   0.01     0.05  -0.15  -0.25
   2   6     0.04  -0.24   0.07     0.01   0.03  -0.01    -0.02  -0.01   0.06
   3   6     0.03   0.29  -0.02     0.03   0.16  -0.01     0.00   0.00  -0.01
   4   6    -0.19  -0.16  -0.03     0.24  -0.36   0.10    -0.01   0.01  -0.00
   5   6    -0.22  -0.30  -0.03    -0.01   0.15  -0.01     0.00  -0.00   0.00
   6   6     0.12   0.27   0.00    -0.47   0.05  -0.11     0.01  -0.00   0.00
   7   6     0.01   0.19  -0.01     0.38  -0.14   0.10    -0.01   0.00  -0.00
   8   6     0.14  -0.36   0.06     0.15   0.16   0.02     0.00   0.00   0.00
   9   6     0.29  -0.17   0.10    -0.33  -0.24  -0.05     0.01  -0.00  -0.00
  10   8    -0.06   0.22  -0.04    -0.02   0.11  -0.01    -0.00   0.00  -0.00
  11   8    -0.14   0.06  -0.02    -0.04   0.03  -0.01    -0.00  -0.00   0.00
  12   6     0.01  -0.02   0.00     0.01  -0.01  -0.00     0.00   0.00   0.00
  13   8    -0.00   0.00  -0.01     0.00   0.00   0.01     0.00  -0.00  -0.00
  14   7    -0.00  -0.00  -0.01    -0.01   0.01  -0.01    -0.00   0.00  -0.00
  15   6     0.00   0.00   0.01     0.01  -0.00   0.01    -0.00   0.00   0.00
  16   6    -0.02   0.06  -0.03    -0.00   0.00  -0.01     0.09   0.21  -0.25
  17   1     0.02  -0.03  -0.03    -0.00  -0.00  -0.00    -0.00   0.26   0.21
  18   1     0.02  -0.04   0.02     0.01  -0.01  -0.02    -0.19   0.11   0.27
  19   1    -0.03   0.00   0.05     0.00  -0.00  -0.01     0.03   0.11   0.30
  20   1     0.02  -0.14   0.00     0.02  -0.09   0.01     0.01  -0.01   0.00
  21   1     0.00  -0.12   0.02     0.02  -0.10   0.01    -0.00   0.01  -0.00
  22   1     0.02   0.27  -0.02     0.04   0.23  -0.01    -0.00  -0.00   0.00
  23   1     0.05   0.09   0.00     0.14   0.09   0.02    -0.00  -0.00  -0.00
  24   1    -0.09   0.16  -0.04    -0.02   0.09  -0.01     0.00  -0.00   0.00
  25   1     0.01  -0.01  -0.00     0.01  -0.01  -0.00     0.00  -0.00  -0.00
  26   1    -0.00  -0.00  -0.01     0.00  -0.00  -0.01     0.00  -0.00  -0.00
  27   1    -0.00  -0.00  -0.00    -0.00  -0.01  -0.01     0.00  -0.00  -0.00
  28   1    -0.01   0.01   0.00    -0.00   0.00   0.00     0.00  -0.00  -0.00
  29   1     0.01   0.02  -0.05    -0.01  -0.01   0.02    -0.22  -0.17   0.26
  30   1     0.02  -0.01   0.01    -0.00  -0.02   0.01    -0.10  -0.32   0.17
  31   1     0.02  -0.02  -0.02     0.00  -0.01   0.03     0.03  -0.18   0.36
                     58                     59                     60
                        a                      a                      a 
 Frequencies --  1395.8418              1406.5414              1418.1712
 Red. masses --     2.5928                 3.1453                 9.5223
 Frc consts  --     0.0000                 0.0000                 0.0000
 IR Inten    --     8.7794                 8.1134               353.6327
 Raman Activ --     0.0000                 0.0000                 0.0000
 Depolar     --     0.0000                 0.0000                 0.0000
 Atom AN      X      Y      Z        X      Y      Z        X      Y      Z
   1   6     0.00  -0.00  -0.00     0.05  -0.19  -0.27    -0.00  -0.00   0.00
   2   6     0.00   0.00   0.00     0.00   0.03  -0.00     0.00   0.00   0.00
   3   6     0.00   0.00  -0.00     0.02   0.01   0.00     0.02   0.02   0.00
   4   6    -0.00  -0.00  -0.00     0.01  -0.02   0.00    -0.05  -0.06  -0.01
   5   6    -0.00   0.00  -0.00    -0.00   0.01  -0.00    -0.02   0.03  -0.01
   6   6    -0.00   0.00  -0.00    -0.02   0.00  -0.00     0.02   0.05   0.00
   7   6     0.01  -0.01   0.00     0.02  -0.01   0.00     0.05  -0.10   0.02
   8   6     0.00   0.00   0.00    -0.01  -0.00  -0.00     0.02   0.06  -0.00
   9   6     0.00   0.00   0.00    -0.00  -0.01   0.00     0.05   0.00   0.01
  10   8    -0.00  -0.00   0.00     0.00   0.01   0.00    -0.01  -0.01  -0.00
  11   8    -0.00  -0.00  -0.00     0.00   0.00   0.00    -0.02  -0.01  -0.03
  12   6    -0.02   0.04   0.04    -0.00   0.00   0.00    -0.28   0.23   0.11
  13   8    -0.03  -0.02  -0.06    -0.00  -0.00  -0.00    -0.03  -0.06  -0.14
  14   7     0.08  -0.05  -0.01     0.01  -0.00   0.00     0.55  -0.29   0.06
  15   6     0.18  -0.23  -0.20    -0.00   0.00   0.00    -0.27   0.12  -0.06
  16   6     0.00   0.00  -0.00    -0.08  -0.20   0.20     0.00   0.00  -0.00
  17   1    -0.00   0.00   0.00    -0.00   0.30   0.25     0.01  -0.01  -0.00
  18   1    -0.00  -0.00   0.00    -0.23   0.15   0.30     0.00   0.00  -0.00
  19   1    -0.00  -0.00   0.00     0.06   0.15   0.35     0.01   0.00  -0.01
  20   1     0.00  -0.00   0.00    -0.03  -0.02  -0.03     0.00  -0.00  -0.00
  21   1     0.00  -0.00  -0.00    -0.03  -0.02   0.02    -0.00   0.00   0.00
  22   1    -0.00   0.00  -0.00     0.00   0.01  -0.00    -0.01  -0.02  -0.00
  23   1    -0.00  -0.00  -0.00     0.00   0.00   0.00    -0.06  -0.01  -0.01
  24   1    -0.00   0.00  -0.00    -0.01   0.01  -0.00    -0.04   0.02  -0.01
  25   1     0.03  -0.02  -0.00    -0.00   0.00   0.00    -0.38   0.24   0.02
  26   1    -0.10   0.34   0.35     0.00  -0.00  -0.00     0.04  -0.07   0.18
  27   1    -0.15   0.25   0.40     0.00   0.00   0.00     0.15   0.11   0.08
  28   1    -0.49   0.34   0.09     0.00   0.00  -0.00     0.10  -0.08  -0.05
  29   1    -0.00  -0.00   0.00     0.21   0.17  -0.21    -0.00  -0.00   0.00
  30   1     0.00  -0.00   0.00     0.09   0.27  -0.15    -0.00  -0.00   0.00
  31   1     0.00  -0.00   0.00    -0.05   0.18  -0.30    -0.00  -0.00   0.01
                     61                     62                     63
                        a                      a                      a 
 Frequencies --  1456.2352              1462.9279              1464.0184
 Red. masses --     8.0233                 4.6676                 1.6337
 Frc consts  --     0.0000                 0.0000                 0.0000
 IR Inten    --    99.7623                44.9152                15.1812
 Raman Activ --     0.0000                 0.0000                 0.0000
 Depolar     --     0.0000                 0.0000                 0.0000
 Atom AN      X      Y      Z        X      Y      Z        X      Y      Z
   1   6    -0.01   0.02  -0.02    -0.05   0.04  -0.05    -0.00   0.01  -0.01
   2   6    -0.04   0.00  -0.01    -0.00  -0.01  -0.01     0.00   0.00  -0.00
   3   6    -0.24  -0.08  -0.04    -0.15   0.05  -0.02    -0.00   0.01  -0.00
   4   6     0.30   0.21   0.05    -0.21  -0.17  -0.03    -0.03  -0.03  -0.00
   5   6    -0.00  -0.26   0.02    -0.04   0.16  -0.02    -0.01   0.02  -0.00
   6   6    -0.12   0.02  -0.03     0.13   0.02   0.03     0.02   0.01   0.00
   7   6     0.03   0.18  -0.01    -0.01  -0.16   0.01     0.00  -0.03   0.00
   8   6    -0.05  -0.33   0.01     0.01   0.26  -0.02    -0.01   0.04  -0.00
   9   6    -0.22   0.32  -0.09     0.15  -0.20   0.06     0.02  -0.03   0.01
  10   8     0.06  -0.14   0.03    -0.04   0.08  -0.02    -0.01   0.01  -0.00
  11   8     0.03   0.01   0.01    -0.01  -0.01  -0.00     0.00  -0.00   0.00
  12   6    -0.05   0.04   0.01     0.03  -0.03  -0.00     0.01  -0.00  -0.00
  13   8    -0.00  -0.01  -0.02     0.00   0.01   0.01     0.00   0.00   0.00
  14   7     0.05  -0.03   0.01    -0.04   0.02  -0.00     0.01   0.02  -0.01
  15   6    -0.03   0.02  -0.01     0.02  -0.02   0.02     0.10   0.17  -0.10
  16   6    -0.00  -0.01  -0.00    -0.01  -0.03  -0.01    -0.00  -0.00  -0.00
  17   1     0.08   0.02   0.05     0.17   0.05   0.11     0.01   0.02   0.01
  18   1     0.00  -0.06   0.09     0.04  -0.17   0.16     0.01  -0.03   0.02
  19   1    -0.01  -0.02  -0.05    -0.04  -0.05  -0.09    -0.02  -0.02  -0.00
  20   1     0.25  -0.01   0.27     0.34   0.08   0.35     0.02   0.01   0.02
  21   1     0.33  -0.05  -0.17     0.45   0.03  -0.22     0.02   0.00  -0.01
  22   1     0.07   0.18   0.00    -0.05  -0.11  -0.00    -0.01  -0.01  -0.00
  23   1     0.14   0.06   0.03    -0.13  -0.04  -0.03    -0.02  -0.01  -0.00
  24   1     0.03   0.03   0.00    -0.04  -0.01  -0.01    -0.01   0.00  -0.00
  25   1    -0.03   0.02   0.00     0.02  -0.01  -0.00     0.01  -0.00  -0.00
  26   1     0.02  -0.02   0.05    -0.02   0.01  -0.07     0.02   0.14   0.43
  27   1     0.04   0.00  -0.01    -0.04   0.01   0.03    -0.10  -0.26  -0.36
  28   1    -0.01  -0.03   0.01     0.04   0.05  -0.03    -0.33  -0.56   0.33
  29   1     0.02   0.03   0.04     0.05   0.07   0.04     0.01   0.01   0.01
  30   1     0.03  -0.01   0.01     0.01  -0.03   0.02     0.00  -0.00   0.00
  31   1    -0.01   0.03  -0.03    -0.05   0.07  -0.01    -0.00   0.01  -0.00
                     64                     65                     66
                        a                      a                      a 
 Frequencies --  1472.0897              1476.8562              1483.4427
 Red. masses --     1.7377                 9.9668                 1.7201
 Frc consts  --     0.0000                 0.0000                 0.0000
 IR Inten    --     0.9233               100.3454                 2.9307
 Raman Activ --     0.0000                 0.0000                 0.0000
 Depolar     --     0.0000                 0.0000                 0.0000
 Atom AN      X      Y      Z        X      Y      Z        X      Y      Z
   1   6    -0.05   0.13  -0.07     0.00   0.02  -0.00    -0.04   0.08  -0.08
   2   6     0.02   0.02  -0.05    -0.02  -0.00  -0.00    -0.04   0.09  -0.00
   3   6     0.08  -0.02   0.02     0.01   0.06  -0.01     0.05  -0.03   0.01
   4   6     0.02   0.04  -0.00     0.23  -0.21   0.08    -0.02   0.02  -0.01
   5   6     0.02  -0.02   0.01    -0.24  -0.10  -0.05     0.03   0.01   0.01
   6   6    -0.04  -0.02  -0.01     0.25   0.26   0.04    -0.04  -0.03  -0.01
   7   6    -0.00   0.05  -0.00     0.15  -0.35   0.07    -0.01   0.04  -0.01
   8   6     0.02  -0.05   0.01    -0.39   0.11  -0.09     0.04  -0.02   0.01
   9   6    -0.02   0.01  -0.01     0.03   0.37  -0.04    -0.01  -0.04   0.00
  10   8     0.01  -0.01   0.01     0.00  -0.13   0.01     0.01   0.01   0.00
  11   8    -0.00   0.00  -0.00     0.11  -0.02   0.03    -0.01   0.00  -0.00
  12   6    -0.01   0.01   0.00     0.03  -0.02  -0.00    -0.00   0.00   0.00
  13   8    -0.00  -0.00  -0.00    -0.00  -0.00   0.00     0.00  -0.00  -0.00
  14   7     0.01  -0.00   0.00    -0.02   0.02   0.01     0.00  -0.00   0.00
  15   6    -0.01  -0.00  -0.00     0.04  -0.02   0.02    -0.01   0.00  -0.00
  16   6     0.10  -0.10  -0.04     0.00   0.01   0.00    -0.08   0.11   0.10
  17   1     0.22   0.14   0.20     0.03   0.01   0.02     0.21   0.12   0.18
  18   1     0.15  -0.41   0.27     0.02  -0.05   0.04     0.10  -0.32   0.24
  19   1    -0.19  -0.23  -0.15    -0.02  -0.03  -0.03    -0.13  -0.17  -0.14
  20   1    -0.15  -0.02  -0.15    -0.06  -0.06  -0.06    -0.06   0.02  -0.06
  21   1    -0.19   0.01   0.09    -0.08  -0.06   0.04    -0.08   0.02   0.04
  22   1     0.01   0.01   0.00    -0.04   0.11  -0.02     0.01  -0.01   0.00
  23   1     0.04   0.01   0.01    -0.22  -0.01  -0.05     0.03   0.00   0.01
  24   1     0.02  -0.01   0.00    -0.20   0.14  -0.06     0.02  -0.01   0.01
  25   1    -0.00   0.00   0.00     0.01  -0.01   0.00    -0.00   0.00  -0.00
  26   1     0.00  -0.01  -0.00    -0.06   0.08  -0.09     0.01  -0.02   0.01
  27   1     0.01   0.01   0.01    -0.13  -0.03  -0.00     0.02   0.01   0.01
  28   1     0.00   0.01  -0.01     0.04  -0.01  -0.01    -0.00   0.01  -0.00
  29   1     0.17   0.16  -0.03    -0.02  -0.03   0.00    -0.25  -0.30  -0.08
  30   1    -0.31  -0.12   0.01     0.02   0.01  -0.00     0.25   0.22  -0.08
  31   1    -0.24   0.30   0.21     0.02  -0.03  -0.02     0.32  -0.41  -0.21
                     67                     68                     69
                        a                      a                      a 
 Frequencies --  1484.6587              1487.1237              1500.6573
 Red. masses --     2.4594                 1.6275                 1.6080
 Frc consts  --     0.0000                 0.0000                 0.0000
 IR Inten    --    13.1146                 3.9539                 5.9019
 Raman Activ --     0.0000                 0.0000                 0.0000
 Depolar     --     0.0000                 0.0000                 0.0000
 Atom AN      X      Y      Z        X      Y      Z        X      Y      Z
   1   6     0.03   0.01  -0.00     0.16   0.07  -0.02    -0.13  -0.03   0.02
   2   6     0.00  -0.00  -0.01     0.01   0.02  -0.03    -0.07  -0.02  -0.02
   3   6    -0.00   0.02  -0.00     0.01  -0.01   0.01     0.06   0.00   0.01
   4   6     0.03  -0.06   0.01    -0.01   0.01  -0.00    -0.00   0.01  -0.00
   5   6    -0.05   0.00  -0.01     0.01   0.00   0.00     0.01   0.00   0.00
   6   6     0.07   0.04   0.01    -0.01  -0.01  -0.00    -0.01  -0.01  -0.00
   7   6     0.02  -0.07   0.01    -0.00   0.01  -0.00    -0.00   0.01  -0.00
   8   6    -0.07   0.05  -0.02     0.01  -0.01   0.00     0.01  -0.01   0.00
   9   6     0.01   0.04  -0.00    -0.00  -0.01   0.00    -0.00  -0.00  -0.00
  10   8    -0.00  -0.01   0.00     0.00   0.00   0.00     0.01   0.00   0.00
  11   8     0.02  -0.00   0.01    -0.00  -0.00  -0.00    -0.00   0.00   0.00
  12   6     0.08  -0.07  -0.05    -0.02   0.02   0.00     0.01  -0.00   0.00
  13   8     0.02   0.02   0.06    -0.00  -0.00  -0.01    -0.00   0.00  -0.00
  14   7    -0.19   0.09  -0.05     0.04  -0.02   0.01    -0.01   0.00  -0.00
  15   6    -0.12   0.01  -0.10     0.02  -0.01   0.02    -0.00   0.00  -0.00
  16   6    -0.02  -0.01  -0.01    -0.12  -0.03  -0.08    -0.12  -0.03  -0.11
  17   1    -0.08   0.04  -0.00    -0.42   0.20  -0.01     0.39  -0.15   0.04
  18   1     0.03  -0.03  -0.02     0.15  -0.14  -0.11    -0.10   0.05   0.15
  19   1    -0.06  -0.06   0.04    -0.33  -0.32   0.24     0.24   0.22  -0.25
  20   1     0.00  -0.01   0.00    -0.01   0.01  -0.01    -0.09  -0.01  -0.09
  21   1     0.00  -0.01  -0.00    -0.00   0.00   0.00    -0.11  -0.01   0.06
  22   1    -0.01   0.01  -0.00     0.00  -0.00   0.00     0.00  -0.00   0.00
  23   1    -0.05  -0.01  -0.01     0.01   0.00   0.00     0.01   0.00   0.00
  24   1    -0.04   0.02  -0.01     0.01  -0.00   0.00     0.01  -0.00   0.00
  25   1     0.10  -0.07  -0.01    -0.02   0.01   0.00     0.00  -0.00  -0.00
  26   1     0.28  -0.43   0.34    -0.05   0.07  -0.07     0.00  -0.01   0.01
  27   1     0.61   0.13   0.03    -0.10  -0.01   0.00     0.01   0.00  -0.00
  28   1    -0.18   0.14   0.03     0.04  -0.01  -0.01    -0.01  -0.00   0.00
  29   1     0.01   0.03   0.05     0.07   0.19   0.34     0.09   0.23   0.42
  30   1     0.06  -0.02   0.03     0.38  -0.13   0.15     0.42  -0.18   0.19
  31   1    -0.00   0.01  -0.03    -0.00   0.06  -0.18    -0.02   0.09  -0.20
                     70                     71                     72
                        a                      a                      a 
 Frequencies --  1592.9018              1605.8564              1801.4076
 Red. masses --    11.7478                11.7234                13.2463
 Frc consts  --     0.0000                 0.0000                 0.0000
 IR Inten    --    21.1857                23.1204               531.9432
 Raman Activ --     0.0000                 0.0000                 0.0000
 Depolar     --     0.0000                 0.0000                 0.0000
 Atom AN      X      Y      Z        X      Y      Z        X      Y      Z
   1   6    -0.00  -0.00  -0.00     0.01   0.00   0.00    -0.00  -0.00  -0.00
   2   6     0.01   0.04  -0.01    -0.02   0.00  -0.01     0.00  -0.00  -0.00
   3   6    -0.01   0.00  -0.00     0.02   0.09  -0.01    -0.00  -0.00   0.00
   4   6     0.27   0.00   0.07     0.18  -0.55   0.10    -0.01   0.00  -0.00
   5   6    -0.20  -0.18  -0.03    -0.03   0.51  -0.06     0.00  -0.00   0.00
   6   6     0.46   0.11   0.10     0.12  -0.16   0.04    -0.01  -0.00  -0.00
   7   6    -0.31   0.07  -0.08    -0.24   0.30  -0.08     0.01  -0.00   0.00
   8   6     0.33   0.22   0.05    -0.01  -0.34   0.03    -0.02  -0.01  -0.02
   9   6    -0.49  -0.26  -0.09    -0.01   0.21  -0.02     0.02  -0.01   0.00
  10   8     0.03   0.04   0.01    -0.01  -0.01  -0.00    -0.00   0.01   0.00
  11   8    -0.03  -0.01  -0.01     0.01   0.00   0.00     0.01   0.03   0.04
  12   6    -0.03   0.01  -0.01    -0.02   0.02  -0.00    -0.37  -0.19  -0.69
  13   8     0.01   0.00   0.01     0.00  -0.00  -0.00     0.19   0.17   0.49
  14   7     0.02  -0.01   0.00     0.01  -0.01   0.00     0.16  -0.05   0.08
  15   6    -0.00   0.00  -0.00    -0.00   0.00  -0.00    -0.02   0.00  -0.01
  16   6    -0.00  -0.00   0.00     0.01   0.00   0.00    -0.00   0.00   0.00
  17   1     0.00   0.00   0.01    -0.00   0.00  -0.00     0.01   0.00   0.00
  18   1     0.00  -0.00   0.00    -0.00   0.00   0.00    -0.00  -0.00   0.00
  19   1     0.00  -0.00  -0.00    -0.00  -0.00  -0.00     0.00   0.00  -0.00
  20   1    -0.01  -0.02  -0.02     0.01  -0.02   0.01     0.00   0.00  -0.00
  21   1    -0.02  -0.02   0.01     0.01  -0.03   0.00     0.00   0.00  -0.00
  22   1    -0.03   0.05  -0.01    -0.07  -0.10  -0.01     0.00   0.00  -0.00
  23   1    -0.10  -0.03  -0.02    -0.02  -0.06  -0.00     0.00   0.00  -0.00
  24   1     0.03  -0.09   0.01     0.06  -0.05   0.02    -0.00   0.01  -0.00
  25   1    -0.01   0.01   0.00    -0.01   0.01   0.00     0.02  -0.01   0.01
  26   1    -0.00   0.00   0.00    -0.00   0.00   0.00    -0.01   0.04   0.02
  27   1    -0.00   0.00   0.00    -0.00   0.00   0.00    -0.03   0.02   0.03
  28   1     0.00  -0.00  -0.00     0.00  -0.00  -0.00    -0.02   0.01   0.00
  29   1     0.00  -0.00   0.00    -0.00  -0.00  -0.00    -0.00  -0.00  -0.00
  30   1     0.00   0.00  -0.00    -0.01   0.00  -0.00    -0.00  -0.00   0.00
  31   1     0.00  -0.00  -0.00    -0.00   0.00  -0.00    -0.00  -0.00   0.00
                     73                     74                     75
                        a                      a                      a 
 Frequencies --  2956.4419              2963.1229              2980.9321
 Red. masses --     1.8939                 1.9532                 1.4426
 Frc consts  --     0.0000                 0.0000                 0.0000
 IR Inten    --    26.1693                33.1397                49.8462
 Raman Activ --     0.0000                 0.0000                 0.0000
 Depolar     --     0.0000                 0.0000                 0.0000
 Atom AN      X      Y      Z        X      Y      Z        X      Y      Z
   1   6    -0.00   0.00  -0.00     0.00   0.00   0.00    -0.00  -0.00   0.00
   2   6    -0.00   0.00   0.01    -0.00   0.00  -0.00     0.00   0.00  -0.00
   3   6    -0.13   0.01   0.25     0.00  -0.00   0.00    -0.00  -0.00  -0.00
   4   6    -0.00  -0.00   0.00     0.00  -0.00   0.00     0.00  -0.00  -0.00
   5   6     0.00   0.00  -0.00     0.00  -0.00   0.00    -0.00   0.00  -0.00
   6   6    -0.00  -0.00  -0.00     0.00  -0.00   0.00    -0.00   0.00  -0.00
   7   6     0.00  -0.00   0.00    -0.00  -0.00  -0.00    -0.00   0.00   0.00
   8   6     0.00   0.00  -0.00    -0.00  -0.00   0.00     0.00  -0.00   0.00
   9   6     0.00  -0.00   0.00    -0.00   0.00  -0.00    -0.00   0.00  -0.00
  10   8     0.00   0.00   0.00     0.00  -0.00   0.00    -0.00  -0.00   0.00
  11   8    -0.00   0.00   0.00    -0.00  -0.00   0.00    -0.00   0.00   0.00
  12   6     0.00  -0.00   0.00     0.00   0.00  -0.00     0.01  -0.00   0.00
  13   8    -0.00  -0.00  -0.00    -0.00  -0.00   0.00     0.00  -0.00  -0.00
  14   7    -0.00   0.00  -0.00     0.00  -0.00  -0.00    -0.02   0.01   0.00
  15   6    -0.00   0.00  -0.00     0.15   0.22  -0.12    -0.16   0.08  -0.09
  16   6     0.01  -0.01  -0.00     0.00  -0.00   0.00    -0.00  -0.00   0.00
  17   1    -0.00  -0.01   0.01    -0.00  -0.00   0.00     0.00   0.00  -0.00
  18   1     0.01   0.00   0.00    -0.00  -0.00  -0.00     0.00   0.00   0.00
  19   1     0.00  -0.00   0.00    -0.00   0.00  -0.00    -0.00   0.00  -0.00
  20   1     0.64   0.02  -0.64    -0.00  -0.00   0.00     0.00  -0.00  -0.00
  21   1    -0.16  -0.04  -0.25    -0.00  -0.00  -0.00     0.00   0.00   0.01
  22   1    -0.00   0.00  -0.00    -0.00   0.00  -0.00     0.00  -0.00   0.00
  23   1     0.00  -0.00   0.00    -0.00   0.00  -0.00     0.00  -0.00   0.00
  24   1    -0.00  -0.00   0.00     0.00   0.00   0.00    -0.00  -0.00  -0.00
  25   1    -0.00  -0.00  -0.00    -0.00  -0.00  -0.00     0.00   0.00   0.01
  26   1     0.00   0.00  -0.00    -0.67  -0.33   0.10     0.52   0.30  -0.12
  27   1     0.00  -0.00   0.00     0.11  -0.47   0.35     0.08  -0.62   0.44
  28   1    -0.00  -0.00  -0.00     0.02   0.03  -0.02    -0.02   0.00  -0.03
  29   1    -0.01   0.01  -0.00    -0.00   0.00  -0.00    -0.00   0.00  -0.00
  30   1    -0.00   0.01   0.02     0.00  -0.00   0.00     0.00  -0.00  -0.00
  31   1    -0.01  -0.01  -0.00    -0.00  -0.00  -0.00     0.00   0.00   0.00
                     76                     77                     78
                        a                      a                      a 
 Frequencies --  2990.0357              3033.8268              3035.8110
 Red. masses --     1.5903                 1.8147                 1.6515
 Frc consts  --     0.0000                 0.0000                 0.0000
 IR Inten    --    18.6204                14.7933                26.5294
 Raman Activ --     0.0000                 0.0000                 0.0000
 Depolar     --     0.0000                 0.0000                 0.0000
 Atom AN      X      Y      Z        X      Y      Z        X      Y      Z
   1   6     0.01  -0.00   0.01    -0.08  -0.08  -0.03     0.17   0.07   0.09
   2   6    -0.00  -0.00  -0.00    -0.00   0.00   0.01     0.00   0.00   0.01
   3   6    -0.16  -0.03  -0.16    -0.00   0.00   0.00     0.00   0.00   0.01
   4   6    -0.01  -0.00  -0.00    -0.00  -0.00   0.00     0.00   0.00  -0.00
   5   6     0.00   0.00   0.00     0.00  -0.00   0.00    -0.00   0.00  -0.00
   6   6    -0.00   0.00  -0.00     0.00  -0.00  -0.00    -0.00   0.00  -0.00
   7   6     0.00   0.00   0.00    -0.00   0.00  -0.00     0.00   0.00  -0.00
   8   6     0.00   0.00   0.00    -0.00  -0.00   0.00     0.00   0.00   0.00
   9   6     0.00  -0.00  -0.00    -0.00   0.00   0.00    -0.00  -0.00   0.00
  10   8     0.00   0.00  -0.00     0.00  -0.00  -0.00    -0.00   0.00   0.00
  11   8    -0.00   0.00   0.00     0.00  -0.00  -0.00     0.00   0.00   0.00
  12   6     0.00  -0.00  -0.00     0.00   0.00   0.00    -0.00  -0.00  -0.00
  13   8     0.00   0.00   0.00    -0.00  -0.00  -0.00     0.00   0.00   0.00
  14   7     0.00  -0.00   0.00    -0.00   0.00  -0.00     0.00   0.00   0.00
  15   6     0.00  -0.00   0.00    -0.00  -0.00  -0.00     0.01   0.01   0.02
  16   6     0.01   0.00   0.00    -0.04   0.16   0.18    -0.10   0.04   0.08
  17   1     0.01   0.01  -0.01    -0.01  -0.00  -0.01     0.07   0.10  -0.09
  18   1    -0.03  -0.02  -0.01     0.38   0.23   0.14    -0.63  -0.39  -0.23
  19   1    -0.02   0.02  -0.00    -0.08   0.05  -0.02    -0.02   0.04  -0.00
  20   1     0.20   0.00  -0.26     0.02  -0.00  -0.01     0.01  -0.00  -0.01
  21   1     0.38   0.12   0.83     0.00   0.00   0.00    -0.02  -0.00  -0.03
  22   1    -0.01   0.00  -0.00    -0.00   0.00  -0.00     0.00  -0.00   0.00
  23   1     0.00  -0.00   0.00     0.00   0.00   0.00     0.00  -0.00   0.00
  24   1    -0.00  -0.00  -0.00    -0.00  -0.00   0.00    -0.00  -0.00  -0.00
  25   1     0.00  -0.00  -0.00    -0.00  -0.00  -0.00     0.00   0.00   0.00
  26   1    -0.01  -0.00   0.00    -0.00  -0.00  -0.00     0.00   0.00   0.00
  27   1    -0.00   0.01  -0.00    -0.00   0.00  -0.00     0.00   0.00   0.00
  28   1     0.00  -0.00  -0.00     0.00   0.00   0.00    -0.03  -0.02  -0.06
  29   1    -0.01   0.01  -0.00     0.12  -0.08   0.05     0.06  -0.05   0.02
  30   1     0.00  -0.00  -0.00     0.13  -0.43  -0.67     0.06  -0.25  -0.39
  31   1    -0.01  -0.01  -0.00    -0.12  -0.05  -0.01     0.22   0.15   0.08
                     79                     80                     81
                        a                      a                      a 
 Frequencies --  3036.1969              3041.4166              3044.4104
 Red. masses --     1.7250                 1.7566                 1.8842
 Frc consts  --     0.0000                 0.0000                 0.0000
 IR Inten    --     2.2814                 9.4342                48.2845
 Raman Activ --     0.0000                 0.0000                 0.0000
 Depolar     --     0.0000                 0.0000                 0.0000
 Atom AN      X      Y      Z        X      Y      Z        X      Y      Z
   1   6    -0.01  -0.01  -0.01     0.02  -0.17   0.16     0.05   0.13  -0.05
   2   6    -0.00  -0.00  -0.00     0.00  -0.00   0.01     0.01   0.01   0.00
   3   6    -0.00  -0.00  -0.00     0.00   0.00   0.01     0.00  -0.00  -0.00
   4   6     0.00  -0.00   0.00     0.00   0.00   0.00     0.00   0.00   0.00
   5   6    -0.00   0.00  -0.00    -0.00   0.00  -0.00    -0.00   0.00  -0.00
   6   6    -0.00   0.00  -0.00    -0.00  -0.00  -0.00    -0.00   0.00  -0.00
   7   6     0.00   0.00  -0.00    -0.00  -0.00   0.00     0.00   0.00   0.00
   8   6     0.00  -0.00   0.00     0.00   0.00   0.00     0.00   0.00  -0.00
   9   6    -0.00   0.00  -0.00     0.00  -0.00   0.00     0.00  -0.00   0.00
  10   8     0.00  -0.00  -0.00    -0.00   0.00  -0.00    -0.00   0.00  -0.00
  11   8    -0.00   0.00   0.00    -0.00  -0.00  -0.00     0.00  -0.00  -0.00
  12   6    -0.00   0.00  -0.00     0.00   0.00   0.00    -0.00  -0.00  -0.00
  13   8     0.00  -0.00   0.00    -0.00  -0.00  -0.00     0.00   0.00   0.00
  14   7    -0.00   0.00   0.00    -0.00   0.00  -0.00     0.00  -0.00  -0.00
  15   6     0.11   0.07   0.22     0.00   0.00   0.00    -0.00  -0.00  -0.00
  16   6     0.01  -0.00  -0.00     0.07   0.07  -0.00     0.20   0.09   0.08
  17   1    -0.01  -0.01   0.01     0.24   0.47  -0.54    -0.10  -0.22   0.26
  18   1     0.05   0.03   0.02    -0.04  -0.05   0.00    -0.25  -0.14  -0.10
  19   1     0.00  -0.00   0.00    -0.25   0.19  -0.04     0.17  -0.12   0.03
  20   1    -0.00   0.00   0.00    -0.00   0.00   0.00    -0.01   0.00   0.01
  21   1     0.00   0.00   0.00    -0.01  -0.00  -0.03    -0.00  -0.00  -0.01
  22   1     0.00  -0.00   0.00     0.00  -0.00   0.00     0.01  -0.00   0.00
  23   1     0.00  -0.00   0.00    -0.00   0.00  -0.00     0.00  -0.00   0.00
  24   1    -0.00  -0.00   0.00     0.00   0.00   0.00    -0.00  -0.00  -0.00
  25   1     0.00   0.01   0.01    -0.00   0.00   0.00    -0.00   0.00   0.00
  26   1     0.01   0.00   0.03     0.00   0.00  -0.00     0.00   0.00  -0.00
  27   1     0.02   0.02   0.02    -0.00   0.00   0.00    -0.00  -0.00   0.00
  28   1    -0.39  -0.27  -0.84    -0.00  -0.00  -0.00     0.00   0.00   0.00
  29   1    -0.01   0.01  -0.00     0.13  -0.09   0.03    -0.12   0.13  -0.02
  30   1    -0.00   0.02   0.03    -0.01   0.07   0.10     0.05  -0.05  -0.08
  31   1    -0.02  -0.01  -0.01    -0.38  -0.23  -0.11    -0.65  -0.40  -0.18
                     82                     83                     84
                        a                      a                      a 
 Frequencies --  3048.3766              3052.1939              3087.6657
 Red. masses --     1.5864                 1.6124                 1.7788
 Frc consts  --     0.0000                 0.0000                 0.0000
 IR Inten    --    15.4453                26.2420                 9.2463
 Raman Activ --     0.0000                 0.0000                 0.0000
 Depolar     --     0.0000                 0.0000                 0.0000
 Atom AN      X      Y      Z        X      Y      Z        X      Y      Z
   1   6    -0.10  -0.03   0.05    -0.19   0.09   0.01    -0.00   0.00  -0.00
   2   6     0.00  -0.01   0.01    -0.01   0.01   0.00    -0.00  -0.00  -0.00
   3   6     0.00   0.00   0.00    -0.00  -0.00  -0.00    -0.00  -0.00  -0.00
   4   6     0.00   0.00   0.00    -0.00  -0.00  -0.00    -0.01  -0.00  -0.00
   5   6    -0.00   0.00  -0.00     0.00  -0.00   0.00    -0.20   0.05  -0.05
   6   6     0.00  -0.00   0.00    -0.00   0.00  -0.00     0.04  -0.15   0.02
   7   6    -0.00  -0.00  -0.00     0.00   0.00  -0.00     0.03   0.02   0.00
   8   6     0.00   0.00   0.00    -0.00  -0.00  -0.00     0.00   0.00   0.00
   9   6    -0.00   0.00   0.00    -0.00   0.00   0.00     0.00  -0.00   0.00
  10   8     0.00  -0.00  -0.00     0.00  -0.00  -0.00    -0.00   0.00  -0.00
  11   8    -0.00   0.00  -0.00     0.00  -0.00  -0.00     0.00  -0.00   0.00
  12   6     0.00   0.00   0.00     0.00   0.00   0.00     0.00   0.00   0.00
  13   8    -0.00  -0.00  -0.00    -0.00  -0.00  -0.00    -0.00  -0.00  -0.00
  14   7    -0.00   0.00  -0.00    -0.00  -0.00  -0.00    -0.00  -0.00  -0.00
  15   6    -0.00  -0.00  -0.00     0.00   0.00   0.00     0.00  -0.00  -0.00
  16   6     0.14  -0.13   0.06    -0.07   0.06  -0.02    -0.00   0.00  -0.00
  17   1     0.10   0.24  -0.26     0.06   0.20  -0.21    -0.00   0.00  -0.00
  18   1     0.05   0.03   0.03    -0.00   0.03   0.01     0.00   0.00   0.00
  19   1     0.18  -0.17   0.06     0.62  -0.55   0.16     0.00  -0.00   0.00
  20   1    -0.00   0.00   0.00     0.01   0.00  -0.01     0.00   0.00  -0.01
  21   1    -0.00  -0.00  -0.00     0.01   0.00   0.02     0.00   0.00   0.01
  22   1     0.00  -0.00   0.00    -0.01   0.00  -0.00     0.72  -0.18   0.19
  23   1    -0.00   0.00  -0.00     0.00  -0.00   0.00    -0.14   0.54  -0.08
  24   1     0.00   0.00   0.00    -0.00  -0.00  -0.00    -0.10  -0.11  -0.01
  25   1    -0.00  -0.00  -0.00     0.00   0.00   0.00    -0.00   0.00  -0.00
  26   1    -0.00  -0.00   0.00    -0.00  -0.00   0.00    -0.00  -0.00   0.00
  27   1    -0.00   0.00  -0.00     0.00  -0.00   0.00    -0.00   0.00  -0.00
  28   1     0.00   0.00   0.00    -0.00  -0.00  -0.00     0.00   0.00   0.00
  29   1    -0.63   0.53  -0.13     0.29  -0.24   0.06     0.00  -0.00   0.00
  30   1     0.05  -0.10  -0.12    -0.01   0.01   0.00    -0.00   0.00  -0.00
  31   1     0.10   0.03   0.03    -0.02   0.01  -0.00     0.00   0.00   0.00
                     85                     86                     87
                        a                      a                      a 
 Frequencies --  3096.8641              3107.8767              3476.2301
 Red. masses --     1.8389                 1.8902                 1.8395
 Frc consts  --     0.0000                 0.0000                 0.0000
 IR Inten    --    33.7865                29.2795                15.4670
 Raman Activ --     0.0000                 0.0000                 0.0000
 Depolar     --     0.0000                 0.0000                 0.0000
 Atom AN      X      Y      Z        X      Y      Z        X      Y      Z
   1   6    -0.00  -0.00  -0.00    -0.00  -0.00   0.00     0.00  -0.00  -0.00
   2   6    -0.00  -0.00  -0.00    -0.00  -0.00  -0.00    -0.00  -0.00  -0.00
   3   6    -0.00   0.00  -0.00    -0.00   0.00  -0.00     0.00   0.00  -0.00
   4   6    -0.00  -0.01  -0.00    -0.00  -0.00   0.00    -0.00   0.00   0.00
   5   6    -0.15   0.04  -0.04    -0.06   0.01  -0.02    -0.00  -0.00  -0.00
   6   6    -0.04   0.17  -0.03    -0.04   0.14  -0.02     0.00   0.00  -0.00
   7   6    -0.09  -0.10  -0.01     0.16   0.17   0.02     0.00  -0.00   0.00
   8   6    -0.01  -0.00  -0.00     0.01  -0.00   0.00    -0.00   0.00  -0.00
   9   6     0.00   0.00   0.00    -0.00  -0.00  -0.00     0.00  -0.00   0.00
  10   8    -0.00  -0.00  -0.00     0.00   0.00   0.00     0.00   0.00  -0.00
  11   8     0.00   0.00   0.00    -0.00   0.00   0.00     0.00  -0.00  -0.00
  12   6     0.00  -0.00  -0.00     0.00   0.00  -0.00    -0.00  -0.00  -0.01
  13   8    -0.00   0.00   0.00    -0.00  -0.00  -0.00     0.00   0.00   0.00
  14   7    -0.00   0.00   0.00    -0.00   0.00   0.00    -0.06  -0.10  -0.23
  15   6     0.00  -0.00   0.00     0.00   0.00  -0.00    -0.00  -0.00  -0.01
  16   6    -0.00  -0.00  -0.00    -0.00  -0.00  -0.00    -0.00  -0.00  -0.00
  17   1    -0.00  -0.00  -0.00     0.00   0.00  -0.00     0.00  -0.00   0.00
  18   1     0.00   0.00   0.00     0.00   0.00   0.00     0.00   0.00   0.00
  19   1     0.00  -0.00   0.00    -0.00   0.00  -0.00    -0.00   0.00  -0.00
  20   1     0.00   0.00  -0.00     0.00   0.00  -0.00     0.00   0.00  -0.00
  21   1     0.00   0.00   0.01     0.00   0.00   0.00     0.00   0.00   0.00
  22   1     0.51  -0.13   0.14     0.19  -0.05   0.05     0.00  -0.00   0.00
  23   1     0.15  -0.59   0.09     0.12  -0.46   0.07     0.00  -0.00   0.00
  24   1     0.35   0.36   0.04    -0.56  -0.58  -0.07    -0.00   0.00  -0.00
  25   1     0.00  -0.00  -0.00    -0.00   0.00  -0.00     0.22   0.37   0.86
  26   1    -0.00  -0.00   0.00    -0.00  -0.00   0.00    -0.00  -0.00   0.00
  27   1    -0.00   0.00  -0.00     0.00   0.00  -0.00    -0.00   0.00  -0.00
  28   1     0.00   0.00   0.00     0.00   0.00   0.00     0.01   0.00   0.01
  29   1     0.00  -0.00   0.00    -0.00   0.00  -0.00    -0.00  -0.00  -0.00
  30   1    -0.00  -0.00  -0.00    -0.00   0.00   0.00    -0.00   0.00   0.00
  31   1     0.00   0.00   0.00     0.00   0.00   0.00     0.00   0.00   0.00
