
                                 *****************
                                 * O   R   C   A *
                                 *****************

                                            #,                                       
                                            ###                                      
                                            ####                                     
                                            #####                                    
                                            ######                                   
                                           ########,                                 
                                     ,,################,,,,,                         
                               ,,#################################,,                 
                          ,,##########################################,,             
                       ,#########################################, ''#####,          
                    ,#############################################,,   '####,        
                  ,##################################################,,,,####,       
                ,###########''''           ''''###############################       
              ,#####''   ,,,,##########,,,,          '''####'''          '####       
            ,##' ,,,,###########################,,,                        '##       
           ' ,,###''''                  '''############,,,                           
         ,,##''                                '''############,,,,        ,,,,,,###''
      ,#''                                            '''#######################'''  
     '                                                          ''''####''''         
             ,#######,   #######,   ,#######,      ##                                
            ,#'     '#,  ##    ##  ,#'     '#,    #''#        ,####,   ,####,        
            ##       ##  ##   ,#'  ##            #'  '#       #'       #'  '#        
            ##       ##  #######   ##           ,######,      #####,   #    #        
            '#,     ,#'  ##    ##  '#,     ,#' ,#      #,     #,   #   #,  ,#        
             '#######'   ##     ##  '#######'  #'      '#     '####' # '####'        



                #########################################################
                #                        -***-                          #
                #          Department of theory and spectroscopy        #
                #                                                       #
                #                      Frank Neese                      #
                #                                                       #
                #     Directorship, Architecture, Infrastructure        #
                #                    SHARK, DRIVERS                     #
                #        Core code/Algorithms in most modules           #
                #                                                       #
                #        Max Planck Institute fuer Kohlenforschung      #
                #                Kaiser Wilhelm Platz 1                 #
                #                 D-45470 Muelheim/Ruhr                 #
                #                      Germany                          #
                #                                                       #
                #                  All rights reserved                  #
                #                        -***-                          #
                #########################################################


                         Program Version 6.0.0  -   RELEASE  -


 With contributions from (in alphabetic order):
   Daniel Aravena         : Magnetic Suceptibility
   Michael Atanasov       : Ab Initio Ligand Field Theory (pilot matlab implementation)
   Alexander A. Auer      : GIAO ZORA, VPT2 properties, NMR spectrum
   Ute Becker             : All parallelization in ORCA, NUMFREQ, NUMCALC
   Giovanni Bistoni       : ED, misc. LED, open-shell LED, HFLD
   Martin Brehm           : Molecular dynamics
   Dmytro Bykov           : pre 5.0 version of the SCF Hessian
   Marcos Casanova-Páez   : Triplet and SCS-CIS(D). UHF-(DLPNO)-IP/EA/STEOM-CCSD. UHF-CVS-IP/STEOM-CCSD
   Vijay G. Chilkuri      : MRCI spin determinant printing, contributions to CSF-ICE
   Pauline Colinet        : FMM embedding
   Dipayan Datta          : RHF DLPNO-CCSD density
   Achintya Kumar Dutta   : EOM-CC, STEOM-CC
   Nicolas Foglia         : Exact transition moments, OPA infrastructure, MCD improvements
   Dmitry Ganyushin       : Spin-Orbit,Spin-Spin,Magnetic field MRCI
   Miquel Garcia          : C-PCM and meta-GGA Hessian, CCSD/C-PCM, Gaussian charge scheme
   Tiago L. C. Gouveia    : GS-ROHF, GS-ROCIS
   Yang Guo               : DLPNO-NEVPT2, F12-NEVPT2, CIM, IAO-localization
   Andreas Hansen         : Spin unrestricted coupled pair/coupled cluster methods
   Ingolf Harden          : AUTO-CI MPn and infrastructure 
   Benjamin Helmich-Paris : MC-RPA, TRAH-(SCF,CASSCF), AVAS, COSX integrals, SCF dyn. polar.
   Lee Huntington         : MR-EOM, pCC
   Robert Izsak           : Overlap fitted RIJCOSX, COSX-SCS-MP3, EOM
   Riya Kayal             : Wick's Theorem for AUTO-CI, AUTO-CI UHF-CCSDT
   Emily Kempfer          : AUTO-CI, RHF CISDT and CCSDT
   Christian Kollmar      : KDIIS, OOCD, Brueckner-CCSD(T), CCSD density, CASPT2, CASPT2-K, improved NEVPT2
   Axel Koslowski         : Symmetry handling
   Simone Kossmann        : Meta GGA functionals, TD-DFT gradient, OOMP2, (MP2 Hessian; deprecated post 5.0)
   Lucas Lang             : DCDCAS
   Marvin Lechner         : AUTO-CI (C++ implementation), FIC-MRCC
   Spencer Leger          : CASSCF response
   Dagmar Lenk            : GEPOL surface, SMD, ORCA-2-JSON
   Dimitrios Liakos       : Extrapolation schemes; Compound Job, initial MDCI parallelization
   Dimitrios Manganas     : Further ROCIS development; embedding schemes. LFT, Crystal Embedding
   Dimitrios Pantazis     : SARC Basis sets
   Anastasios Papadopoulos: AUTO-CI, single reference methods and gradients
   Taras Petrenko         : pre 6.0 DFT Hessian and TD-DFT gradient, (ASA, deprecated), ECA, 1-Electron XAS/XES, NRVS
   Peter Pinski           : DLPNO-MP2, DLPNO-MP2 Gradient
   Christoph Reimann      : Effective Core Potentials
   Marius Retegan         : Local ZFS, SOC
   Christoph Riplinger    : Optimizer, TS searches, QM/MM, DLPNO-CCSD(T), (RO)-DLPNO pert. Triples
   Michael Roemelt        : Original ROCIS implementation
   Masaaki Saitow         : Open-shell DLPNO-CCSD energy and density
   Barbara Sandhoefer     : DKH picture change effects
   Kantharuban Sivalingam : CASSCF convergence/infrastructure, NEVPT2 and variants, FIC-MRCI
   Bernardo de Souza      : ESD, SOC TD-DFT
   Georgi Stoychev        : AutoAux, RI-MP2 NMR, DLPNO-MP2 response, X2C
   Van Anh Tran           : RI-MP2 g-tensors
   Willem Van den Heuvel  : Paramagnetic NMR
   Zikuan Wang            : NOTCH, Electric field optimization 
   Frank Wennmohs         : Technical directorship and infrastructure
   Hang Xu                : AUTO-CI-Response properties 


 We gratefully acknowledge several colleagues who have allowed us to
 interface, adapt or use parts of their codes:
   Stefan Grimme, W. Hujo, H. Kruse, P. Pracht,  : VdW corrections, initial TS optimization,
                  C. Bannwarth, S. Ehlert,         DFT functionals, gCP, sTDA/sTD-DF
                  L. Wittmann, M. Mueller
   Ed Valeev, F. Pavosevic, A. Kumar             : LibInt (2-el integral package), F12 methods
   Garnet Chan, S. Sharma, J. Yang, R. Olivares  : DMRG
   Ulf Ekstrom                                   : XCFun DFT Library
   Mihaly Kallay                                 : mrcc  (arbitrary order and MRCC methods)
   Frank Weinhold                                : gennbo (NPA and NBO analysis)
   Simon Mueller                                 : openCOSMO-RS
   Christopher J. Cramer and Donald G. Truhlar   : smd solvation model
   Lars Goerigk                                  : TD-DFT with DH, B97 family of functionals
   V. Asgeirsson, H. Jonsson                     : NEB implementation
   FAccTs GmbH                                   : IRC, NEB, NEB-TS, DLPNO-Multilevel, CI-OPT
                                                   MM, QMMM, 2- and 3-layer-ONIOM, Crystal-QMMM,
                                                   LR-CPCM, SF, NACMEs, symmetry and pop. for TD-DFT,
                                                   nearIR, NL-DFT gradient (VV10), updates on ESD,
                                                   ML-optimized integration grids, MBIS, APM,
                                                   GOAT, DOCKER, SOLVATOR, interface openCOSMO-RS
   S Lehtola, MJT Oliveira, MAL Marques          : LibXC Library
   Liviu Ungur et al                             : ANISO software


 Your calculation uses the libint2 library for the computation of 2-el integrals
 For citations please refer to: http://libint.valeyev.net

 Your ORCA version has been built with support for libXC version: 6.2.2
 For citations please refer to: https://libxc.gitlab.io

 This ORCA versions uses:
   CBLAS   interface :  Fast vector & matrix operations
   LAPACKE interface :  Fast linear algebra routines
   SCALAPACK package :  Parallel linear algebra routines
   Shared memory     :  Shared parallel matrices
   BLAS/LAPACK       :  OpenBLAS 0.3.27  USE64BITINT DYNAMIC_ARCH NO_AFFINITY SkylakeX SINGLE_THREADED
        Core in use  :  SkylakeX
   Copyright (c) 2011-2014, The OpenBLAS Project




***************************************
The coordinates will be read from file: vacuum_censo.xyz
***************************************


Your calculation utilizes the geometrical counterpoise correction gCP
Please cite in your paper:
H.Kruse, S. Grimme J.Chem.Phys., 136, (2012), 154101 
   

Your calculation utilizes the atom-pairwise dispersion correction
based on EEQ partial charges (D4)


================================================================================

----- Orbital basis set information -----
Your calculation utilizes the basis: def2-TZVP
   F. Weigend and R. Ahlrichs, Phys. Chem. Chem. Phys. 7, 3297 (2005).

----- AuxJ basis set information -----
Your calculation utilizes the basis: def2-mTZVPP/J
   Stefan Grimme, Andreas Hansen, Sebastian Ehlert, and Jan-Michael Mewes 
   J. Chem. Phys. 154, 000000 (2021). DOI: 10.1063/5.0040021

================================================================================
                                        WARNINGS
                       Please study these warnings very carefully!
================================================================================

Using LibXC functional ID 497 : Re-regularized SCAN exchange by Furness et al
[ 1]  J. W. Furness, A. D. Kaplan, J. Ning, J. P. Perdew, and J. Sun.,  J. Phys. Chem. Lett. 11, 8208-8215 (2020)
[ 2]  J. W. Furness, A. D. Kaplan, J. Ning, J. P. Perdew, and J. Sun.,  J. Phys. Chem. Lett. 11, 9248-9248 (2020)
Using LibXC functional ID 498 : Re-regularized SCAN correlation by Furness et al
[ 1]  J. W. Furness, A. D. Kaplan, J. Ning, J. P. Perdew, and J. Sun.,  J. Phys. Chem. Lett. 11, 8208-8215 (2020)
[ 2]  J. W. Furness, A. D. Kaplan, J. Ning, J. P. Perdew, and J. Sun.,  J. Phys. Chem. Lett. 11, 9248-9248 (2020)
Using LibXC functional ID 497 : Re-regularized SCAN exchange by Furness et al
[ 1]  J. W. Furness, A. D. Kaplan, J. Ning, J. P. Perdew, and J. Sun.,  J. Phys. Chem. Lett. 11, 8208-8215 (2020)
[ 2]  J. W. Furness, A. D. Kaplan, J. Ning, J. P. Perdew, and J. Sun.,  J. Phys. Chem. Lett. 11, 9248-9248 (2020)
Using LibXC functional ID 498 : Re-regularized SCAN correlation by Furness et al
[ 1]  J. W. Furness, A. D. Kaplan, J. Ning, J. P. Perdew, and J. Sun.,  J. Phys. Chem. Lett. 11, 8208-8215 (2020)
[ 2]  J. W. Furness, A. D. Kaplan, J. Ning, J. P. Perdew, and J. Sun.,  J. Phys. Chem. Lett. 11, 9248-9248 (2020)

================================================================================
                                       INPUT FILE
================================================================================
NAME = vacuum_censo.inp
|  1> ! r2SCAN-3c DEF2-TZVP FREQ
|  2> * xyzfile 0 1 vacuum_censo.xyz
|  3> 
|  4>                          ****END OF INPUT****
================================================================================

                       ****************************
                       * Single Point Calculation *
                       ****************************

---------------------------------
CARTESIAN COORDINATES (ANGSTROEM)
---------------------------------
  C     -1.738990   -0.822590    0.004456
  C     -0.504786    0.003935   -0.360279
  C     -0.667422    1.456125    0.089481
  C      0.737740   -0.637615    0.260783
  O      1.960871    0.005153   -0.097758
  H     -1.893892   -0.830292    1.090041
  H     -1.639183   -1.861164   -0.328219
  H     -2.640289   -0.407101   -0.456190
  H     -0.372245   -0.012963   -1.450590
  H     -1.566948    1.902514   -0.345790
  H      0.180573    2.076311   -0.219856
  H     -0.761643    1.515493    1.181402
  H      0.619719   -0.674341    1.357903
  H      0.835478   -1.669860   -0.093115
  H      1.982895    0.865970    0.331748

----------------------------
CARTESIAN COORDINATES (A.U.)
----------------------------
  NO LB      ZA    FRAG     MASS         X           Y           Z
   0 C     6.0000    0    12.011   -3.286215   -1.554469    0.008421
   1 C     6.0000    0    12.011   -0.953907    0.007437   -0.680829
   2 C     6.0000    0    12.011   -1.261245    2.751677    0.169095
   3 C     6.0000    0    12.011    1.394126   -1.204918    0.492808
   4 O     8.0000    0    15.999    3.705509    0.009737   -0.184736
   5 H     1.0000    0     1.008   -3.578937   -1.569024    2.059880
   6 H     1.0000    0     1.008   -3.097606   -3.517091   -0.620243
   7 H     1.0000    0     1.008   -4.989424   -0.769309   -0.862074
   8 H     1.0000    0     1.008   -0.703440   -0.024496   -2.741219
   9 H     1.0000    0     1.008   -2.961103    3.595230   -0.653449
  10 H     1.0000    0     1.008    0.341234    3.923659   -0.415467
  11 H     1.0000    0     1.008   -1.439296    2.863867    2.232525
  12 H     1.0000    0     1.008    1.171098   -1.274319    2.566065
  13 H     1.0000    0     1.008    1.578825   -3.155578   -0.175962
  14 H     1.0000    0     1.008    3.747129    1.636446    0.626913

--------------------------------
INTERNAL COORDINATES (ANGSTROEM)
--------------------------------
 C      0   0   0     0.000000000000     0.00000000     0.00000000
 C      1   0   0     1.529521683691     0.00000000     0.00000000
 C      2   1   0     1.528917502629   110.93318581     0.00000000
 C      2   1   3     1.530089743843   109.38420199   123.30694311
 O      4   2   1     1.427498063028   113.89475721   175.82492129
 H      1   2   3     1.096608037373   110.72261243   299.18553819
 H      1   2   3     1.095112241582   111.49992739   179.07045903
 H      1   2   3     1.094150819252   111.04484334    58.70844513
 H      2   1   3     1.098467792140   109.01061020   240.42730641
 H      3   2   1     1.094473529867   110.96665366   303.06195800
 H      3   2   1     1.095178587327   111.86461897   183.59226210
 H      3   2   1     1.097584889064   110.68058404    62.50249853
 H      4   2   1     1.104061031965   109.29836145   300.42687878
 H      4   2   1     1.095593947521   109.65624594    57.92282814
 H      5   4   2     0.962272075313   108.07764753    69.73691746

---------------------------
INTERNAL COORDINATES (A.U.)
---------------------------
 C      0   0   0     0.000000000000     0.00000000     0.00000000
 C      1   0   0     2.890377098071     0.00000000     0.00000000
 C      2   1   0     2.889235361327   110.93318581     0.00000000
 C      2   1   3     2.891450576185   109.38420199   123.30694311
 O      4   2   1     2.697580395825   113.89475721   175.82492129
 H      1   2   3     2.072288866891   110.72261243   299.18553819
 H      1   2   3     2.069462222494   111.49992739   179.07045903
 H      1   2   3     2.067645397591   111.04484334    58.70844513
 H      2   1   3     2.075803294078   109.01061020   240.42730641
 H      3   2   1     2.068255232274   110.96665366   303.06195800
 H      3   2   1     2.069587597783   111.86461897   183.59226210
 H      3   2   1     2.074134849061   110.68058404    62.50249853
 H      4   2   1     2.086372985549   109.29836145   300.42687878
 H      4   2   1     2.070372514797   109.65624594    57.92282814
 H      5   4   2     1.818430688661   108.07764753    69.73691746

---------------------
BASIS SET INFORMATION
---------------------
There are 3 groups of distinct atoms

 Group   1 Type C   : 11s6p2d1f contracted to 5s3p2d1f pattern {62111/411/11/1}
 Group   2 Type O   : 11s6p2d1f contracted to 5s3p2d1f pattern {62111/411/11/1}
 Group   3 Type H   : 5s1p contracted to 3s1p pattern {311/1}

Atom   0C    basis set group =>   1
Atom   1C    basis set group =>   1
Atom   2C    basis set group =>   1
Atom   3C    basis set group =>   1
Atom   4O    basis set group =>   2
Atom   5H    basis set group =>   3
Atom   6H    basis set group =>   3
Atom   7H    basis set group =>   3
Atom   8H    basis set group =>   3
Atom   9H    basis set group =>   3
Atom  10H    basis set group =>   3
Atom  11H    basis set group =>   3
Atom  12H    basis set group =>   3
Atom  13H    basis set group =>   3
Atom  14H    basis set group =>   3
---------------------------------
AUXILIARY/J BASIS SET INFORMATION
---------------------------------
There are 3 groups of distinct atoms

 Group   1 Type C   : 8s3p3d contracted to 6s3p3d pattern {311111/111/111}
 Group   2 Type O   : 8s3p3d contracted to 6s3p3d pattern {311111/111/111}
 Group   3 Type H   : 5s2p1d contracted to 3s1p1d pattern {311/2/1}

Atom   0C    basis set group =>   1
Atom   1C    basis set group =>   1
Atom   2C    basis set group =>   1
Atom   3C    basis set group =>   1
Atom   4O    basis set group =>   2
Atom   5H    basis set group =>   3
Atom   6H    basis set group =>   3
Atom   7H    basis set group =>   3
Atom   8H    basis set group =>   3
Atom   9H    basis set group =>   3
Atom  10H    basis set group =>   3
Atom  11H    basis set group =>   3
Atom  12H    basis set group =>   3
Atom  13H    basis set group =>   3
Atom  14H    basis set group =>   3
------------------------------------------------------------------------------
                             ORCA STARTUP CALCULATIONS
                           -- RI-GTO INTEGRALS CHOSEN --
------------------------------------------------------------------------------
------------------------------------------------------------------------------
                   ___                                                        
                  /   \      - P O W E R E D   B Y -                         
                 /     \                                                     
                 |  |  |   _    _      __       _____    __    __             
                 |  |  |  | |  | |    /  \     |  _  \  |  |  /  |          
                  \  \/   | |  | |   /    \    | | | |  |  | /  /          
                 / \  \   | |__| |  /  /\  \   | |_| |  |  |/  /          
                |  |  |   |  __  | /  /__\  \  |    /   |      \           
                |  |  |   | |  | | |   __   |  |    \   |  |\   \          
                \     /   | |  | | |  |  |  |  | |\  \  |  | \   \       
                 \___/    |_|  |_| |__|  |__|  |_| \__\ |__|  \__/        
                                                                              
                      - O R C A' S   B I G   F R I E N D -                    
                                      &                                       
                       - I N T E G R A L  F E E D E R -                       
                                                                              
 v1 FN, 2020, v2 2021, v3 2022-2024                                           
------------------------------------------------------------------------------


----------------------
SHARK INTEGRAL PACKAGE
----------------------

Number of atoms                             ...     15
Number of basis functions                   ...    215
Number of shells                            ...     95
Maximum angular momentum                    ...      3
Integral batch strategy                     ... SHARK/LIBINT Hybrid
RI-J (if used) integral strategy            ... SPLIT-RIJ (Revised 2003 algorithm where possible)
Printlevel                                  ...      1
Contraction scheme used                     ... SEGMENTED contraction
Prescreening option                         ... SCHWARTZ
   Thresh                                   ... 1.000e-10
   Tcut                                     ... 1.000e-11
   Tpresel                                  ... 1.000e-11 
Coulomb Range Separation                    ... NOT USED
Exchange Range Separation                   ... NOT USED
Multipole approximations                    ... NOT USED
Finite Nucleus Model                        ... NOT USED
CABS basis                                  ... NOT available
Auxiliary Coulomb fitting basis             ... AVAILABLE
   # of basis functions in Aux-J            ...    260
   # of shells in Aux-J                     ...    110
   Maximum angular momentum in Aux-J        ...      2
Auxiliary J/K fitting basis                 ... NOT available
Auxiliary Correlation fitting basis         ... NOT available
Auxiliary 'external' fitting basis          ... NOT available

Checking pre-screening integrals            ... done (  0.0 sec) Dimension = 95
Check shell pair data                       ... done (  0.0 sec)
Shell pair information
Shell pair cut-off parameter TPreSel        ...   1.0e-11
Total number of shell pairs                 ...      4560
Shell pairs after pre-screening             ...      4376
Total number of primitive shell pairs       ...     13020
Primitive shell pairs kept                  ...      9930
          la=0 lb=0:   1445 shell pairs
          la=1 lb=0:   1328 shell pairs
          la=1 lb=1:    319 shell pairs
          la=2 lb=0:    532 shell pairs
          la=2 lb=1:    244 shell pairs
          la=2 lb=2:     54 shell pairs
          la=3 lb=0:    265 shell pairs
          la=3 lb=1:    124 shell pairs
          la=3 lb=2:     50 shell pairs
          la=3 lb=3:     15 shell pairs

Calculating one electron integrals          ... done (  0.0 sec)
Calculating RI/J V-Matrix + Cholesky decomp.... done (  0.0 sec)
Calculating Nuclear repulsion               ... done (  0.0 sec) ENN=    192.866447710868 Eh

Diagonalization of the overlap matrix:
Smallest eigenvalue                        ... 2.556e-04
Time for diagonalization                   ...    0.005 sec
Threshold for overlap eigenvalues          ... 1.000e-07
Number of eigenvalues below threshold      ... 0
Time for construction of square roots      ...    0.018 sec
Total time needed                          ...    0.031 sec

-------------------
DFT GRID GENERATION
-------------------

General Integration Accuracy     IntAcc      ... 4.388
Radial Grid Type                 RadialGrid  ... OptM3 with GC (2021)
Angular Grid (max. ang.)         AngularGrid ... 4 (Lebedev-302)
Angular grid pruning method      GridPruning ... 4 (adaptive)
Weight generation scheme         WeightScheme... mBecke (2022)
Basis function cutoff            BFCut       ... 1.0000e-10
Integration weight cutoff        WCut        ... 1.0000e-14
Partially contracted basis set               ... off
Rotationally invariant grid construction     ... off
Angular grids for H and He will be reduced by one unit

Total number of grid points                  ...    62299
Total number of batches                      ...      982
Average number of points per batch           ...       63
Average number of grid points per atom       ...     4153
Initializing property integral containers    ... done (  0.0 sec)

SHARK setup successfully completed in   0.9 seconds

Maximum memory used throughout the entire STARTUP-calculation: 30.8 MB
-------------------------------------------------------------------------------
                                 ORCA GUESS
                   Start orbitals & Density for SCF / CASSCF
-------------------------------------------------------------------------------

------------
SCF SETTINGS
------------
Hamiltonian:
 Density Functional     Method          .... DFT(GTOs)
  Functional kind                       .... Exchange
  Functional name                       .... Re-regularized SCAN exchange by Furness et al
  Functional family                     .... MGGA
  Functional refs                              
    [ 0] J. W. Furness, A. D. Kaplan, J. Ning, J. P. Perdew, and J. Sun.,  J. Phys. Chem. Lett. 11, 8208-8215 (2020), doi: 10.1021/acs.jpclett.0c02405
    [ 1] J. W. Furness, A. D. Kaplan, J. Ning, J. P. Perdew, and J. Sun.,  J. Phys. Chem. Lett. 11, 9248-9248 (2020), doi: 10.1021/acs.jpclett.0c03077
  Functional external parameters        .... 6
    Parameter  0 _c1        =  6.670000e-01 : c1 parameter        
    Parameter  1 _c2        =  8.000000e-01 : c2 parameter        
    Parameter  2 _d         =  1.240000e+00 : d parameter         
    Parameter  3 _k1        =  6.500000e-02 : k1 parameter        
    Parameter  4 _eta       =  1.000000e-03 : eta parameter       
    Parameter  5 _dp2       =  3.610000e-01 : dp2 parameter       
  Functional kind                       .... Correlation
  Functional name                       .... Re-regularized SCAN correlation by Furness et al
  Functional family                     .... MGGA
  Functional refs                              
    [ 0] J. W. Furness, A. D. Kaplan, J. Ning, J. P. Perdew, and J. Sun.,  J. Phys. Chem. Lett. 11, 8208-8215 (2020), doi: 10.1021/acs.jpclett.0c02405
    [ 1] J. W. Furness, A. D. Kaplan, J. Ning, J. P. Perdew, and J. Sun.,  J. Phys. Chem. Lett. 11, 9248-9248 (2020), doi: 10.1021/acs.jpclett.0c03077
  Functional external parameters        .... 1
    Parameter  0 _eta       =  1.000000e-03 : Regularization parameter
 Gradients option       PostSCFGGA      .... off
 RI-approximation to the Coulomb term is turned on
   Number of AuxJ basis functions       .... 260


General Settings:
 Integral files         IntName         .... vacuum_censo
 Hartree-Fock type      HFTyp           .... RHF
 Total Charge           Charge          ....    0
 Multiplicity           Mult            ....    1
 Number of Electrons    NEL             ....   42
 Basis Dimension        Dim             ....  215
 Nuclear Repulsion      ENuc            ....    192.8664477109 Eh

Convergence Acceleration:
 AO-DIIS                CNVDIIS         .... on
   Start iteration      DIISMaxIt       ....    12
   Startup error        DIISStart       ....  0.200000
   # of expansion vecs  DIISMaxEq       ....     5
   Bias factor          DIISBfac        ....   1.050
   Max. coefficient     DIISMaxC        ....  10.000
 MO-DIIS                CNVKDIIS        .... off
 Trust-Rad. Augm. Hess. CNVTRAH         .... auto
   Auto Start mean grad. ratio tolernc. ....  1.125000
   Auto Start start iteration           ....    50
   Auto Start num. interpolation iter.  ....    10
   Max. Number of Micro iterations      ....    24
   Max. Number of Macro iterations      .... Maxiter - #DIIS iter
   Number of Davidson start vectors     ....     2
   Converg. threshold    (grad. norm)   ....   5.000e-05
   Grad. Scal. Fac. for Micro threshold ....   0.100
   Minimum threshold for Micro iter.    ....   1.000e-02
   NR start threshold (gradient norm)   ....   1.000e-04
   Initial trust radius                 ....   0.400
   Minimum AH scaling param. (alpha)    ....   1.000
   Maximum AH scaling param. (alpha)    .... 1000.000
   Quad. conv. algorithm                .... NR
   White noise on init. David. guess    .... on
   Maximum white noise                  ....   0.010
   Pseudo random numbers                .... off
   Inactive MOs                         .... canonical
   Orbital update algorithm             .... Taylor
   Preconditioner                       .... Diag
   Full preconditioner red. dimension   ....   250
   COSX micro iterations for RIJONX calc.... off
 SOSCF                  CNVSOSCF        .... on
   Start iteration      SOSCFMaxIt      ....   150
   Startup grad/error   SOSCFStart      ....  0.003300
   Hessian update       SOSCFHessUp     .... L-BFGS
 Level Shifting         CNVShift        .... on
   Level shift para.    LevelShift      ....    0.2500
   Turn off err/grad.   ShiftErr        ....    0.0010
 Zerner damping         CNVZerner       .... off
 Static damping         CNVDamp         .... on
   Fraction old density DampFac         ....    0.7000
   Max. Damping (<1)    DampMax         ....    0.9800
   Min. Damping (>=0)   DampMin         ....    0.0000
   Turn off err/grad.   DampErr         ....    0.1000

SCF Procedure:
 Maximum # iterations   MaxIter         ....   125
 SCF integral mode      SCFMode         .... Direct
   Integral package                     .... SHARK and LIBINT hybrid scheme
 Reset frequency        DirectResetFreq ....    20
 Integral Threshold     Thresh          ....  1.000e-10 Eh
 Primitive CutOff       TCut            ....  1.000e-11 Eh

Convergence Tolerance:
 Convergence Check Mode ConvCheckMode   .... Total+1el-Energy
 Convergence forced     ConvForced      .... 0
 Energy Change          TolE            ....  1.000e-06 Eh
 1-El. energy change                    ....  1.000e-03 Eh
 Orbital Gradient       TolG            ....  5.000e-05
 Orbital Rotation angle TolX            ....  5.000e-05
 DIIS Error             TolErr          ....  1.000e-06

------------------------------
INITIAL GUESS: MODEL POTENTIAL
------------------------------
Loading Hartree-Fock densities                     ... done
Calculating cut-offs                               ... done
Initializing the effective Hamiltonian             ... done
Setting up the integral package (SHARK)            ... done
Starting the Coulomb interaction                   ... done (   0.2 sec)
Making the grid                                    ... done (   0.1 sec)
Mapping shells                                     ... done
Starting the XC term evaluation                    ... done (   0.2 sec)
  promolecular density results
     # of electrons  =     41.995353154
     EX              =    -31.552563157
     EC              =     -1.364914046
     EX+EC           =    -32.917477203
Transforming the Hamiltonian                       ... done (   0.0 sec)
Diagonalizing the Hamiltonian                      ... done (   0.0 sec)
Back transforming the eigenvectors                 ... done (   0.0 sec)
Now organizing SCF variables                       ... done
                      ------------------
                      INITIAL GUESS DONE (   0.6 sec)
                      ------------------
             **** ENERGY FILE WAS UPDATED (vacuum_censo.en.tmp) ****
Finished Guess after   0.8 sec
Maximum memory used throughout the entire GUESS-calculation: 18.1 MB

-------------------------------------------------------------------------------------------
                                      ORCA LEAN-SCF
                              memory conserving SCF solver
-------------------------------------------------------------------------------------------

----------------------------------------D-I-I-S--------------------------------------------
Iteration    Energy (Eh)           Delta-E    RMSDP     MaxDP     DIISErr   Damp  Time(sec)
-------------------------------------------------------------------------------------------
               ***  Starting incremental Fock matrix formation  ***
    1    -233.4239817178837768     0.00e+00  1.87e-03  4.65e-02  2.42e-01  0.700   2.4
    2    -233.5192797203050361    -9.53e-02  1.38e-03  3.77e-02  9.54e-02  0.700   2.2
                               ***Turning on AO-DIIS***
    3    -233.5540049241225518    -3.47e-02  5.24e-04  9.54e-03  3.22e-02  0.700   2.2
    4    -233.5744898331697357    -2.05e-02  8.20e-04  2.42e-02  1.39e-02  0.000   2.1
    5    -233.6205051503390848    -4.60e-02  2.64e-04  7.85e-03  1.02e-02  0.000   2.1
                              *** Initializing SOSCF ***
---------------------------------------S-O-S-C-F--------------------------------------
Iteration    Energy (Eh)           Delta-E    RMSDP     MaxDP     MaxGrad    Time(sec)
--------------------------------------------------------------------------------------
    6    -233.6209362477782463    -4.31e-04  9.89e-05  2.32e-03  2.45e-03     2.0
               *** Restarting incremental Fock matrix formation ***
    7    -233.6209691499352346    -3.29e-05  8.70e-05  2.08e-03  2.59e-04     2.3
    8    -233.6209641099465273     5.04e-06  3.06e-05  8.68e-04  5.22e-04     1.9
    9    -233.6209736378773698    -9.53e-06  5.64e-06  1.05e-04  4.02e-05     1.9
   10    -233.6209736063886737     3.15e-08  2.72e-06  6.81e-05  5.63e-05     1.8
                 **** Energy Check signals convergence ****

               *****************************************************
               *                     SUCCESS                       *
               *           SCF CONVERGED AFTER  10 CYCLES          *
               *****************************************************

             **** ENERGY FILE WAS UPDATED (vacuum_censo.en.tmp) ****

----------------
TOTAL SCF ENERGY
----------------

Total Energy       :       -233.62097360638867 Eh           -6357.14988 eV

Components:
Nuclear Repulsion  :        192.86644771086847 Eh            5248.16285 eV
Electronic Energy  :       -426.48742131725714 Eh          -11605.31274 eV
One Electron Energy:       -697.57498318365901 Eh          -18981.98032 eV
Two Electron Energy:        271.08756186640187 Eh            7376.66758 eV

Virial components:
Potential Energy   :       -466.08436768264147 Eh          -12682.80043 eV
Kinetic Energy     :        232.46339407625280 Eh            6325.65054 eV
Virial Ratio       :          2.00497962070431

DFT components:
N(Alpha)           :       21.000033184326 electrons
N(Beta)            :       21.000033184326 electrons
N(Total)           :       42.000066368652 electrons
E(X)               :      -32.633096361016 Eh       
E(C)               :       -1.310176590436 Eh       
E(XC)              :      -33.943272951452 Eh       

---------------
SCF CONVERGENCE
---------------

  Last Energy change         ...   -3.1489e-08  Tolerance :   1.0000e-06
  Last MAX-Density change    ...    6.8065e-05  Tolerance :   1.0000e-05
  Last RMS-Density change    ...    2.7208e-06  Tolerance :   1.0000e-06
  Last DIIS Error            ...    2.4521e-03  Tolerance :   1.0000e-06
  Last Orbital Gradient      ...    5.6253e-05  Tolerance :   5.0000e-05
  Last Orbital Rotation      ...    4.7171e-05  Tolerance :   5.0000e-05


----------------
ORBITAL ENERGIES
----------------

  NO   OCC          E(Eh)            E(eV) 
   0   2.0000     -18.948265      -515.6085 
   1   2.0000     -10.073615      -274.1170 
   2   2.0000     -10.037267      -273.1279 
   3   2.0000     -10.026597      -272.8376 
   4   2.0000     -10.024979      -272.7936 
   5   2.0000      -0.980575       -26.6828 
   6   2.0000      -0.769296       -20.9336 
   7   2.0000      -0.658027       -17.9058 
   8   2.0000      -0.640139       -17.4191 
   9   2.0000      -0.537586       -14.6285 
  10   2.0000      -0.481678       -13.1071 
  11   2.0000      -0.424245       -11.5443 
  12   2.0000      -0.414560       -11.2808 
  13   2.0000      -0.400393       -10.8952 
  14   2.0000      -0.362290        -9.8584 
  15   2.0000      -0.351596        -9.5674 
  16   2.0000      -0.340618        -9.2687 
  17   2.0000      -0.312447        -8.5021 
  18   2.0000      -0.308085        -8.3834 
  19   2.0000      -0.289502        -7.8777 
  20   2.0000      -0.236952        -6.4478 
  21   0.0000       0.030598         0.8326 
  22   0.0000       0.053686         1.4609 
  23   0.0000       0.078555         2.1376 
  24   0.0000       0.090260         2.4561 
  25   0.0000       0.103580         2.8186 
  26   0.0000       0.109891         2.9903 
  27   0.0000       0.112299         3.0558 
  28   0.0000       0.131994         3.5917 
  29   0.0000       0.150665         4.0998 
  30   0.0000       0.154047         4.1918 
  31   0.0000       0.166246         4.5238 
*Only the first 10 virtual orbitals were printed.

                    ********************************
                    * MULLIKEN POPULATION ANALYSIS *
                    ********************************

-----------------------
MULLIKEN ATOMIC CHARGES
-----------------------
   0 C :   -0.346584
   1 C :    0.031834
   2 C :   -0.374380
   3 C :   -0.001552
   4 O :   -0.464286
   5 H :    0.098445
   6 H :    0.109011
   7 H :    0.108880
   8 H :    0.058615
   9 H :    0.110314
  10 H :    0.102505
  11 H :    0.102476
  12 H :    0.075582
  13 H :    0.090018
  14 H :    0.299125
Sum of atomic charges:    0.0000000

--------------------------------
MULLIKEN REDUCED ORBITAL CHARGES
--------------------------------
  0 C s       :     3.274905  s :     3.274905
      pz      :     1.030285  p :     3.021442
      px      :     0.975207
      py      :     1.015950
      dz2     :     0.011179  d :     0.046450
      dxz     :     0.009524
      dyz     :     0.003566
      dx2y2   :     0.016134
      dxy     :     0.006046
      f0      :     0.001124  f :     0.003787
      f+1     :     0.000356
      f-1     :     0.000103
      f+2     :     0.000057
      f-2     :     0.000297
      f+3     :     0.000783
      f-3     :     0.001066

  1 C s       :     3.113560  s :     3.113560
      pz      :     0.944716  p :     2.715654
      px      :     0.893857
      py      :     0.877082
      dz2     :     0.031412  d :     0.130127
      dxz     :     0.017317
      dyz     :     0.016918
      dx2y2   :     0.031646
      dxy     :     0.032835
      f0      :     0.001399  f :     0.008825
      f+1     :     0.000961
      f-1     :     0.000798
      f+2     :     0.000818
      f-2     :     0.000829
      f+3     :     0.002260
      f-3     :     0.001760

  2 C s       :     3.283643  s :     3.283643
      pz      :     1.025173  p :     3.040334
      px      :     1.071700
      py      :     0.943462
      dz2     :     0.013055  d :     0.046655
      dxz     :     0.001415
      dyz     :     0.009955
      dx2y2   :     0.005087
      dxy     :     0.017144
      f0      :     0.001136  f :     0.003748
      f+1     :     0.000039
      f-1     :     0.000473
      f+2     :     0.000248
      f-2     :     0.000077
      f+3     :     0.000724
      f-3     :     0.001051

  3 C s       :     3.217039  s :     3.217039
      pz      :     0.977952  p :     2.660835
      px      :     0.730539
      py      :     0.952344
      dz2     :     0.022411  d :     0.113765
      dxz     :     0.023389
      dyz     :     0.009251
      dx2y2   :     0.038677
      dxy     :     0.020036
      f0      :     0.001668  f :     0.009913
      f+1     :     0.001522
      f-1     :     0.000348
      f+2     :     0.000783
      f-2     :     0.001403
      f+3     :     0.002481
      f-3     :     0.001708

  4 O s       :     3.813031  s :     3.813031
      pz      :     1.743133  p :     4.619370
      px      :     1.508737
      py      :     1.367499
      dz2     :     0.003392  d :     0.030237
      dxz     :     0.005612
      dyz     :     0.006132
      dx2y2   :     0.010698
      dxy     :     0.004404
      f0      :     0.000258  f :     0.001648
      f+1     :     0.000181
      f-1     :     0.000117
      f+2     :     0.000378
      f-2     :     0.000126
      f+3     :     0.000191
      f-3     :     0.000398

  5 H s       :     0.878612  s :     0.878612
      pz      :     0.012217  p :     0.022943
      px      :     0.005515
      py      :     0.005211

  6 H s       :     0.867913  s :     0.867913
      pz      :     0.005822  p :     0.023076
      px      :     0.005270
      py      :     0.011984

  7 H s       :     0.867916  s :     0.867916
      pz      :     0.006449  p :     0.023204
      px      :     0.010649
      py      :     0.006106

  8 H s       :     0.917908  s :     0.917908
      pz      :     0.013300  p :     0.023477
      px      :     0.005105
      py      :     0.005072

  9 H s       :     0.866393  s :     0.866393
      pz      :     0.006308  p :     0.023293
      px      :     0.010094
      py      :     0.006891

 10 H s       :     0.874071  s :     0.874071
      pz      :     0.005816  p :     0.023424
      px      :     0.009604
      py      :     0.008004

 11 H s       :     0.874827  s :     0.874827
      pz      :     0.012260  p :     0.022697
      px      :     0.005175
      py      :     0.005263

 12 H s       :     0.903082  s :     0.903082
      pz      :     0.012765  p :     0.021336
      px      :     0.004055
      py      :     0.004516

 13 H s       :     0.887459  s :     0.887459
      pz      :     0.005583  p :     0.022523
      px      :     0.004068
      py      :     0.012872

 14 H s       :     0.651664  s :     0.651664
      pz      :     0.017112  p :     0.049211
      px      :     0.013274
      py      :     0.018825



                     *******************************
                     * LOEWDIN POPULATION ANALYSIS *
                     *******************************

----------------------
LOEWDIN ATOMIC CHARGES
----------------------
   0 C :   -0.284850
   1 C :   -0.327375
   2 C :   -0.294568
   3 C :   -0.324190
   4 O :   -0.044848
   5 H :    0.120113
   6 H :    0.120971
   7 H :    0.121108
   8 H :    0.148170
   9 H :    0.123121
  10 H :    0.115427
  11 H :    0.120231
  12 H :    0.114383
  13 H :    0.127622
  14 H :    0.164684

-------------------------------
LOEWDIN REDUCED ORBITAL CHARGES
-------------------------------
  0 C s       :     2.836081  s :     2.836081
      pz      :     1.068185  p :     3.160541
      px      :     1.037849
      py      :     1.054508
      dz2     :     0.065278  d :     0.263528
      dxz     :     0.047238
      dyz     :     0.021430
      dx2y2   :     0.084542
      dxy     :     0.045040
      f0      :     0.004267  f :     0.024699
      f+1     :     0.002056
      f-1     :     0.001324
      f+2     :     0.003523
      f-2     :     0.004534
      f+3     :     0.004447
      f-3     :     0.004549

  1 C s       :     2.750325  s :     2.750325
      pz      :     0.993085  p :     2.991494
      px      :     0.997975
      py      :     1.000434
      dz2     :     0.129338  d :     0.531750
      dxz     :     0.073045
      dyz     :     0.069668
      dx2y2   :     0.124264
      dxy     :     0.135435
      f0      :     0.006048  f :     0.053805
      f+1     :     0.005500
      f-1     :     0.005013
      f+2     :     0.008165
      f-2     :     0.008282
      f+3     :     0.012566
      f-3     :     0.008232

  2 C s       :     2.837755  s :     2.837755
      pz      :     1.065654  p :     3.167409
      px      :     1.068086
      py      :     1.033669
      dz2     :     0.070923  d :     0.264674
      dxz     :     0.015298
      dyz     :     0.047388
      dx2y2   :     0.040596
      dxy     :     0.090468
      f0      :     0.004072  f :     0.024730
      f+1     :     0.000491
      f-1     :     0.003238
      f+2     :     0.004384
      f-2     :     0.003843
      f+3     :     0.004011
      f-3     :     0.004690

  3 C s       :     2.813125  s :     2.813125
      pz      :     1.032916  p :     2.903693
      px      :     0.877848
      py      :     0.992928
      dz2     :     0.122341  d :     0.538909
      dxz     :     0.107822
      dyz     :     0.041188
      dx2y2   :     0.167014
      dxy     :     0.100545
      f0      :     0.008041  f :     0.068463
      f+1     :     0.008998
      f-1     :     0.002751
      f+2     :     0.008987
      f-2     :     0.012969
      f+3     :     0.014560
      f-3     :     0.012158

  4 O s       :     3.378410  s :     3.378410
      pz      :     1.696455  p :     4.593398
      px      :     1.520340
      py      :     1.376603
      dz2     :     0.006684  d :     0.068657
      dxz     :     0.011723
      dyz     :     0.012314
      dx2y2   :     0.025262
      dxy     :     0.012673
      f0      :     0.000439  f :     0.004383
      f+1     :     0.000501
      f-1     :     0.000165
      f+2     :     0.001142
      f-2     :     0.000401
      f+3     :     0.000763
      f-3     :     0.000972

  5 H s       :     0.817256  s :     0.817256
      pz      :     0.034939  p :     0.062631
      px      :     0.013939
      py      :     0.013754

  6 H s       :     0.816337  s :     0.816337
      pz      :     0.016006  p :     0.062692
      px      :     0.013662
      py      :     0.033023

  7 H s       :     0.816000  s :     0.816000
      pz      :     0.017920  p :     0.062892
      px      :     0.027962
      py      :     0.017010

  8 H s       :     0.793504  s :     0.793504
      pz      :     0.032242  p :     0.058325
      px      :     0.013177
      py      :     0.012907

  9 H s       :     0.814000  s :     0.814000
      pz      :     0.017340  p :     0.062879
      px      :     0.028684
      py      :     0.016855

 10 H s       :     0.821211  s :     0.821211
      pz      :     0.015885  p :     0.063362
      px      :     0.027334
      py      :     0.020143

 11 H s       :     0.817289  s :     0.817289
      pz      :     0.035004  p :     0.062480
      px      :     0.014183
      py      :     0.013293

 12 H s       :     0.826381  s :     0.826381
      pz      :     0.036165  p :     0.059237
      px      :     0.010419
      py      :     0.012653

 13 H s       :     0.813793  s :     0.813793
      pz      :     0.015678  p :     0.058584
      px      :     0.009834
      py      :     0.033072

 14 H s       :     0.675017  s :     0.675017
      pz      :     0.054080  p :     0.160299
      px      :     0.034494
      py      :     0.071725



                      *****************************
                      * MAYER POPULATION ANALYSIS *
                      *****************************

  NA   - Mulliken gross atomic population
  ZA   - Total nuclear charge
  QA   - Mulliken gross atomic charge
  VA   - Mayer's total valence
  BVA  - Mayer's bonded valence
  FA   - Mayer's free valence

  ATOM       NA         ZA         QA         VA         BVA        FA
  0 C      6.3466     6.0000    -0.3466     3.9115     3.9115    -0.0000
  1 C      5.9682     6.0000     0.0318     3.8057     3.8057     0.0000
  2 C      6.3744     6.0000    -0.3744     3.8957     3.8957     0.0000
  3 C      6.0016     6.0000    -0.0016     3.9082     3.9082     0.0000
  4 O      8.4643     8.0000    -0.4643     1.9396     1.9396     0.0000
  5 H      0.9016     1.0000     0.0984     0.9876     0.9876    -0.0000
  6 H      0.8910     1.0000     0.1090     0.9815     0.9815    -0.0000
  7 H      0.8911     1.0000     0.1089     0.9811     0.9811     0.0000
  8 H      0.9414     1.0000     0.0586     0.9799     0.9799     0.0000
  9 H      0.8897     1.0000     0.1103     0.9879     0.9879    -0.0000
 10 H      0.8975     1.0000     0.1025     0.9909     0.9909     0.0000
 11 H      0.8975     1.0000     0.1025     0.9826     0.9826     0.0000
 12 H      0.9244     1.0000     0.0756     0.9733     0.9733    -0.0000
 13 H      0.9100     1.0000     0.0900     0.9738     0.9738    -0.0000
 14 H      0.7009     1.0000     0.2991     0.9297     0.9297    -0.0000

  Mayer bond orders larger than 0.100000
B(  0-C ,  1-C ) :   0.9603 B(  0-C ,  5-H ) :   0.9678 B(  0-C ,  6-H ) :   0.9756 
B(  0-C ,  7-H ) :   0.9731 B(  1-C ,  2-C ) :   0.9500 B(  1-C ,  3-C ) :   0.9539 
B(  1-C ,  8-H ) :   0.9518 B(  2-C ,  9-H ) :   0.9754 B(  2-C , 10-H ) :   0.9758 
B(  2-C , 11-H ) :   0.9691 B(  3-C ,  4-O ) :   0.9820 B(  3-C , 12-H ) :   0.9666 
B(  3-C , 13-H ) :   0.9642 B(  4-O , 14-H ) :   0.9017 

-------
TIMINGS
-------

Total SCF time: 0 days 0 hours 0 min 21 sec 

Total time                  ....      21.174 sec
Sum of individual times     ....      20.652 sec  ( 97.5%)

SCF preparation             ....       0.158 sec  (  0.7%)
Fock matrix formation       ....      19.721 sec  ( 93.1%)
  Startup                   ....       0.054 sec  (  0.3% of F)
  Split-RI-J                ....       1.999 sec  ( 10.1% of F)
  XC integration            ....      17.137 sec  ( 86.9% of F)
    XC Preparation          ....       0.000 sec  (  0.0% of XC)
    Basis function eval.    ....       2.734 sec  ( 16.0% of XC)
    Density eval.           ....       5.051 sec  ( 29.5% of XC)
    XC-Functional eval.     ....       1.772 sec  ( 10.3% of XC)
    XC-Potential eval.      ....       6.706 sec  ( 39.1% of XC)
Diagonalization             ....       0.000 sec  (  0.0%)
Density matrix formation    ....       0.206 sec  (  1.0%)
Total Energy calculation    ....       0.030 sec  (  0.1%)
Population analysis         ....       0.030 sec  (  0.1%)
Orbital Transformation      ....       0.055 sec  (  0.3%)
Orbital Orthonormalization  ....       0.000 sec  (  0.0%)
DIIS solution               ....       0.283 sec  (  1.3%)
SOSCF solution              ....       0.169 sec  (  0.8%)
Finished LeanSCF after  21.3 sec

Maximum memory used throughout the entire LEANSCF-calculation: 21.6 MB

------------------------------------------------------------------------------
                         ORCA PROPERTY INTEGRAL CALCULATIONS
------------------------------------------------------------------------------

GBWName                                   ... vacuum_censo.gbw
Number of atoms                           ...     15
Number of basis functions                 ...    215
Max core memory                           ...   1024 MB

Dipole integrals                          ... YES
Quadrupole integrals                      ...  NO
Linear momentum integrals                 ...  NO
Angular momentum integrals                ...  NO
Higher moments length integrals           ...  NO
Higher moments velocity integrals         ...  NO
Kinetic energy integrals                  ...  NO
GIAO right hand sides                     ...  NO
GIAO dipole derivative integrals          ...  NO
SOC integrals                             ...  NO
EPR diamagnetic integrals (GIAO)          ...  NO
EPR gauge integrals                       ...  NO
Field gradient integrals                  ...  NO (   0 nuclei)
Spin-dipole/Fermi contact integrals       ...  NO (   0 nuclei)
Contact density integrals                 ...  NO (   0 nuclei)
Nucleus-orbit integrals                   ...  NO (   0 nuclei)
Geometric perturbations                   ... YES (  15 nuclei)

Choice of electric origin   ... Center of mass
Position of electric origin ... ( -0.0008,  0.0253, -0.0141) 
Choice of magnetic origin   ... GIAO
Position of magnetic origin ... (  0.0000,  0.0000,  0.0000) 

Calculating integrals                     ... Electric Dipole (Length)     done (  0.0 sec)
Calculating integrals                     ... Geometrical perturbation right hand sides

-----------------------
GEOMETRIC PERTURBATIONS (15 nuclei)
-----------------------

MaxCore                            ...   1024 MB
Number of batches                  ...      1

BATCH   0: Atoms    0 -   14 ( 45 perturbations)
   => H(core) and overlap derivative integrals     ... done (     0.3 sec)
   => Making and storing internal U-coefficients   ... done (     0.3 sec)
   => RI-J derivative integrals                    ... done (     2.3 sec)
   => RI-J response operators                      ... done (     0.6 sec)
   => XC derivative integrals                      ... done (   165.2 sec)
   => XC response operators                        ... done (    47.1 sec)
   => Completing and storing right hand sides      ... done (     0.3 sec)
   => Total time for right hand sides = 218.1 sec

  geometrical perturbations done (218.1 sec)

Property integrals calculated in 218.1 sec

Maximum memory used throughout the entire PROPINT-calculation: 98.9 MB


-------------------------------------------------------------------------------
                          DFT DISPERSION CORRECTION                            
                                                                               
                                DFTD4 V3.4.0                                   
-------------------------------------------------------------------------------
The R2SCAN3C composite method is recognized
Using three-body term ABC
Active option DFTDOPT                   ...         5   

-------------------------   ----------------
Dispersion correction           -0.003233118
-------------------------   ----------------

------------------   -----------------
gCP correction             0.008397665
------------------   -----------------

-------------------------   --------------------
FINAL SINGLE POINT ENERGY      -233.615809059928
-------------------------   --------------------

------------------------------------------------------------------------------
                            ORCA SCF RESPONSE CALCULATION
------------------------------------------------------------------------------

GBWName                                 ... vacuum_censo.gbw
Number of atoms                         ...     15
Number of basis functions               ...    215
Max core memory                         ...   1024 MB

Electric field perturbation             ...  NO
Quadrupolar field perturbation          ...  NO
Magnetic field perturbation (no GIAO)   ...  NO
Magnetic field perturbation (with GIAO) ...  NO
Linear momentum (velocity) perturbation ...  NO
Spin-orbit coupling perturbation        ...  NO
Choice of electric origin               ... Center of mass
Position of electric origin             ...    -0.000791     0.025303    -0.014148
Choice of magnetic origin               ... GIAO
Position of magnetic origin             ...     0.000000     0.000000     0.000000
Nuclear geometric perturbations         ... YES (  45 perturbations)
Nucleus-orbit perturbations             ...  NO (   0 perturbations)
Spin-dipole/Fermi contact perturbations ...  NO (   0 perturbations)

Total number of real perturbations      ...     45
Total number of imaginary perturbations ...      0
Total number of triplet perturbations   ...      0
Total number of SOC perturbations       ...      0


                                **********************
                                * REAL PERTURBATIONS *
                                **********************



-------------------
SHARK CP-SCF DRIVER
-------------------

Dimension of the orbital basis          ...    215
Dimension of the CPSCF-problem          ...   4074
Number of operators                     ...      1
Max. number of iterations               ...    128
Convergence Tolerance                   ... 1.0e-03
Number of perturbations                 ...     45
Perturbation type                       ... REAL

----------------------------
POPLE LINEAR EQUATION SOLVER
----------------------------

  ITERATION   0:   ||err||_max =   2.4936e-01 (  13.8 sec   0/ 45 done)
  ITERATION   1:   ||err||_max =   2.2695e-02 (  13.8 sec   0/ 45 done)
  ITERATION   2:   ||err||_max =   6.5312e-03 (  13.7 sec   7/ 45 done)
  ITERATION   3:   ||err||_max =   1.8877e-03 (  13.2 sec  25/ 45 done)
  ITERATION   4:   ||err||_max =   5.7779e-04 (   7.6 sec  45/ 45 done)

CP-SCF equations solved in  64.0 sec
Response densities calculated in   0.1 sec

Maximum memory used throughout the entire SCFRESP-calculation: 53.8 MB

------------------------------------------------------------------------------
                              ORCA PROPERTY CALCULATIONS
------------------------------------------------------------------------------

GBWName                                 ... vacuum_censo.gbw
Number of atoms                         ...     15
Number of basis functions               ...    215
Max core memory                         ...   1024 MB

Electric properties:
Dipole moment                           ... YES
Quadrupole moment                       ...  NO
Static polarizability (Dipole/Dipole)   ...  NO
Static polarizability (Dipole/Quad.)    ...  NO
Static polarizability (Quad./Quad.)     ...  NO
Static polarizability (Velocity)        ...  NO

Atomic electric properties:
Dipole moment                           ...  NO
Quadrupole moment                       ...  NO
Static polarizability                   ...  NO

Choice of electric origin               ... Center of mass
Position of electric origin             ...    -0.000791     0.025303    -0.014148

General magnetic properties:
Magnetizability                         ...  NO

EPR properties:
g-Tensor (aka g-matrix)                 ...  NO
Zero-Field splitting spin-orbit         ...  NO
Zero-field splitting spin-spin          ...  NO
Hyperfine couplings                     ...  NO (   0 nuclei)
Quadrupole couplings                    ...  NO (   0 nuclei)
Contact density                         ...  NO (   0 nuclei)

NMR properties:
Chemical shifts                         ...  NO (   0 nuclei)
Spin-rotation constants                 ...  NO (   0 nuclei)
Spin-spin couplings                     ...  NO (   0 nuclei,    0 pairs)

Choice of magnetic origin               ... GIAO
Position of magnetic origin             ...     0.000000     0.000000     0.000000

Properties with geometric perturbations:
SCF Hessian                             ... YES
IR spectrum                             ... YES
VCD spectrum                            ...  NO
X-ray spectroscopy properties:
SCF XES/XAS/RIXS spectra                ...  NO


-------------
DIPOLE MOMENT
-------------

Method             : SCF
Type of density    : Electron Density
Multiplicity       :   1
Irrep              :   0
Energy             :  -233.6209736063886737 Eh
Relativity type    : 
Basis              : AO
                                X                 Y                 Z
Electronic contribution:      4.391080365      -0.453689156      -0.782014050
Nuclear contribution   :     -4.897687518       0.722900857       1.070249805
                        -----------------------------------------
Total Dipole Moment    :     -0.506607153       0.269211701       0.288235755
                        -----------------------------------------
Magnitude (a.u.)       :      0.642032396
Magnitude (Debye)      :      1.631916660



--------------------
Rotational spectrum 
--------------------
 
Rotational constants in cm-1:             0.252010             0.116842             0.087980 
Rotational constants in MHz :          7555.068329          3502.836607          2637.571349 

Dipole components along the rotational axes: 
x,y,z [a.u.] :     0.495661     0.278604     0.298171 
x,y,z [Debye]:     1.259870     0.708155     0.757890 

 

Dipole moment calculation done in   0.0 sec 

-----------
SCF HESSIAN
-----------

Occupied/Occupied contributions to the Hessian:
   => Occupied/Occupied contributions              ... done (  0.0 sec)
Perturbed density contributions to the Hessian:
   => Perturbed density contributions              ... done (  0.0 sec)
Explicit contributions to the Hessian:
   => Nuclear repulsion Hessian                    ... done (  0.0 sec)
   => HCore and overlap Hessian                    ... done (  7.4 sec)
   => RI-J Hessian                                 ... done (  5.9 sec)
   => XC-Hessian                                   ... done ( 62.1 sec)
   => Van der Waals-Hessian                        ... done (  3.0 sec)
   => GCP-Hessian                                  ... done (  0.1 sec)
   => Explicit contributions done
Dipole derivatives                                 ... done (  0.1 sec)
Mass weighting the Hessian           ... done
Calculating normal modes             ... done
Scaling frequencies                  ... done

-----------------------
VIBRATIONAL FREQUENCIES
-----------------------

Scaling factor for frequencies =  1.000000000  (already applied!)

     0:       0.00 cm**-1
     1:       0.00 cm**-1
     2:       0.00 cm**-1
     3:       0.00 cm**-1
     4:       0.00 cm**-1
     5:       0.00 cm**-1
     6:     128.55 cm**-1
     7:     228.12 cm**-1
     8:     250.64 cm**-1
     9:     269.83 cm**-1
    10:     299.28 cm**-1
    11:     362.43 cm**-1
    12:     424.04 cm**-1
    13:     490.63 cm**-1
    14:     814.71 cm**-1
    15:     899.24 cm**-1
    16:     925.77 cm**-1
    17:     940.70 cm**-1
    18:     966.44 cm**-1
    19:    1041.84 cm**-1
    20:    1109.63 cm**-1
    21:    1151.49 cm**-1
    22:    1189.54 cm**-1
    23:    1242.28 cm**-1
    24:    1314.15 cm**-1
    25:    1356.49 cm**-1
    26:    1375.68 cm**-1
    27:    1387.64 cm**-1
    28:    1399.39 cm**-1
    29:    1418.44 cm**-1
    30:    1476.16 cm**-1
    31:    1486.39 cm**-1
    32:    1490.94 cm**-1
    33:    1496.79 cm**-1
    34:    1509.43 cm**-1
    35:    2941.73 cm**-1
    36:    2993.09 cm**-1
    37:    2999.87 cm**-1
    38:    3008.39 cm**-1
    39:    3053.87 cm**-1
    40:    3068.02 cm**-1
    41:    3075.22 cm**-1
    42:    3081.40 cm**-1
    43:    3086.86 cm**-1
    44:    3816.14 cm**-1


------------
NORMAL MODES
------------

These modes are the Cartesian displacements weighted by the diagonal matrix
M(i,i)=1/sqrt(m[i]) where m[i] is the mass of the displaced atom
Thus, these vectors are normalized but *not* orthogonal

                  0          1          2          3          4          5    
      0       0.000000   0.000000   0.000000   0.000000   0.000000   0.000000
      1       0.000000   0.000000   0.000000   0.000000   0.000000   0.000000
      2       0.000000   0.000000   0.000000   0.000000   0.000000   0.000000
      3       0.000000   0.000000   0.000000   0.000000   0.000000   0.000000
      4       0.000000   0.000000   0.000000   0.000000   0.000000   0.000000
      5       0.000000   0.000000   0.000000   0.000000   0.000000   0.000000
      6       0.000000   0.000000   0.000000   0.000000   0.000000   0.000000
      7       0.000000   0.000000   0.000000   0.000000   0.000000   0.000000
      8       0.000000   0.000000   0.000000   0.000000   0.000000   0.000000
      9       0.000000   0.000000   0.000000   0.000000   0.000000   0.000000
     10       0.000000   0.000000   0.000000   0.000000   0.000000   0.000000
     11       0.000000   0.000000   0.000000   0.000000   0.000000   0.000000
     12       0.000000   0.000000   0.000000   0.000000   0.000000   0.000000
     13       0.000000   0.000000   0.000000   0.000000   0.000000   0.000000
     14       0.000000   0.000000   0.000000   0.000000   0.000000   0.000000
     15       0.000000   0.000000   0.000000   0.000000   0.000000   0.000000
     16       0.000000   0.000000   0.000000   0.000000   0.000000   0.000000
     17       0.000000   0.000000   0.000000   0.000000   0.000000   0.000000
     18       0.000000   0.000000   0.000000   0.000000   0.000000   0.000000
     19       0.000000   0.000000   0.000000   0.000000   0.000000   0.000000
     20       0.000000   0.000000   0.000000   0.000000   0.000000   0.000000
     21       0.000000   0.000000   0.000000   0.000000   0.000000   0.000000
     22       0.000000   0.000000   0.000000   0.000000   0.000000   0.000000
     23       0.000000   0.000000   0.000000   0.000000   0.000000   0.000000
     24       0.000000   0.000000   0.000000   0.000000   0.000000   0.000000
     25       0.000000   0.000000   0.000000   0.000000   0.000000   0.000000
     26       0.000000   0.000000   0.000000   0.000000   0.000000   0.000000
     27       0.000000   0.000000   0.000000   0.000000   0.000000   0.000000
     28       0.000000   0.000000   0.000000   0.000000   0.000000   0.000000
     29       0.000000   0.000000   0.000000   0.000000   0.000000   0.000000
     30       0.000000   0.000000   0.000000   0.000000   0.000000   0.000000
     31       0.000000   0.000000   0.000000   0.000000   0.000000   0.000000
     32       0.000000   0.000000   0.000000   0.000000   0.000000   0.000000
     33       0.000000   0.000000   0.000000   0.000000   0.000000   0.000000
     34       0.000000   0.000000   0.000000   0.000000   0.000000   0.000000
     35       0.000000   0.000000   0.000000   0.000000   0.000000   0.000000
     36       0.000000   0.000000   0.000000   0.000000   0.000000   0.000000
     37       0.000000   0.000000   0.000000   0.000000   0.000000   0.000000
     38       0.000000   0.000000   0.000000   0.000000   0.000000   0.000000
     39       0.000000   0.000000   0.000000   0.000000   0.000000   0.000000
     40       0.000000   0.000000   0.000000   0.000000   0.000000   0.000000
     41       0.000000   0.000000   0.000000   0.000000   0.000000   0.000000
     42       0.000000   0.000000   0.000000   0.000000   0.000000   0.000000
     43       0.000000   0.000000   0.000000   0.000000   0.000000   0.000000
     44       0.000000   0.000000   0.000000   0.000000   0.000000   0.000000
                  6          7          8          9         10         11    
      0      -0.027201  -0.019499   0.005846   0.123017   0.015052  -0.098163
      1       0.025620   0.012694  -0.007630  -0.019843  -0.050924   0.144309
      2       0.094377  -0.043057  -0.022235   0.081680  -0.027065  -0.005366
      3      -0.025442   0.010415   0.002566  -0.016916  -0.019699   0.051772
      4      -0.040519  -0.008166  -0.000370   0.129152   0.021397  -0.062500
      5      -0.051857   0.015417  -0.015816  -0.066723   0.017381   0.016356
      6       0.100916   0.016801   0.019934  -0.191513   0.008842  -0.148147
      7      -0.025654  -0.013721   0.002352   0.100723   0.033343  -0.083881
      8      -0.059091   0.044627  -0.004069  -0.016666  -0.015633  -0.012842
      9      -0.002834   0.006197  -0.012815  -0.031459  -0.024993   0.107588
     10      -0.091974  -0.000731   0.009134   0.014173   0.037305  -0.031331
     11      -0.146466   0.023917   0.021189  -0.126718   0.037497   0.006674
     12      -0.039220  -0.007878   0.000793   0.122073  -0.018863   0.106155
     13       0.125035   0.000260  -0.018148  -0.171237  -0.007734   0.013903
     14       0.122565  -0.024655   0.039602   0.105162  -0.045544  -0.013658
     15       0.022617  -0.343217   0.167377   0.168280   0.019069  -0.102297
     16       0.159089   0.389966  -0.257505   0.149007  -0.152445   0.161362
     17       0.102065  -0.087305  -0.000589   0.089135  -0.026480  -0.005274
     18      -0.064212   0.168202  -0.101809   0.309866   0.069557  -0.410454
     19      -0.017639  -0.098681   0.066469  -0.063887  -0.018687   0.129782
     20       0.215728   0.358574  -0.283332   0.274870  -0.113143  -0.048793
     21      -0.038712   0.083557  -0.038399   0.027650  -0.009530   0.020708
     22      -0.012809  -0.231251   0.154560  -0.277242  -0.063502   0.434786
     23       0.082792  -0.464354   0.210961   0.038895   0.010409   0.021216
     24      -0.142236   0.039453   0.001045  -0.119070   0.006546   0.060249
     25      -0.056611   0.004421   0.002188   0.160107   0.010508  -0.074825
     26      -0.065792   0.018553  -0.015683  -0.079154   0.020645   0.017436
     27       0.007360  -0.126234  -0.186140  -0.318880  -0.129424  -0.308843
     28      -0.027382  -0.078774  -0.102684  -0.057820  -0.025948  -0.322787
     29       0.132629   0.272901   0.314848   0.081374   0.208643   0.072185
     30       0.043372  -0.107187  -0.162945  -0.327281  -0.075677  -0.324138
     31      -0.058856   0.050254   0.087733   0.256277   0.012687   0.111347
     32      -0.276609  -0.167024  -0.338303  -0.085411  -0.279349  -0.097382
     33       0.344620   0.285369   0.418443  -0.095205   0.305272  -0.072498
     34       0.013431  -0.021026   0.032506   0.066902   0.094186  -0.087339
     35      -0.038536   0.068460   0.029134  -0.007418   0.008598  -0.005289
     36      -0.077992   0.024541  -0.052660  -0.123928   0.004714   0.148918
     37      -0.392950   0.030697   0.065097  -0.144890   0.112925  -0.052131
     38      -0.164607   0.027891   0.021190  -0.139355   0.039310   0.007433
     39       0.115796   0.011045  -0.000204  -0.152996  -0.070914   0.131749
     40       0.009783  -0.007966  -0.006775   0.051450   0.007065  -0.022634
     41      -0.410922   0.048630   0.073708  -0.268575   0.107738  -0.013676
     42      -0.129554  -0.076279  -0.242366   0.086617   0.427604   0.207771
     43      -0.021481   0.076457   0.204902  -0.093589  -0.344007  -0.100207
     44       0.420598  -0.172388  -0.391093  -0.043200   0.601366   0.211467
                 12         13         14         15         16         17    
      0       0.017199  -0.234499  -0.117137  -0.013265  -0.044450  -0.014647
      1       0.038560  -0.131641  -0.077708   0.021400  -0.006095  -0.144358
      2       0.034693   0.000053  -0.015154  -0.040416   0.071284   0.003378
      3      -0.014805  -0.182481   0.021841  -0.051701   0.054564   0.120958
      4      -0.026251  -0.015028  -0.024525   0.037764   0.022873  -0.054604
      5      -0.200836   0.027573  -0.148004  -0.018034  -0.004095  -0.010350
      6       0.026493   0.043658  -0.007045  -0.041509   0.055989   0.009696
      7      -0.125335   0.021841   0.221576  -0.031571   0.026144   0.069065
      8       0.048825   0.004035   0.029176  -0.049165  -0.070528   0.027436
      9      -0.054489   0.059927   0.099267   0.012703  -0.004224  -0.034187
     10       0.109538   0.129582  -0.169639   0.017759   0.034855   0.123663
     11      -0.006602  -0.068873   0.066219   0.122036   0.004347  -0.024949
     12       0.013397   0.245883   0.012542   0.007670  -0.018403  -0.051887
     13      -0.003089  -0.007678   0.029283  -0.000235  -0.009239  -0.030986
     14       0.022978   0.058788  -0.021189  -0.017331   0.001573   0.011927
     15       0.218808  -0.374656   0.187985   0.247989  -0.326389  -0.042039
     16       0.227092  -0.207358   0.077235   0.098245  -0.293247   0.210540
     17       0.065667  -0.022797   0.032642   0.001434   0.023589   0.003387
     18      -0.087594  -0.159720  -0.145044   0.054353   0.153471  -0.612381
     19      -0.021109  -0.102607  -0.145000  -0.012967   0.091969  -0.250830
     20       0.192128  -0.070149   0.181189   0.088105  -0.186513   0.175130
     21      -0.050632  -0.186623  -0.292489  -0.179072   0.040207   0.189597
     22       0.012685  -0.135884  -0.218982  -0.125612  -0.056506   0.321227
     23       0.145128  -0.102367   0.200802   0.155094  -0.143877   0.017735
     24      -0.047431  -0.338184   0.149213   0.293149  -0.067487   0.271075
     25      -0.034188  -0.011018  -0.010983  -0.103091  -0.344377  -0.007698
     26      -0.200046   0.006470  -0.126977   0.027812  -0.012529   0.007042
     27       0.029525   0.175037  -0.065259   0.012677  -0.110139   0.008405
     28       0.049073   0.291085   0.223183   0.282855  -0.080705   0.039880
     29       0.224468   0.011138   0.144885   0.168499   0.165748   0.001156
     30       0.055562   0.225707  -0.077140   0.101632  -0.095454  -0.007232
     31      -0.076865  -0.249741   0.397841  -0.181834   0.405647   0.093389
     32       0.228912  -0.050654   0.187921   0.041574   0.291741   0.025609
     33       0.066872   0.128156  -0.044055   0.141226  -0.054206   0.011123
     34      -0.465412   0.094850   0.000207  -0.257928  -0.476168   0.104255
     35       0.072441   0.006315   0.039177  -0.017981  -0.046178   0.024752
     36      -0.223025   0.057324   0.064833   0.209559   0.013311  -0.055551
     37       0.432616   0.155457   0.084459  -0.459594  -0.094267  -0.153069
     38      -0.014204  -0.070465   0.067950   0.121626   0.002713  -0.035419
     39      -0.009008   0.085389   0.222980  -0.051229  -0.049067  -0.091448
     40       0.004249   0.124440  -0.239276   0.176648   0.071979   0.196415
     41       0.314578  -0.035365   0.301538  -0.365588  -0.118874  -0.264149
     42       0.139352   0.219228  -0.163455   0.165327   0.050508   0.177058
     43      -0.037556   0.105986  -0.034144   0.046609  -0.004443   0.011975
     44       0.082805  -0.161795   0.114638  -0.117342  -0.012775  -0.091109
                 18         19         20         21         22         23    
      0      -0.122172  -0.062680  -0.046969   0.010963   0.074193  -0.013415
      1      -0.012798   0.041812  -0.055950   0.041583  -0.078147  -0.010121
      2      -0.019939  -0.010307   0.029589  -0.107450  -0.053883  -0.035616
      3       0.061420  -0.014851   0.084667  -0.060239  -0.147881   0.042916
      4       0.074863   0.025337   0.145349  -0.130345   0.101274   0.022572
      5       0.007579  -0.029711   0.040927   0.141797   0.031052   0.135771
      6       0.097885  -0.017029  -0.049089   0.033676   0.096127  -0.026579
      7      -0.079004  -0.034695  -0.063802   0.051742  -0.021709   0.010809
      8       0.019974   0.006586  -0.066268  -0.021957  -0.058113  -0.089473
      9      -0.044136   0.417343   0.044332  -0.008576   0.047969  -0.033253
     10       0.031800   0.161362  -0.016289   0.073444  -0.026840  -0.058853
     11       0.003135  -0.074909  -0.051937  -0.116952   0.063075  -0.062012
     12       0.015791  -0.292276   0.000401   0.004208  -0.000725  -0.013406
     13       0.006095  -0.155436  -0.005131  -0.021879  -0.001250   0.016578
     14      -0.005312   0.100278   0.004069   0.028297  -0.004141   0.009469
     15       0.189596   0.022299  -0.119917   0.403250   0.060305   0.096876
     16      -0.010809  -0.078169  -0.016631   0.171983   0.302455   0.058240
     17       0.029088   0.002327   0.021672  -0.041159  -0.047599  -0.009791
     18       0.108892   0.162583  -0.145289   0.102477  -0.325718  -0.008065
     19      -0.037707   0.059344  -0.064707  -0.032682  -0.149335  -0.052441
     20       0.123455  -0.013687   0.036056   0.159820   0.090595   0.110193
     21      -0.366028  -0.200098  -0.010285  -0.162823   0.162652  -0.069207
     22      -0.308350  -0.190952   0.022524  -0.065673   0.263795   0.009052
     23       0.198485   0.045132   0.022808   0.157643   0.062604   0.100988
     24       0.234402  -0.231335   0.268609   0.169413  -0.468983   0.026871
     25       0.264901   0.222057   0.214693  -0.409399   0.256676   0.257007
     26       0.025498  -0.065869   0.058952   0.170387  -0.008611   0.130598
     27      -0.027388   0.034598   0.027012  -0.065191  -0.081674  -0.075853
     28      -0.559430   0.020370   0.216950  -0.018495  -0.276290   0.118710
     29      -0.223072  -0.047476   0.082039   0.113214   0.031271   0.144366
     30      -0.145128   0.005782   0.095782  -0.033990  -0.082044   0.098822
     31       0.202807  -0.091837  -0.217402   0.216593   0.277131  -0.043005
     32      -0.070876  -0.076507   0.004415   0.144090   0.089616   0.164835
     33      -0.162591   0.015645   0.142538  -0.054528  -0.155932   0.105660
     34       0.128468   0.093511  -0.232542  -0.125212  -0.252129  -0.296542
     35      -0.018092   0.001736  -0.036795  -0.010287  -0.063044  -0.050363
     36      -0.030286   0.244625   0.227878   0.328195   0.163589  -0.443912
     37      -0.032884   0.091452   0.252468   0.243096  -0.067590   0.096708
     38      -0.000886  -0.063806  -0.021779  -0.072723   0.078040  -0.089992
     39      -0.047947   0.507745  -0.383422  -0.212277  -0.027488   0.423987
     40       0.062500   0.117458  -0.112256  -0.003653  -0.016227  -0.087582
     41      -0.080468   0.021475   0.123381   0.046904   0.015989   0.158538
     42       0.079276   0.230980  -0.501787  -0.253252  -0.072157   0.419012
     43       0.016689  -0.085601  -0.092555  -0.063314  -0.015730   0.100851
     44      -0.026901  -0.103990   0.212913   0.128925   0.029774  -0.198023
                 24         25         26         27         28         29    
      0      -0.028286  -0.020675  -0.015823  -0.077898   0.062906   0.054914
      1       0.007721   0.025653   0.013487  -0.061122   0.038838   0.031215
      2      -0.070452   0.022368   0.007911   0.015719  -0.008032  -0.024726
      3       0.135004   0.001817   0.065096   0.021067  -0.026969   0.031457
      4       0.010242  -0.144924  -0.056295   0.046934  -0.012209   0.020892
      5       0.031406   0.008946  -0.020522  -0.003617  -0.004049   0.003541
      6      -0.032982   0.010500  -0.020094   0.000222   0.016337  -0.004352
      7      -0.007179  -0.012331   0.045333  -0.094943  -0.058750  -0.061617
      8       0.007536  -0.059384  -0.007316  -0.019502  -0.021013  -0.021721
      9       0.026146   0.021103  -0.079659  -0.024946   0.042549  -0.087738
     10       0.012382   0.057004  -0.018308  -0.024322  -0.056167   0.035028
     11       0.042934   0.044328  -0.015597  -0.012577  -0.015905   0.001201
     12       0.005872   0.021379  -0.015984  -0.008758  -0.017283   0.012307
     13       0.007472  -0.012358   0.017236   0.007338   0.035382  -0.029084
     14      -0.018935  -0.027609   0.037165   0.012348   0.027304  -0.010674
     15       0.144394   0.089035   0.075042   0.314105  -0.238529  -0.261272
     16       0.006327  -0.074634  -0.074412   0.258694  -0.145841  -0.164314
     17      -0.036043   0.032119   0.015269   0.061218  -0.046798  -0.063226
     18      -0.011324   0.147312   0.022315   0.346203  -0.278608  -0.246319
     19      -0.072286   0.054878   0.010534   0.045500  -0.028011  -0.059627
     20       0.165608  -0.029987   0.009148  -0.146048   0.067284   0.153111
     21      -0.167019   0.045901   0.008818   0.186623  -0.129684  -0.155414
     22      -0.081380  -0.001494  -0.045216   0.305758  -0.233755  -0.179228
     23       0.128068  -0.109418  -0.083061  -0.143015   0.102446   0.178640
     24      -0.767187  -0.043083  -0.301118  -0.069070   0.080429  -0.112494
     25      -0.251937   0.735485   0.356222  -0.147883   0.020191  -0.012221
     26      -0.069760  -0.010124  -0.072523  -0.010965   0.007322  -0.008256
     27       0.037824  -0.013444  -0.045249   0.105686   0.037141   0.065266
     28       0.082033   0.198316  -0.085392   0.304493   0.195655   0.209252
     29      -0.031628   0.190496  -0.071215   0.145232   0.172902   0.106896
     30       0.027152  -0.053382   0.098632  -0.173045  -0.121224  -0.097595
     31      -0.068669   0.205830  -0.109281   0.260206   0.212894   0.161387
     32       0.023709   0.176774   0.017282   0.172280   0.129597   0.140299
     33       0.102201  -0.016767   0.102360   0.018188  -0.066893   0.035840
     34       0.051266   0.076555  -0.163248   0.410691   0.298597   0.248635
     35       0.016667  -0.053320   0.009187  -0.035058  -0.039385  -0.030835
     36      -0.266576  -0.229022   0.723544   0.182191  -0.013675   0.291886
     37      -0.073722  -0.125590   0.005106   0.042105   0.158076  -0.058939
     38       0.011526   0.015747   0.054996   0.007343  -0.026140   0.033994
     39      -0.289798  -0.142063  -0.118013   0.057128  -0.509184   0.583117
     40       0.030495   0.092756  -0.066981  -0.037506  -0.101849   0.092366
     41      -0.084191  -0.103102   0.090561   0.042775  -0.044665   0.039225
     42      -0.093037  -0.275692   0.288852   0.142779   0.384658  -0.230219
     43      -0.016763  -0.077075   0.087173   0.031657   0.114468  -0.079761
     44       0.040454   0.135302  -0.136227  -0.051720  -0.172083   0.116521
[...]
     21      -0.072368   0.349963  -0.175430  -0.016323   0.157267  -0.205667
     22       0.037068  -0.171713   0.088963   0.011976  -0.079622   0.105190
     23      -0.039399   0.192008  -0.091149  -0.004203   0.073354  -0.090145
     24      -0.020154  -0.038504  -0.101875  -0.008659   0.009433   0.028321
     25       0.005840   0.003913   0.014190   0.001876  -0.003052  -0.004357
     26       0.172632   0.310856   0.870851   0.091491  -0.078778  -0.226280
     27       0.349093   0.013076  -0.146523  -0.056370  -0.284868  -0.025177
     28      -0.161953  -0.008176   0.064390   0.025349   0.126478   0.006120
     29       0.178265   0.008079  -0.068583  -0.024558  -0.118592  -0.000770
     30      -0.378217  -0.019742   0.167944   0.039705   0.443484   0.276885
     31      -0.263600  -0.017554   0.113680   0.026844   0.310149   0.198920
     32       0.145518   0.008250  -0.058764  -0.012589  -0.146309  -0.096912
     33       0.062526   0.008373  -0.005275   0.005545   0.048057   0.019197
     34      -0.027292  -0.005682   0.002295  -0.002816  -0.032298  -0.019126
     35      -0.722286  -0.098297   0.056205  -0.070876  -0.581535  -0.278467
     36      -0.002138  -0.001056  -0.007028  -0.013720   0.000151   0.001707
     37       0.001971   0.001973   0.000841  -0.015477   0.001486   0.004196
     38       0.002401  -0.011820   0.091682   0.205199  -0.009837  -0.062661
     39      -0.000035   0.002982   0.011164  -0.090989   0.001287   0.016704
     40      -0.017287  -0.051151  -0.137074   0.891357  -0.007341  -0.142380
     41      -0.008076  -0.018636  -0.049768   0.313554  -0.003284  -0.049006
     42      -0.001735   0.000045   0.000451   0.007992   0.000997  -0.000957
     43      -0.001202  -0.000142   0.002125  -0.013550  -0.001487   0.001748
     44       0.000508   0.000279   0.000761  -0.008232   0.000851   0.002487
                 42         43         44    
      0       0.010933  -0.055878  -0.000045
      1      -0.019149   0.065556   0.000136
      2      -0.005485  -0.025451   0.000003
      3      -0.000840  -0.000819  -0.000162
      4      -0.000624   0.001376  -0.000152
      5      -0.004765  -0.004257   0.000141
      6      -0.085248  -0.016671   0.000002
      7       0.002175   0.002220  -0.000155
      8      -0.023792  -0.008983  -0.000063
      9       0.000538   0.000216  -0.001111
     10      -0.004960   0.001219   0.002018
     11      -0.002540   0.000702   0.001522
     12      -0.000060   0.000056   0.003377
     13       0.000359  -0.000067   0.055904
     14       0.000036  -0.000019   0.027175
     15      -0.006231  -0.032476   0.000175
     16      -0.004358   0.015220  -0.000067
     17       0.060784   0.135297   0.000074
     18      -0.017125   0.042516   0.000197
     19       0.187278  -0.499927  -0.000463
     20       0.062359  -0.174264  -0.000212
     21      -0.101304   0.657855  -0.000868
     22       0.048272  -0.302576  -0.000169
     23      -0.056846   0.344418  -0.000259
     24      -0.004554  -0.004346   0.000194
     25       0.001483  -0.000681   0.000246
     26       0.049000   0.044319  -0.000210
     27       0.653889   0.153845   0.000378
     28      -0.325945  -0.078884   0.000205
     29       0.325305   0.075305   0.000085
     30       0.397798   0.057839  -0.001275
     31       0.297185   0.043533   0.000782
     32      -0.158624  -0.023527  -0.001468
     33      -0.030070  -0.009157  -0.000415
     34       0.006845   0.003387  -0.000114
     35       0.119923   0.055753   0.001657
     36       0.000224   0.001343  -0.002759
     37      -0.001911  -0.000130  -0.002790
     38       0.014031   0.001446  -0.001752
     39      -0.006624   0.003600   0.002651
     40       0.054798  -0.017617  -0.012668
     41       0.019493  -0.005745  -0.006948
     42       0.004079  -0.000270  -0.036213
     43      -0.000541   0.000220  -0.894280
     44      -0.000098  -0.000041  -0.441392


-----------
IR SPECTRUM
-----------

 Mode   freq       eps      Int      T**2         TX        TY        TZ
       cm**-1   L/(mol*cm) km/mol    a.u.
----------------------------------------------------------------------------
  6:    128.55   0.000690    3.48  0.001674  (-0.007075 -0.037121  0.015679)
  7:    228.12   0.000503    2.54  0.000688  (-0.014327  0.011958 -0.018423)
  8:    250.64   0.006521   32.95  0.008119  (-0.051196  0.032285 -0.066747)
  9:    269.83   0.000974    4.92  0.001127  (-0.014433  0.020186 -0.022610)
 10:    299.28   0.016070   81.21  0.016756  ( 0.084027 -0.034275  0.092308)
 11:    362.43   0.000996    5.03  0.000857  ( 0.013392 -0.012261  0.022974)
 12:    424.04   0.000232    1.17  0.000171  ( 0.009155  0.002409  0.009013)
 13:    490.63   0.001128    5.70  0.000717  (-0.019335  0.008722 -0.016353)
 14:    814.71   0.001161    5.86  0.000445  (-0.003508 -0.012256  0.016793)
 15:    899.24   0.001309    6.62  0.000454  ( 0.020885  0.000004  0.004261)
 16:    925.77   0.000039    0.20  0.000013  ( 0.001989 -0.002588 -0.001591)
 17:    940.70   0.001629    8.23  0.000540  ( 0.015937  0.015852 -0.005924)
 18:    966.44   0.000093    0.47  0.000030  (-0.005451  0.000395  0.000554)
 19:   1041.84   0.024101  121.80  0.007219  ( 0.080347  0.024989 -0.011785)
 20:   1109.63   0.001381    6.98  0.000388  (-0.018685 -0.003640  0.005105)
 21:   1151.49   0.000839    4.24  0.000227  (-0.014673 -0.002745 -0.002112)
 22:   1189.54   0.000219    1.11  0.000058  (-0.006768  0.003119  0.001428)
 23:   1242.28   0.002659   13.44  0.000668  ( 0.024448  0.005967 -0.005878)
 24:   1314.15   0.000057    0.29  0.000013  ( 0.002919 -0.000047  0.002225)
 25:   1356.49   0.000872    4.41  0.000201  (-0.011737 -0.006593  0.004394)
 26:   1375.68   0.000450    2.27  0.000102  ( 0.004245 -0.009120 -0.000950)
 27:   1387.64   0.001638    8.28  0.000368  ( 0.009811  0.016479  0.000800)
 28:   1399.39   0.001615    8.16  0.000360  ( 0.016606  0.009187  0.000158)
 29:   1418.44   0.005367   27.12  0.001181  (-0.031762 -0.002380  0.012895)
 30:   1476.16   0.000205    1.04  0.000043  ( 0.005034  0.003429 -0.002495)
 31:   1486.39   0.000770    3.89  0.000162  (-0.008485 -0.007158 -0.006202)
 32:   1490.94   0.000161    0.81  0.000034  ( 0.002622  0.004579  0.002407)
 33:   1496.79   0.001293    6.53  0.000269  (-0.013810  0.006128  0.006420)
 34:   1509.43   0.003225   16.30  0.000667  ( 0.007743 -0.008576  0.023091)
 35:   2941.73   0.010425   52.68  0.001106  (-0.005021 -0.014966  0.029268)
 36:   2993.09   0.005674   28.67  0.000592  ( 0.003280  0.023057  0.007011)
 37:   2999.87   0.003534   17.86  0.000368  (-0.015728 -0.010120  0.004220)
 38:   3008.39   0.005530   27.95  0.000574  ( 0.009817  0.002203 -0.021735)
 39:   3053.87   0.005561   28.10  0.000568  ( 0.002858 -0.022681 -0.006758)
 40:   3068.02   0.004129   20.86  0.000420  (-0.008348 -0.015957  0.009779)
 41:   3075.22   0.012146   61.38  0.001233  (-0.005022  0.008263  0.033750)
 42:   3081.40   0.004978   25.16  0.000504  (-0.019589 -0.006226 -0.009037)
 43:   3086.86   0.007717   39.00  0.000780  (-0.019086  0.018171 -0.009256)
 44:   3816.14   0.003516   17.77  0.000288  (-0.007534 -0.014353 -0.004975)

* The epsilon (eps) is given for a Dirac delta lineshape.
** The dipole moment derivative (T) already includes vibrational overlap.

The first frequency considered to be a vibration is 6
The total number of vibrations considered is 39


--------------------------
THERMOCHEMISTRY AT 298.15K
--------------------------

Temperature         ...   298.15 K
Pressure            ...     1.00 atm
Total Mass          ...    74.12 AMU
Quasi RRHO          ...     True
Cut-Off Frequency   ...     1.00 cm^-1

Throughout the following assumptions are being made:
  (1) The electronic state is orbitally nondegenerate
  (2) There are no thermally accessible electronically excited states
  (3) Hindered rotations indicated by low frequency modes are not
      treated as such but are treated as vibrations and this may
      cause some error
  (4) All equations used are the standard statistical mechanics
      equations for an ideal gas
  (5) All vibrations are strictly harmonic

freq.     128.55  E(vib)   ...       0.43 
freq.     228.12  E(vib)   ...       0.33 
freq.     250.64  E(vib)   ...       0.30 
freq.     269.83  E(vib)   ...       0.29 
freq.     299.28  E(vib)   ...       0.26 
freq.     362.43  E(vib)   ...       0.22 
freq.     424.04  E(vib)   ...       0.18 
freq.     490.63  E(vib)   ...       0.15 
freq.     814.71  E(vib)   ...       0.05 
freq.     899.24  E(vib)   ...       0.03 
freq.     925.77  E(vib)   ...       0.03 
freq.     940.70  E(vib)   ...       0.03 
freq.     966.44  E(vib)   ...       0.03 
freq.    1041.84  E(vib)   ...       0.02 
freq.    1109.63  E(vib)   ...       0.02 
freq.    1151.49  E(vib)   ...       0.01 
freq.    1189.54  E(vib)   ...       0.01 
freq.    1242.28  E(vib)   ...       0.01 
freq.    1314.15  E(vib)   ...       0.01 
freq.    1356.49  E(vib)   ...       0.01 
freq.    1375.68  E(vib)   ...       0.01 
freq.    1387.64  E(vib)   ...       0.00 
freq.    1399.39  E(vib)   ...       0.00 
freq.    1418.44  E(vib)   ...       0.00 
freq.    1476.16  E(vib)   ...       0.00 
freq.    1486.39  E(vib)   ...       0.00 
freq.    1490.94  E(vib)   ...       0.00 
freq.    1496.79  E(vib)   ...       0.00 
freq.    1509.43  E(vib)   ...       0.00 
freq.    2941.73  E(vib)   ...       0.00 
freq.    2993.09  E(vib)   ...       0.00 
freq.    2999.87  E(vib)   ...       0.00 
freq.    3008.39  E(vib)   ...       0.00 
freq.    3053.87  E(vib)   ...       0.00 
freq.    3068.02  E(vib)   ...       0.00 
freq.    3075.22  E(vib)   ...       0.00 
freq.    3081.40  E(vib)   ...       0.00 
freq.    3086.86  E(vib)   ...       0.00 
freq.    3816.14  E(vib)   ...       0.00 

------------
INNER ENERGY
------------

The inner energy is: U= E(el) + E(ZPE) + E(vib) + E(rot) + E(trans)
    E(el)   - is the total energy from the electronic structure calculation
              = E(kin-el) + E(nuc-el) + E(el-el) + E(nuc-nuc)
    E(ZPE)  - the the zero temperature vibrational energy from the frequency calculation
    E(vib)  - the the finite temperature correction to E(ZPE) due to population
              of excited vibrational states
    E(rot)  - is the rotational thermal energy
    E(trans)- is the translational thermal energy

Summary of contributions to the inner energy U:
Electronic energy                ...   -233.61580906 Eh
Zero point energy                ...      0.13571331 Eh      85.16 kcal/mol
Thermal vibrational correction   ...      0.00387922 Eh       2.43 kcal/mol
Thermal rotational correction    ...      0.00141627 Eh       0.89 kcal/mol
Thermal translational correction ...      0.00141627 Eh       0.89 kcal/mol
-----------------------------------------------------------------------
Total thermal energy                   -233.47338399 Eh


Summary of corrections to the electronic energy:
(perhaps to be used in another calculation)
Total thermal correction                  0.00671176 Eh       4.21 kcal/mol
Non-thermal (ZPE) correction              0.13571331 Eh      85.16 kcal/mol
-----------------------------------------------------------------------
Total correction                          0.14242507 Eh      89.37 kcal/mol


--------
ENTHALPY
--------

The enthalpy is H = U + kB*T
                kB is Boltzmann's constant
Total thermal energy              ...   -233.47338399 Eh 
Thermal Enthalpy correction       ...      0.00094421 Eh       0.59 kcal/mol
-----------------------------------------------------------------------
Total Enthalpy                    ...   -233.47243978 Eh


Note: Only C1 symmetry has been detected, increase convergence thresholds 
      if your molecule has a higher symmetry. Symmetry factor of 1.0 is   
      used for the rotational entropy correction. 
 

Note: Rotational entropy computed according to Herzberg 
Infrared and Raman Spectra, Chapter V,1, Van Nostrand Reinhold, 1945 
Point Group:  C1, Symmetry Number:   1  
Rotational constants in cm-1:     0.252010     0.116842     0.087980 

Vibrational entropy computed according to the QRRHO of S. Grimme
Chem.Eur.J. 2012 18 9955 using a reference frequency of 100.0 cm-1


-------
ENTROPY
-------

The entropy contributions are T*S = T*(S(el)+S(vib)+S(rot)+S(trans))
     S(el)   - electronic entropy
     S(vib)  - vibrational entropy
     S(rot)  - rotational entropy
     S(trans)- translational entropy
The entropies will be listed as multiplied by the temperature to get
units of energy

Electronic entropy                ...      0.00000000 Eh      0.00 kcal/mol
Vibrational entropy               ...      0.00633964 Eh      3.98 kcal/mol
Rotational entropy                ...      0.01232252 Eh      7.73 kcal/mol
Translational entropy             ...      0.01844715 Eh     11.58 kcal/mol
-----------------------------------------------------------------------
Final entropy term                ...      0.03710931 Eh     23.29 kcal/mol

In case the symmetry of your molecule has not been determined correctly
or in case you have a reason to use a different symmetry number we print 
out the resulting rotational entropy values for sn=1,12:

 non-linear molecules -----------------------------------
|  sn= 1 | S(rot)=       0.01232252 Eh      7.73 kcal/mol|
|  sn= 2 | S(rot)=       0.01166806 Eh      7.32 kcal/mol|
|  sn= 3 | S(rot)=       0.01128523 Eh      7.08 kcal/mol|
|  sn= 4 | S(rot)=       0.01101360 Eh      6.91 kcal/mol|
|  sn= 5 | S(rot)=       0.01080292 Eh      6.78 kcal/mol|
|  sn= 6 | S(rot)=       0.01063077 Eh      6.67 kcal/mol|
|  sn= 7 | S(rot)=       0.01048523 Eh      6.58 kcal/mol|
|  sn= 8 | S(rot)=       0.01035915 Eh      6.50 kcal/mol|
|  sn= 9 | S(rot)=       0.01024794 Eh      6.43 kcal/mol|
|  sn=10 | S(rot)=       0.01014846 Eh      6.37 kcal/mol|
|  sn=11 | S(rot)=       0.01005847 Eh      6.31 kcal/mol|
|  sn=12 | S(rot)=       0.00997632 Eh      6.26 kcal/mol|
 linear molecules ---------------------------------------
|  Dinfh | S(rot)=       0.00762078 Eh      4.78 kcal/mol|
|  Cinfv | S(rot)=       0.00827523 Eh      5.19 kcal/mol|
 --------------------------------------------------------


-------------------
GIBBS FREE ENERGY
-------------------

The Gibbs free energy is G = H - T*S

Total enthalpy                    ...   -233.47243978 Eh 
Total entropy correction          ...     -0.03710931 Eh    -23.29 kcal/mol
-----------------------------------------------------------------------
Final Gibbs free energy         ...   -233.50954909 Eh

For completeness - the Gibbs free energy minus the electronic energy
G-E(el)                           ...      0.10625997 Eh     66.68 kcal/mol


Maximum memory used throughout the entire PROP-calculation: 42.9 MB

--------------------------------
SUGGESTED CITATIONS FOR THIS RUN
--------------------------------

Below you find a list of papers that are relevant to this ORCA run
We neither can nor want to force you to cite these papers, but we appreciate if you do
You receive ORCA, which is the product of decades of hard work by many enthusiastic individuals, for free
The only thing we kindly ask in return is that you cite our papers,
We deeply appreciate it, if you show your appreciation for ORCA by not just citing the generic ORCA reference.

Please note that relegating all ORCA citations to the supporting information does *not* help us.
SI sections are not indexed - citations you put there will not count into any citation statistics
But we need these citations in order to attract the funding resources that allow us to do what we are doing

Therefore, if you are a happy ORCA user, please consider citing a few of the papers listed below in the main body of your paper

In addition to the list printed below, the program has created the file vacuum_censo.bibtex that contains the list in bibtex format
You can import this file easily into all common literature databanks and citation aid programs


List of essential papers. We consider these as the minimum necessary citations

  1. Neese,F.
     Software update: the ORCA program system, version 5.0
     WIRES Comput. Molec. Sci., 2022 12(1)e1606
     doi.org/10.1002/wcms.1606
  2. Grimme,S.; Hansen,A.; Ehlert,S.; Mewes,J.
     r2SCAN-3c: A 'Swiss army knife' composite electronic-structure method
     J. Chem. Phys., 2021 154 064103
     doi.org/10.1063/5.0040021

List of papers to cite with high priority. The work reported in these papers was absolutely
necessary for this run to complete.
Our perspective: the developers of density functionals and basis sets usually get cited in chemistry papers
Good! But without the algorithms to do something with them, the functionals or basis sets would not do anything.
Hence, in our opinion, the algorithm design and method developments papers are equally worthy of getting cited

  1. Neese,F.
     An improvement of the resolution of the identity approximation for the formation of the Coulomb matrix
     J. Comp. Chem., 2003 24(14)1740-1747
     doi.org/10.1002/jcc.10318
  2. Bykov,D.; Petrenko,T.; Izsak,R.; Kossmann,S.; Becker,U.; Valeev,E.; Neese,F.
     Efficient implementation of the analytic second derivatives of Hartree-Fock and hybrid DFT energies: a detailed analysis of different approximations
     Molec. Phys., 2015 113 1961-1977
     doi.org/10.1080/00268976.2015.1025114
  3. Neese,F.
     The SHARK Integral Generation and Digestion System
     J. Comp. Chem., 2022  1-16
     doi.org/10.1002/jcc.26942
  4. Lehtola,S.; Steigemann,C.; Oliveira,M.; Marques,M.
     Recent developments in Libxc - A comprehensive library of functionals for density functional theory
     Software X, 2018 7 
     doi.org/10.1016/j.softx.2017.11.002
  5. Caldeweyher,E.; Bannwarth,C.; Grimme,S.
     Extension of the D3 dispersion coefficient model
     J. Chem. Phys., 2017 147 034112-XXXX
     doi.org/10.1063/1.4993215
  6. Caldeweyher,E.; Ehlert,S.; Hansen,A.; Neugebauer,H.; Spicher,S.; Bannwarth,C.; Grimme,S.
     A generally applicable atomic-charge dependent London dispersion correction
     J. Chem. Phys., 2019 150 154122-XXXX
     doi.org/10.1063/1.5090222
  7. Caldeweyher,E.; Mewes,J.; Ehlert,S.; Grimme,S.
     Extension and evaluation of the D4 London-dispersion model for periodic systems
     Phys. Chem. Chem. Phys., 2020 22(16)8499-8512
     doi.org/10.1039/D0CP00502A

List of suggested additional citations. These are papers that are important in the 'surrounding' of 
of this run, or papers that preceded the highly important papers. If you like your results we are grateful for a citation.

  1. Neese,F.
     The ORCA program system
     WIRES Comput. Molec. Sci., 2012 2(1)73-78
     doi.org/10.1002/wcms.81
  2. Neese,F.
     Software update: the ORCA program system, version 4.0
     WIRES Comput. Molec. Sci., 2018 8(1)1-6
     doi.org/10.1002/wcms.1327
  3. Neese,F.; Wennmohs,F.; Becker,U.; Riplinger,C.
     The ORCA quantum chemistry program package
     J. Chem. Phys., 2020 152 Art. No. L224108
     doi.org/10.1063/5.0004608

List of optional additional citations

  1. Neese,F.
     Approximate second-order SCF convergence for spin unrestricted wavefunctions
     Chem. Phys. Lett., 2000 325(1-3)93-98
     doi.org/10.1016/s0009-2614(00)00662-x

Timings for individual modules:

Sum of individual times          ...      385.003 sec (=   6.417 min)
Startup calculation              ...        0.919 sec (=   0.015 min)   0.2 %
SCF iterations                   ...       22.141 sec (=   0.369 min)   5.8 %
Property integrals               ...      218.198 sec (=   3.637 min)  56.7 %
SCF Response                     ...       65.052 sec (=   1.084 min)  16.9 %
Property calculations            ...       78.692 sec (=   1.312 min)  20.4 %
                             ****ORCA TERMINATED NORMALLY****
TOTAL RUN TIME: 0 days 0 hours 6 minutes 25 seconds 679 msec
