      -----------------------------------------------------------      
     |                   =====================                   |     
     |                           x T B                           |     
     |                   =====================                   |     
     |                         S. Grimme                         |     
     |          Mulliken Center for Theoretical Chemistry        |     
     |                    University of Bonn                     |     
      -----------------------------------------------------------      

   * xtb version 6.7.1 (edcfbbe) compiled by 'albert@albert-system' on 2024-07-22

   xtb is free software: you can redistribute it and/or modify it under
   the terms of the GNU Lesser General Public License as published by
   the Free Software Foundation, either version 3 of the License, or
   (at your option) any later version.
   
   xtb is distributed in the hope that it will be useful,
   but WITHOUT ANY WARRANTY; without even the implied warranty of
   MERCHANTABILITY or FITNESS FOR A PARTICULAR PURPOSE.  See the
   GNU Lesser General Public License for more details.
   
   Cite this work as:
   * C. Bannwarth, E. Caldeweyher, S. Ehlert, A. Hansen, P. Pracht,
     J. Seibert, S. Spicher, S. Grimme, WIREs Comput. Mol. Sci., 2020, 11,
     e01493. DOI: 10.1002/wcms.1493
   
   for GFN2-xTB:
   * C. Bannwarth, S. Ehlert and S. Grimme., J. Chem. Theory Comput., 2019,
     15, 1652-1671. DOI: 10.1021/acs.jctc.8b01176
   for GFN1-xTB:
   * S. Grimme, C. Bannwarth, P. Shushkov, J. Chem. Theory Comput., 2017,
     13, 1989-2009. DOI: 10.1021/acs.jctc.7b00118
   for GFN0-xTB:
   * P. Pracht, E. Caldeweyher, S. Ehlert, S. Grimme, ChemRxiv, 2019, preprint.
     DOI: 10.26434/chemrxiv.8326202.v1
   for GFN-FF:
   * S. Spicher and S. Grimme, Angew. Chem. Int. Ed., 2020, 59, 15665-15673.
     DOI: 10.1002/anie.202004239
   
   for ALPB and GBSA implicit solvation:
   * S. Ehlert, M. Stahn, S. Spicher, S. Grimme, J. Chem. Theory Comput.,
     2021, 17, 4250-4261. DOI: 10.1021/acs.jctc.1c00471
   
   for ddCOSMO and CPCM-X implicit solvation:
   * M. Stahn, S. Ehlert, S. Grimme, J. Phys. Chem. A,
     2023, XX, XXXX-XXXX. DOI: 10.1021/acs.jpca.3c04382
   
   for DFT-D4:
   * E. Caldeweyher, C. Bannwarth and S. Grimme, J. Chem. Phys., 2017,
     147, 034112. DOI: 10.1063/1.4993215
   * E. Caldeweyher, S. Ehlert, A. Hansen, H. Neugebauer, S. Spicher,
     C. Bannwarth and S. Grimme, J. Chem. Phys., 2019, 150, 154122.
     DOI: 10.1063/1.5090222
   * E. Caldeweyher, J.-M. Mewes, S. Ehlert and S. Grimme, Phys. Chem. Chem. Phys.
     2020, 22, 8499-8512. DOI: 10.1039/D0CP00502A
   
   for sTDA-xTB:
   * S. Grimme and C. Bannwarth, J. Chem. Phys., 2016, 145, 054103.
     DOI: 10.1063/1.4959605
   
   in the mass-spec context:
   * V. Asgeirsson, C. Bauer and S. Grimme, Chem. Sci., 2017, 8, 4879.
     DOI: 10.1039/c7sc00601b
   * J. Koopman and S. Grimme, ACS Omega 2019, 4, 12, 15120-15133.
     DOI: 10.1021/acsomega.9b02011
   
   for metadynamics refer to:
   * S. Grimme, J. Chem. Theory Comput., 2019, 155, 2847-2862
     DOI: 10.1021/acs.jctc.9b00143
   
   for SPH calculations refer to:
   * S. Spicher and S. Grimme, J. Chem. Theory Comput., 2021, 17, 1701-1714
     DOI: 10.1021/acs.jctc.0c01306
   
   for ONIOM refer to:
   * C. Plett, A. Katbashev, S. Ehlert, S. Grimme, M. Bursch,
     Phys. Chem. Chem. Phys., 2023, 25, 17860-17868. DOI: 10.1039/D3CP02178E
   
   for DIPRO refer to:
   * J. Kohn, N. Gildemeister, S. Grimme, D. Fazzi, A. Hansen,
     J. Chem. Phys., 2023, just accepted.
   
   for PTB refer to:
   * S. Grimme, M. Mueller, A. Hansen, J. Chem. Phys., 2023, 158, 124111.
     DOI: 10.1063/5.0137838
   
   with help from (in alphabetical order)
   P. Atkinson, C. Bannwarth, F. Bohle, G. Brandenburg, E. Caldeweyher
   M. Checinski, S. Dohm, S. Ehlert, S. Ehrlich, I. Gerasimov, C. Hölzer
   A. Katbashev, J. Kohn, J. Koopman, C. Lavigne, S. Lehtola, F. März, M. Müller,
   F. Musil, H. Neugebauer, J. Pisarek, C. Plett, P. Pracht, F. Pultar,
   J. Seibert, P. Shushkov, S. Spicher, M. Stahn, M. Steiner, T. Strunk,
   J. Stückrath, T. Rose, and J. Unsleber
   
 * started run on 2025/04/15 at 19:35:33.993     
   ID    Z sym.   atoms
    1    6 C      1, 2, 4-6, 8, 9, 11-13
    2    1 H      3, 7, 14-27
    3    8 O      10

           -------------------------------------------------
          |                Calculation Setup                |
           -------------------------------------------------

          program call               : /software/projects/pawsey0265/mwang1/xtb/bin/xtb xtb_rrho.coord --gfn2 --bhess vtight --chrg 0 --enso --norestart -I rrho-xcontrol-inp --parallel 1
          hostname                   : nid001397
          coordinate file            : xtb_rrho.coord
          omp threads                :                     1


           -------------------------------------------------
          |                 G F N 2 - x T B                 |
           -------------------------------------------------

        Reference                      10.1021/acs.jctc.8b01176
      * Hamiltonian:
        H0-scaling (s, p, d)           1.850000    2.230000    2.230000
        zeta-weighting                 0.500000
      * Dispersion:
        s8                             2.700000
        a1                             0.520000
        a2                             5.000000
        s9                             5.000000
      * Repulsion:
        kExp                           1.500000    1.000000
        rExp                           1.000000
      * Coulomb:
        alpha                          2.000000
        third order                    shell-resolved
        anisotropic                    true
        a3                             3.000000
        a5                             4.000000
        cn-shift                       1.200000
        cn-exp                         4.000000
        max-rad                        5.000000


          ...................................................
          :                      SETUP                      :
          :.................................................:
          :  # basis functions                  60          :
          :  # atomic orbitals                  60          :
          :  # shells                           38          :
          :  # electrons                        62          :
          :  max. iterations                   250          :
          :  Hamiltonian                  GFN2-xTB          :
          :  restarted?                      false          :
          :  GBSA solvation                  false          :
          :  PC potential                    false          :
          :  electronic temp.          300.0000000     K    :
          :  accuracy                    1.0000000          :
          :  -> integral cutoff          0.2500000E+02      :
          :  -> integral neglect         0.1000000E-07      :
          :  -> SCF convergence          0.1000000E-05 Eh   :
          :  -> wf. convergence          0.1000000E-03 e    :
          :  Broyden damping             0.4000000          :
          :  net charge                          0          :
          :  unpaired electrons                  0          :
          ...................................................

 iter      E             dE          RMSdq      gap      omega  full diag
   1    -34.0093189 -0.340093E+02  0.332E+00    4.39       0.0  T
   2    -34.0741371 -0.648183E-01  0.185E+00    3.48       1.0  T
   3    -34.0799937 -0.585655E-02  0.120E+00    3.91       1.0  T
   4    -34.0885421 -0.854846E-02  0.438E-01    3.70       1.0  T
   5    -34.0906716 -0.212947E-02  0.148E-01    3.65       1.0  T
   6    -34.0911519 -0.480316E-03  0.529E-02    3.69       1.0  T
   7    -34.0911663 -0.144212E-04  0.192E-02    3.69       1.0  T
   8    -34.0911669 -0.562108E-06  0.417E-03    3.69       4.6  T
   9    -34.0911670 -0.899604E-07  0.146E-03    3.69      13.2  T
  10    -34.0911670 -0.688759E-08  0.773E-04    3.69      24.9  T
  11    -34.0911670 -0.255293E-08  0.166E-04    3.69     116.1  T

   *** convergence criteria satisfied after 11 iterations ***

         #    Occupation            Energy/Eh            Energy/eV
      -------------------------------------------------------------
         1        2.0000           -0.7023055             -19.1107
       ...           ...                  ...                  ...
        25        2.0000           -0.4506667             -12.2633
        26        2.0000           -0.4417431             -12.0204
        27        2.0000           -0.4402559             -11.9800
        28        2.0000           -0.4283383             -11.6557
        29        2.0000           -0.4224420             -11.4952
        30        2.0000           -0.3922149             -10.6727
        31        2.0000           -0.3836057             -10.4384 (HOMO)
        32                         -0.2481393              -6.7522 (LUMO)
        33                         -0.2009653              -5.4685
        34                          0.0540092               1.4697
        35                          0.0633103               1.7228
        36                          0.0690889               1.8800
       ...                                ...                  ...
        60                          0.6106830              16.6175
      -------------------------------------------------------------
                  HL-Gap            0.1354664 Eh            3.6862 eV
             Fermi-level           -0.3158725 Eh           -8.5953 eV

 SCC (total)                   0 d,  0 h,  0 min,  0.063 sec
 SCC setup                      ...        0 min,  0.000 sec (  0.421%)
 Dispersion                     ...        0 min,  0.000 sec (  0.323%)
 classical contributions        ...        0 min,  0.000 sec (  0.081%)
 integral evaluation            ...        0 min,  0.003 sec (  4.562%)
 iterations                     ...        0 min,  0.047 sec ( 74.639%)
 molecular gradient             ...        0 min,  0.012 sec ( 19.687%)
 printout                       ...        0 min,  0.000 sec (  0.251%)

         :::::::::::::::::::::::::::::::::::::::::::::::::::::
         ::                     SUMMARY                     ::
         :::::::::::::::::::::::::::::::::::::::::::::::::::::
         :: total energy             -33.623862654824 Eh    ::
         :: gradient norm              0.028056761663 Eh/a0 ::
         :: HOMO-LUMO gap              3.686228292873 eV    ::
         ::.................................................::
         :: SCC energy               -34.090956561368 Eh    ::
         :: -> isotropic ES            0.030736220545 Eh    ::
         :: -> anisotropic ES          0.005527126454 Eh    ::
         :: -> anisotropic XC          0.017514698619 Eh    ::
         :: -> dispersion             -0.023259508575 Eh    ::
         :: repulsion energy           0.467093906543 Eh    ::
         :: add. restraining           0.000000000000 Eh    ::
         :: total charge               0.000000000000 e     ::
         :::::::::::::::::::::::::::::::::::::::::::::::::::::

metadynamics with 1 initial structures loaded
           -------------------------------------------------
          |           Optimal kpush determination           |
           -------------------------------------------------
      ----------------------------------------------------------- 
     |                   =====================                   |
     |                        A N C O P T                        |
     |                   =====================                   |
     |               Approximate Normal Coordinate               |
     |                Rational Function Optimizer                |
      ----------------------------------------------------------- 
target rmsd / Å         0.100000
unbiased initial rmsd   0.163723
 
iter. min.        max.        rmsd       kpush
      ----------------------------------------------------------- 
     |                   =====================                   |
     |                        A N C O P T                        |
     |                   =====================                   |
     |               Approximate Normal Coordinate               |
     |                Rational Function Optimizer                |
      ----------------------------------------------------------- 
 1    0.000000    1.227273    0.009345   -0.613636
      ----------------------------------------------------------- 
     |                   =====================                   |
     |                        A N C O P T                        |
     |                   =====================                   |
     |               Approximate Normal Coordinate               |
     |                Rational Function Optimizer                |
      ----------------------------------------------------------- 
 2    0.000000    0.613636    0.012616   -0.306818
      ----------------------------------------------------------- 
     |                   =====================                   |
     |                        A N C O P T                        |
     |                   =====================                   |
     |               Approximate Normal Coordinate               |
     |                Rational Function Optimizer                |
      ----------------------------------------------------------- 
 3    0.000000    0.306818    0.017466   -0.153409
      ----------------------------------------------------------- 
     |                   =====================                   |
     |                        A N C O P T                        |
     |                   =====================                   |
     |               Approximate Normal Coordinate               |
     |                Rational Function Optimizer                |
      ----------------------------------------------------------- 
 4    0.000000    0.153409    0.024888   -0.076705
      ----------------------------------------------------------- 
     |                   =====================                   |
     |                        A N C O P T                        |
     |                   =====================                   |
     |               Approximate Normal Coordinate               |
     |                Rational Function Optimizer                |
      ----------------------------------------------------------- 
 5    0.000000    0.076705    0.035873   -0.038352
      ----------------------------------------------------------- 
     |                   =====================                   |
     |                        A N C O P T                        |
     |                   =====================                   |
     |               Approximate Normal Coordinate               |
     |                Rational Function Optimizer                |
      ----------------------------------------------------------- 
 6    0.000000    0.038352    0.049876   -0.019176
      ----------------------------------------------------------- 
     |                   =====================                   |
     |                        A N C O P T                        |
     |                   =====================                   |
     |               Approximate Normal Coordinate               |
     |                Rational Function Optimizer                |
      ----------------------------------------------------------- 
 7    0.000000    0.019176    0.067260   -0.009588
      ----------------------------------------------------------- 
     |                   =====================                   |
     |                        A N C O P T                        |
     |                   =====================                   |
     |               Approximate Normal Coordinate               |
     |                Rational Function Optimizer                |
      ----------------------------------------------------------- 
 8    0.000000    0.009588    0.091412   -0.004794
      ----------------------------------------------------------- 
     |                   =====================                   |
     |                        A N C O P T                        |
     |                   =====================                   |
     |               Approximate Normal Coordinate               |
     |                Rational Function Optimizer                |
      ----------------------------------------------------------- 
 9    0.000000    0.004794    0.115601   -0.002397
      ----------------------------------------------------------- 
     |                   =====================                   |
     |                        A N C O P T                        |
     |                   =====================                   |
     |               Approximate Normal Coordinate               |
     |                Rational Function Optimizer                |
      ----------------------------------------------------------- 
10    0.002397    0.004794    0.101544   -0.003596
final kpush: -0.003596
           -------------------------------------------------
          |            Biased Numerical Hessian             |
           -------------------------------------------------
kpush                :  -0.00360
alpha                :   1.00000
step length          :   0.00500
SCC accuracy         :   0.30000
Hessian scale factor :   1.00000
frozen atoms in %    :   0.00000    0
RMS gradient         :   0.00004
estimated CPU  time      0.04 min
estimated wall time      0.04 min

writing file <hessian>.

 projected vibrational frequencies (cm⁻¹)
eigval :       -0.00    -0.00    -0.00     0.00     0.00     0.00
eigval :       55.04    71.25   110.26   122.05   159.86   206.37
eigval :      202.16   274.87   302.34   348.33   355.61   405.35
eigval :      432.32   464.83   529.62   574.48   593.74   696.40
eigval :      721.33   755.73   823.47   886.18   895.00   907.59
eigval :      934.19   955.38   962.56   996.93  1009.65  1029.82
eigval :     1038.82  1044.06  1086.58  1122.53  1127.99  1150.43
eigval :     1184.85  1198.30  1220.65  1235.29  1272.05  1297.45
eigval :     1310.55  1316.44  1337.97  1349.22  1362.56  1402.14
eigval :     1404.30  1426.33  1447.93  1479.49  1482.98  1485.88
eigval :     1492.11  1496.62  1505.53  1729.84  1756.93  2903.01
eigval :     2939.88  2947.92  2966.30  2973.02  2987.38  2992.96
eigval :     2994.61  2999.05  3016.00  3028.14  3038.10  3045.51
eigval :     3050.95  3106.61  3154.84
           -------------------------------------------------
          |                Property Printout                |
           -------------------------------------------------

    * Orbital Energies and Occupations

         #    Occupation            Energy/Eh            Energy/eV
      -------------------------------------------------------------
         1        2.0000           -0.7043708             -19.1669
       ...           ...                  ...                  ...
        19        2.0000           -0.4830396             -13.1442
        20        2.0000           -0.4811891             -13.0938
        21        2.0000           -0.4776356             -12.9971
        22        2.0000           -0.4734596             -12.8835
        23        2.0000           -0.4671617             -12.7121
        24        2.0000           -0.4554751             -12.3941
        25        2.0000           -0.4499441             -12.2436
        26        2.0000           -0.4413726             -12.0104
        27        2.0000           -0.4409332             -11.9984
        28        2.0000           -0.4281112             -11.6495
        29        2.0000           -0.4212355             -11.4624
        30        2.0000           -0.3936347             -10.7113
        31        2.0000           -0.3832202             -10.4280 (HOMO)
        32                         -0.2452765              -6.6743 (LUMO)
        33                         -0.1982729              -5.3953
        34                          0.0596398               1.6229
        35                          0.0733136               1.9950
        36                          0.0788255               2.1450
        37                          0.0893875               2.4324
        38                          0.0960145               2.6127
        39                          0.1006932               2.7400
        40                          0.1024277               2.7872
        41                          0.1217826               3.3139
        42                          0.1302161               3.5434
       ...                                ...                  ...
        60                          0.6426469              17.4873
      -------------------------------------------------------------
                  HL-Gap            0.1379438 Eh            3.7536 eV
             Fermi-level           -0.3142483 Eh           -8.5511 eV

     #   Z          covCN         q      C6AA      α(0)
     1   6 C        3.756    -0.100    22.458     6.757
     2   6 C        3.853    -0.038    21.210     6.550
     3   1 H        0.924     0.051     2.305     2.374
     4   6 C        3.806    -0.061    21.660     6.625
     5   6 C        3.807    -0.057    21.597     6.615
     6   6 C        3.858    -0.021    20.904     6.502
     7   1 H        0.924     0.038     2.477     2.461
     8   6 C        3.806    -0.085    22.120     6.695
     9   6 C        2.817     0.243    22.929     7.846
    10   8 O        0.857    -0.371    21.104     6.159
    11   6 C        2.939     0.014    27.712     8.634
    12   6 C        2.843    -0.106    30.661     9.075
    13   6 C        3.760    -0.110    22.648     6.784
    14   1 H        0.925     0.044     2.398     2.422
    15   1 H        0.925     0.044     2.393     2.419
    16   1 H        0.925     0.039     2.461     2.453
    17   1 H        0.924     0.038     2.482     2.464
    18   1 H        0.924     0.040     2.449     2.447
    19   1 H        0.924     0.036     2.500     2.473
    20   1 H        0.924     0.035     2.510     2.478
    21   1 H        0.924     0.061     2.186     2.312
    22   1 H        0.924     0.060     2.197     2.318
    23   1 H        0.926     0.033     2.540     2.492
    24   1 H        0.926     0.043     2.415     2.430
    25   1 H        0.925     0.043     2.406     2.425
    26   1 H        0.925     0.042     2.416     2.431
    27   1 H        0.925     0.042     2.424     2.435

 Mol. C6AA /au·bohr⁶  :       6012.483546
 Mol. C8AA /au·bohr⁸  :     133856.856179
 Mol. α(0) /au        :        117.077754


Wiberg/Mayer (AO) data.
largest (>0.10) Wiberg bond orders for each atom

 ---------------------------------------------------------------------------
     #   Z sym  total        # sym  WBO       # sym  WBO       # sym  WBO
 ---------------------------------------------------------------------------
     1   6 C    3.995 --    14 H    0.986    16 H    0.983    15 H    0.983
                             2 C    0.982
     2   6 C    3.995 --     4 C    0.990     1 C    0.982     9 C    0.973
                             3 H    0.963
     3   1 H    0.997 --     2 C    0.963
     4   6 C    3.997 --     5 C    1.011     2 C    0.990    18 H    0.975
                            17 H    0.974
     5   6 C    3.998 --     4 C    1.011     6 C    0.981    19 H    0.973
                            20 H    0.973
     6   6 C    3.995 --    11 C    0.997     8 C    0.982     5 C    0.981
                             7 H    0.961
     7   1 H    0.999 --     6 C    0.961
     8   6 C    3.996 --     9 C    0.993     6 C    0.982    22 H    0.970
                            21 H    0.941
     9   6 C    3.911 --    10 O    1.855     8 C    0.993     2 C    0.973
    10   8 O    2.063 --     9 C    1.855
    11   6 C    3.987 --    12 C    1.933    13 C    1.022     6 C    0.997
    12   6 C    3.990 --    11 C    1.933    23 H    0.974    24 H    0.969
    13   6 C    3.996 --    11 C    1.022    25 H    0.985    26 H    0.972
                            27 H    0.971
    14   1 H    0.998 --     1 C    0.986
    15   1 H    0.998 --     1 C    0.983
    16   1 H    0.998 --     1 C    0.983
    17   1 H    0.999 --     4 C    0.974
    18   1 H    0.998 --     4 C    0.975
    19   1 H    0.998 --     5 C    0.973
    20   1 H    0.999 --     5 C    0.973
    21   1 H    0.996 --     8 C    0.941
    22   1 H    0.996 --     8 C    0.970
    23   1 H    0.998 --    12 C    0.974
    24   1 H    0.998 --    12 C    0.969
    25   1 H    0.998 --    13 C    0.985
    26   1 H    0.998 --    13 C    0.972
    27   1 H    0.998 --    13 C    0.971
 ---------------------------------------------------------------------------

Topologies differ in total number of bonds
Writing topology from bond orders to xtbtopo.mol

molecular dipole:
                 x           y           z       tot (Debye)
 q only:        0.403      -1.245       0.337
   full:        0.443      -1.413       0.419       3.912
molecular quadrupole (traceless):
                xx          xy          yy          xz          yz          zz
 q only:        2.265       4.690      -5.130      -0.086       0.967       2.865
  q+dip:        2.237       5.548      -6.361      -0.414       0.031       4.123
   full:        2.687       5.681      -6.812      -0.860       0.752       4.125

           -------------------------------------------------
          |                Geometry Summary                 |
           -------------------------------------------------

      molecular mass/u    :      152.2338159
   center of mass at/Å    :       -0.0011874       0.0010402      -0.0027085
  moments of inertia/u·Å² :        0.2765895E+03   0.5830925E+03   0.7030270E+03
rotational constants/cm⁻¹ :        0.6094821E-01   0.2891073E-01   0.2397864E-01

 * 23 selected distances

     #   Z          #   Z                                           value/Å
     1   6 C        2   6 C                                       1.5337305
     2   6 C        3   1 H                                       1.0957504
     2   6 C        4   6 C                                       1.5304681
     4   6 C        5   6 C                                       1.5228091
     5   6 C        6   6 C                                       1.5352888 (max)
     6   6 C        7   1 H                                       1.0975463
     6   6 C        8   6 C                                       1.5335143
     9   6 C       10   8 O                                       1.2075284
    11   6 C       12   6 C                                       1.3229210
     1   6 C       14   1 H                                       1.0876936
     1   6 C       15   1 H                                       1.0879666
     1   6 C       16   1 H                                       1.0867213
     4   6 C       17   1 H                                       1.0925005
     4   6 C       18   1 H                                       1.0922726
     5   6 C       19   1 H                                       1.0914892
     5   6 C       20   1 H                                       1.0913044
     8   6 C       21   1 H                                       1.0942946
     8   6 C       22   1 H                                       1.0916737
    12   6 C       23   1 H                                       1.0775098
    12   6 C       24   1 H                                       1.0747798 (min)
    13   6 C       25   1 H                                       1.0864226
    13   6 C       26   1 H                                       1.0899866
    13   6 C       27   1 H                                       1.0891400

 * 3 distinct bonds (by element types)

   Z      Z             #   av. dist./Å        max./Å        min./Å
   1 H    6 C          16     1.0891908     1.0975463     1.0747798
   6 C    6 C           6     1.4964553     1.5352888     1.3229210
   6 C    8 O           1     1.2075284     1.2075284     1.2075284

           -------------------------------------------------
          |               Frequency Printout                |
           -------------------------------------------------
 projected vibrational frequencies (cm⁻¹)
eigval :       -0.00    -0.00    -0.00     0.00     0.00     0.00
eigval :       55.04    71.25   110.26   122.05   159.86   206.37
eigval :      202.16   274.87   302.34   348.33   355.61   405.35
eigval :      432.32   464.83   529.62   574.48   593.74   696.40
eigval :      721.33   755.73   823.47   886.18   895.00   907.59
eigval :      934.19   955.38   962.56   996.93  1009.65  1029.82
eigval :     1038.82  1044.06  1086.58  1122.53  1127.99  1150.43
eigval :     1184.85  1198.30  1220.65  1235.29  1272.05  1297.45
eigval :     1310.55  1316.44  1337.97  1349.22  1362.56  1402.14
eigval :     1404.30  1426.33  1447.93  1479.49  1482.98  1485.88
eigval :     1492.11  1496.62  1505.53  1729.84  1756.93  2903.01
eigval :     2939.88  2947.92  2966.30  2973.02  2987.38  2992.96
eigval :     2994.61  2999.05  3016.00  3028.14  3038.10  3045.51
eigval :     3050.95  3106.61  3154.84
 reduced masses (amu)
   1: 11.28   2: 11.83   3: 11.76   4:  9.83   5: 10.50   6: 10.23   7:  8.80   8: 10.58
   9: 11.64  10:  1.74  11:  9.07  12:  9.15  13:  2.61  14:  8.18  15:  9.10  16:  7.60
  17:  8.53  18:  9.59  19:  9.52  20:  9.59  21:  9.36  22:  9.99  23:  8.45  24:  5.81
  25:  5.56  26:  9.62  27:  7.39  28:  7.56  29:  7.77  30:  4.06  31:  6.91  32:  5.87
  33:  6.04  34:  5.28  35:  5.53  36:  5.26  37:  5.39  38:  5.14  39:  4.78  40:  7.14
  41:  3.94  42:  4.32  43:  8.05  44:  4.47  45:  5.68  46:  6.68  47:  5.50  48:  4.91
  49:  5.12  50:  5.80  51:  4.57  52:  5.28  53:  5.27  54:  3.02  55:  2.99  56:  2.44
  57:  1.92  58:  1.77  59:  1.71  60:  1.66  61:  1.78  62:  1.60  63:  1.70  64: 11.29
  65: 13.38  66:  1.75  67:  1.75  68:  1.79  69:  1.92  70:  1.89  71:  1.63  72:  1.54
  73:  1.66  74:  1.88  75:  1.56  76:  1.84  77:  1.89  78:  1.41  79:  1.67  80:  1.69
  81:  1.91
 IR intensities (km·mol⁻¹)
   1:  0.27   2:  0.70   3:  0.40   4:  0.65   5:  0.34   6:  0.87   7:  0.32   8:  2.27
   9:  2.14  10:  0.42  11:  0.14  12:  1.10  13:  0.49  14:  0.74  15:  0.03  16:  0.37
  17:  3.07  18:  0.60  19:  6.44  20:  8.91  21:  0.90  22:  2.01  23:  0.66  24:  3.87
  25:  4.37  26:  5.39  27:  8.63  28:  3.72  29:  4.37  30: 20.15  31:  2.61  32:  2.97
  33:  2.63  34: 10.23  35: 16.17  36: 25.22  37:  5.44  38:  2.12  39:  0.93  40:  7.97
  41: 18.22  42:  4.46  43: 14.51  44:  3.29  45: 43.03  46: 33.71  47:  1.16  48:  1.61
  49:  2.45  50:  0.20  51:  3.32  52:  1.72  53:  3.08  54:  5.17  55:  2.53  56:  2.75
  57:  8.11  58:  2.22  59:  1.07  60:  3.73  61:  4.97  62:  3.60  63:  2.55  64: 12.51
  65:316.27  66: 48.75  67: 28.73  68: 15.61  69: 26.49  70: 34.61  71: 51.99  72: 19.40
  73: 34.30  74: 41.80  75: 37.62  76: 36.73  77: 34.52  78: 26.18  79: 28.44  80: 33.90
  81: 21.14
 Raman intensities (Ä⁴*amu⁻¹)
   1:  0.00   2:  0.00   3:  0.00   4:  0.00   5:  0.00   6:  0.00   7:  0.00   8:  0.00
   9:  0.00  10:  0.00  11:  0.00  12:  0.00  13:  0.00  14:  0.00  15:  0.00  16:  0.00
  17:  0.00  18:  0.00  19:  0.00  20:  0.00  21:  0.00  22:  0.00  23:  0.00  24:  0.00
  25:  0.00  26:  0.00  27:  0.00  28:  0.00  29:  0.00  30:  0.00  31:  0.00  32:  0.00
  33:  0.00  34:  0.00  35:  0.00  36:  0.00  37:  0.00  38:  0.00  39:  0.00  40:  0.00
  41:  0.00  42:  0.00  43:  0.00  44:  0.00  45:  0.00  46:  0.00  47:  0.00  48:  0.00
  49:  0.00  50:  0.00  51:  0.00  52:  0.00  53:  0.00  54:  0.00  55:  0.00  56:  0.00
  57:  0.00  58:  0.00  59:  0.00  60:  0.00  61:  0.00  62:  0.00  63:  0.00  64:  0.00
  65:  0.00  66:  0.00  67:  0.00  68:  0.00  69:  0.00  70:  0.00  71:  0.00  72:  0.00
  73:  0.00  74:  0.00  75:  0.00  76:  0.00  77:  0.00  78:  0.00  79:  0.00  80:  0.00
  81:  0.00
 output can be read by thermo (or use thermo option).
 writing <g98.out> molden fake output.
 recommended (thermochemical) frequency scaling factor: 1.0
           -------------------------------------------------
          |             Thermodynamic Functions             |
           -------------------------------------------------

Molecule has no symmetry elements
It seems to be the C1 point group
c1  symmetry found (for desy threshold:  0.10E+00) used in thermo

          ...................................................
          :                      SETUP                      :
          :.................................................:
          :  # frequencies                          75      :
          :  # imaginary freq.                       0      :
          :  linear?                             false      :
          :  only rotor calc.                    false      :
          :  symmetry                               c1      :
          :  rotational number                       1      :
          :  scaling factor                  1.0000000      :
          :  rotor cutoff                    0.0000000 cm⁻¹ :
          :  imag. cutoff                 -100.0000000 cm⁻¹ :
          :.................................................:

    mode    ω/cm⁻¹     T·S(HO)/kcal·mol⁻¹    T·S(FR)/kcal·mol⁻¹   T·S(vib)
   ------------------------------------------------------------------------
       1     55.04    -1.37972 (100.00%)    -1.02793 (  0.00%)    -1.37972
       2     71.25    -1.22797 (100.00%)    -0.95151 (  0.00%)    -1.22797
       3    110.26    -0.97324 (100.00%)    -0.82218 (  0.00%)    -0.97324
       4    122.05    -0.91463 (100.00%)    -0.79211 (  0.00%)    -0.91463
       5    159.86    -0.76071 (100.00%)    -0.71218 (  0.00%)    -0.76071
       6    206.37    -0.61882 (100.00%)    -0.63654 (  0.00%)    -0.61882
       7    202.16    -0.63011 (100.00%)    -0.64265 (  0.00%)    -0.63011
       8    274.87    -0.46673 (100.00%)    -0.55164 (  0.00%)    -0.46673
   ------------------------------------------------------------------------

   temp. (K)  partition function   enthalpy   heat capacity  entropy
                                   cal/mol     cal/K/mol   cal/K/mol   J/K/mol
 298.15  VIB  0.241E+04             5561.244     38.697     34.129
         ROT  0.813E+06              888.752      2.981     30.026
         INT  0.196E+10             6449.997     41.678     64.155
         TR   0.182E+28             1481.254      4.968     40.952
         TOT                        7931.2505    46.6459   105.1069   439.7671

       T/K    H(0)-H(T)+PV         H(T)/Eh          T*S/Eh         G(T)/Eh
   ------------------------------------------------------------------------
    298.15    0.126393E-01    0.248869E+00    0.499397E-01    0.198929E+00
   ------------------------------------------------------------------------

         :::::::::::::::::::::::::::::::::::::::::::::::::::::
         ::                  THERMODYNAMIC                  ::
         :::::::::::::::::::::::::::::::::::::::::::::::::::::
         :: total free energy         -33.430205949827 Eh   ::
         ::.................................................::
         :: total energy              -33.629135028162 Eh   ::
         :: zero point energy           0.236229488268 Eh   ::
         :: G(RRHO) w/o ZPVE           -0.037300409934 Eh   ::
         :: G(RRHO) contrib.            0.198929078334 Eh   ::
         :::::::::::::::::::::::::::::::::::::::::::::::::::::

optimized geometry written to: xtbopt.coord


           -------------------------------------------------
          | TOTAL ENERGY              -33.629135028162 Eh   |
          | TOTAL ENTHALPY            -33.380266287736 Eh   |
          | TOTAL FREE ENERGY         -33.430205949827 Eh   |
          | GRADIENT NORM               0.000036348528 Eh/α |
          | HOMO-LUMO GAP               3.753640620183 eV   |
           -------------------------------------------------

------------------------------------------------------------------------
 * finished run on 2025/04/15 at 19:35:39.328     
------------------------------------------------------------------------
 total:
 * wall-time:     0 d,  0 h,  0 min,  5.334 sec
 *  cpu-time:     0 d,  0 h,  0 min,  5.260 sec
 * ratio c/w:     0.986 speedup
 SCF:
 * wall-time:     0 d,  0 h,  0 min,  0.063 sec
 *  cpu-time:     0 d,  0 h,  0 min,  0.036 sec
 * ratio c/w:     0.575 speedup
 analytical hessian:
 * wall-time:     0 d,  0 h,  0 min,  2.156 sec
 *  cpu-time:     0 d,  0 h,  0 min,  2.154 sec
 * ratio c/w:     0.999 speedup

