      -----------------------------------------------------------      
     |                   =====================                   |     
     |                           x T B                           |     
     |                   =====================                   |     
     |                         S. Grimme                         |     
     |          Mulliken Center for Theoretical Chemistry        |     
     |                    University of Bonn                     |     
      -----------------------------------------------------------      

   * xtb version 6.7.1 (edcfbbe) compiled by 'albert@albert-system' on 2024-07-22

   xtb is free software: you can redistribute it and/or modify it under
   the terms of the GNU Lesser General Public License as published by
   the Free Software Foundation, either version 3 of the License, or
   (at your option) any later version.
   
   xtb is distributed in the hope that it will be useful,
   but WITHOUT ANY WARRANTY; without even the implied warranty of
   MERCHANTABILITY or FITNESS FOR A PARTICULAR PURPOSE.  See the
   GNU Lesser General Public License for more details.
   
   Cite this work as:
   * C. Bannwarth, E. Caldeweyher, S. Ehlert, A. Hansen, P. Pracht,
     J. Seibert, S. Spicher, S. Grimme, WIREs Comput. Mol. Sci., 2020, 11,
     e01493. DOI: 10.1002/wcms.1493
   
   for GFN2-xTB:
   * C. Bannwarth, S. Ehlert and S. Grimme., J. Chem. Theory Comput., 2019,
     15, 1652-1671. DOI: 10.1021/acs.jctc.8b01176
   for GFN1-xTB:
   * S. Grimme, C. Bannwarth, P. Shushkov, J. Chem. Theory Comput., 2017,
     13, 1989-2009. DOI: 10.1021/acs.jctc.7b00118
   for GFN0-xTB:
   * P. Pracht, E. Caldeweyher, S. Ehlert, S. Grimme, ChemRxiv, 2019, preprint.
     DOI: 10.26434/chemrxiv.8326202.v1
   for GFN-FF:
   * S. Spicher and S. Grimme, Angew. Chem. Int. Ed., 2020, 59, 15665-15673.
     DOI: 10.1002/anie.202004239
   
   for ALPB and GBSA implicit solvation:
   * S. Ehlert, M. Stahn, S. Spicher, S. Grimme, J. Chem. Theory Comput.,
     2021, 17, 4250-4261. DOI: 10.1021/acs.jctc.1c00471
   
   for ddCOSMO and CPCM-X implicit solvation:
   * M. Stahn, S. Ehlert, S. Grimme, J. Phys. Chem. A,
     2023, XX, XXXX-XXXX. DOI: 10.1021/acs.jpca.3c04382
   
   for DFT-D4:
   * E. Caldeweyher, C. Bannwarth and S. Grimme, J. Chem. Phys., 2017,
     147, 034112. DOI: 10.1063/1.4993215
   * E. Caldeweyher, S. Ehlert, A. Hansen, H. Neugebauer, S. Spicher,
     C. Bannwarth and S. Grimme, J. Chem. Phys., 2019, 150, 154122.
     DOI: 10.1063/1.5090222
   * E. Caldeweyher, J.-M. Mewes, S. Ehlert and S. Grimme, Phys. Chem. Chem. Phys.
     2020, 22, 8499-8512. DOI: 10.1039/D0CP00502A
   
   for sTDA-xTB:
   * S. Grimme and C. Bannwarth, J. Chem. Phys., 2016, 145, 054103.
     DOI: 10.1063/1.4959605
   
   in the mass-spec context:
   * V. Asgeirsson, C. Bauer and S. Grimme, Chem. Sci., 2017, 8, 4879.
     DOI: 10.1039/c7sc00601b
   * J. Koopman and S. Grimme, ACS Omega 2019, 4, 12, 15120-15133.
     DOI: 10.1021/acsomega.9b02011
   
   for metadynamics refer to:
   * S. Grimme, J. Chem. Theory Comput., 2019, 155, 2847-2862
     DOI: 10.1021/acs.jctc.9b00143
   
   for SPH calculations refer to:
   * S. Spicher and S. Grimme, J. Chem. Theory Comput., 2021, 17, 1701-1714
     DOI: 10.1021/acs.jctc.0c01306
   
   for ONIOM refer to:
   * C. Plett, A. Katbashev, S. Ehlert, S. Grimme, M. Bursch,
     Phys. Chem. Chem. Phys., 2023, 25, 17860-17868. DOI: 10.1039/D3CP02178E
   
   for DIPRO refer to:
   * J. Kohn, N. Gildemeister, S. Grimme, D. Fazzi, A. Hansen,
     J. Chem. Phys., 2023, just accepted.
   
   for PTB refer to:
   * S. Grimme, M. Mueller, A. Hansen, J. Chem. Phys., 2023, 158, 124111.
     DOI: 10.1063/5.0137838
   
   with help from (in alphabetical order)
   P. Atkinson, C. Bannwarth, F. Bohle, G. Brandenburg, E. Caldeweyher
   M. Checinski, S. Dohm, S. Ehlert, S. Ehrlich, I. Gerasimov, C. Hölzer
   A. Katbashev, J. Kohn, J. Koopman, C. Lavigne, S. Lehtola, F. März, M. Müller,
   F. Musil, H. Neugebauer, J. Pisarek, C. Plett, P. Pracht, F. Pultar,
   J. Seibert, P. Shushkov, S. Spicher, M. Stahn, M. Steiner, T. Strunk,
   J. Stückrath, T. Rose, and J. Unsleber
   
 * started run on 2025/04/16 at 11:24:58.289     
   ID    Z sym.   atoms
    1    6 C      1, 2, 4, 6, 8, 10
    2    1 H      3, 5, 7, 9, 11, 18-24
    3    8 O      12-17

           -------------------------------------------------
          |                Calculation Setup                |
           -------------------------------------------------

          program call               : /software/projects/pawsey0265/mwang1/xtb/bin/xtb xtb_rrho.coord --gfn2 --bhess vtight --chrg 0 --enso --norestart -I rrho-xcontrol-inp --parallel 1
          hostname                   : nid002811
          coordinate file            : xtb_rrho.coord
          omp threads                :                     1


           -------------------------------------------------
          |                 G F N 2 - x T B                 |
           -------------------------------------------------

        Reference                      10.1021/acs.jctc.8b01176
      * Hamiltonian:
        H0-scaling (s, p, d)           1.850000    2.230000    2.230000
        zeta-weighting                 0.500000
      * Dispersion:
        s8                             2.700000
        a1                             0.520000
        a2                             5.000000
        s9                             5.000000
      * Repulsion:
        kExp                           1.500000    1.000000
        rExp                           1.000000
      * Coulomb:
        alpha                          2.000000
        third order                    shell-resolved
        anisotropic                    true
        a3                             3.000000
        a5                             4.000000
        cn-shift                       1.200000
        cn-exp                         4.000000
        max-rad                        5.000000


          ...................................................
          :                      SETUP                      :
          :.................................................:
          :  # basis functions                  60          :
          :  # atomic orbitals                  60          :
          :  # shells                           36          :
          :  # electrons                        72          :
          :  max. iterations                   250          :
          :  Hamiltonian                  GFN2-xTB          :
          :  restarted?                      false          :
          :  GBSA solvation                  false          :
          :  PC potential                    false          :
          :  electronic temp.          300.0000000     K    :
          :  accuracy                    1.0000000          :
          :  -> integral cutoff          0.2500000E+02      :
          :  -> integral neglect         0.1000000E-07      :
          :  -> SCF convergence          0.1000000E-05 Eh   :
          :  -> wf. convergence          0.1000000E-03 e    :
          :  Broyden damping             0.4000000          :
          :  net charge                          0          :
          :  unpaired electrons                  0          :
          ...................................................

 iter      E             dE          RMSdq      gap      omega  full diag
   1    -43.6186885 -0.436187E+02  0.457E+00    9.81       0.0  T
   2    -43.6525561 -0.338676E-01  0.248E+00    9.68       1.0  T
   3    -43.6535727 -0.101653E-02  0.700E-01    9.63       1.0  T
   4    -43.6543017 -0.729057E-03  0.129E-01    9.62       1.0  T
   5    -43.6543431 -0.413600E-04  0.433E-02    9.65       1.0  T
   6    -43.6543539 -0.108325E-04  0.170E-02    9.65       1.2  T
   7    -43.6543544 -0.539039E-06  0.597E-03    9.65       3.4  T
   8    -43.6543547 -0.245269E-06  0.151E-03    9.65      13.5  T
   9    -43.6543547 -0.595901E-08  0.616E-04    9.65      33.1  T
  10    -43.6543547 -0.895511E-09  0.259E-04    9.65      78.8  T

   *** convergence criteria satisfied after 10 iterations ***

         #    Occupation            Energy/Eh            Energy/eV
      -------------------------------------------------------------
         1        2.0000           -0.7291674             -19.8417
       ...           ...                  ...                  ...
        30        2.0000           -0.4706468             -12.8069
        31        2.0000           -0.4601405             -12.5211
        32        2.0000           -0.4579041             -12.4602
        33        2.0000           -0.4504437             -12.2572
        34        2.0000           -0.4334439             -11.7946
        35        2.0000           -0.4223003             -11.4914
        36        2.0000           -0.4158628             -11.3162 (HOMO)
        37                         -0.0613089              -1.6683 (LUMO)
        38                         -0.0394463              -1.0734
        39                         -0.0080746              -0.2197
        40                          0.0105256               0.2864
        41                          0.0283257               0.7708
       ...                                ...                  ...
        60                          0.2695562               7.3350
      -------------------------------------------------------------
                  HL-Gap            0.3545539 Eh            9.6479 eV
             Fermi-level           -0.2385859 Eh           -6.4923 eV

 SCC (total)                   0 d,  0 h,  0 min,  0.071 sec
 SCC setup                      ...        0 min,  0.000 sec (  0.571%)
 Dispersion                     ...        0 min,  0.000 sec (  0.351%)
 classical contributions        ...        0 min,  0.000 sec (  0.093%)
 integral evaluation            ...        0 min,  0.003 sec (  4.454%)
 iterations                     ...        0 min,  0.047 sec ( 66.349%)
 molecular gradient             ...        0 min,  0.020 sec ( 27.949%)
 printout                       ...        0 min,  0.000 sec (  0.200%)

         :::::::::::::::::::::::::::::::::::::::::::::::::::::
         ::                     SUMMARY                     ::
         :::::::::::::::::::::::::::::::::::::::::::::::::::::
         :: total energy             -43.360152847871 Eh    ::
         :: gradient norm              0.048444502433 Eh/a0 ::
         :: HOMO-LUMO gap              9.647903229803 eV    ::
         ::.................................................::
         :: SCC energy               -43.654175467295 Eh    ::
         :: -> isotropic ES            0.141501290377 Eh    ::
         :: -> anisotropic ES         -0.004105653586 Eh    ::
         :: -> anisotropic XC         -0.007689819891 Eh    ::
         :: -> dispersion             -0.020798051499 Eh    ::
         :: repulsion energy           0.294022619425 Eh    ::
         :: add. restraining           0.000000000000 Eh    ::
         :: total charge               0.000000000000 e     ::
         :::::::::::::::::::::::::::::::::::::::::::::::::::::

metadynamics with 1 initial structures loaded
           -------------------------------------------------
          |           Optimal kpush determination           |
           -------------------------------------------------
      ----------------------------------------------------------- 
     |                   =====================                   |
     |                        A N C O P T                        |
     |                   =====================                   |
     |               Approximate Normal Coordinate               |
     |                Rational Function Optimizer                |
      ----------------------------------------------------------- 
target rmsd / Å         0.100000
unbiased initial rmsd   0.042953
 
iter. min.        max.        rmsd       kpush
final kpush:  0.000000
           -------------------------------------------------
          |            Biased Numerical Hessian             |
           -------------------------------------------------
kpush                :   0.00000
alpha                :   1.00000
step length          :   0.00500
SCC accuracy         :   0.30000
Hessian scale factor :   1.00000
frozen atoms in %    :   0.00000    0
RMS gradient         :   0.00009
estimated CPU  time      0.05 min
estimated wall time      0.05 min

writing file <hessian>.

 projected vibrational frequencies (cm⁻¹)
eigval :       -0.00    -0.00    -0.00     0.00     0.00     0.00
eigval :      101.66   121.12   171.67   200.28   216.83   250.28
eigval :      266.93   288.99   295.45   324.69   363.12   374.05
eigval :      413.12   470.03   473.20   519.62   537.02   559.99
eigval :      569.52   617.69   675.83   773.15   807.69   865.91
eigval :      878.69   901.18   961.23   991.98  1032.72  1061.24
eigval :     1076.37  1086.82  1096.90  1110.86  1117.04  1131.43
eigval :     1171.65  1188.26  1197.06  1208.92  1217.07  1263.04
eigval :     1279.56  1291.82  1299.32  1308.62  1317.14  1328.66
eigval :     1330.39  1338.99  1351.26  1363.39  1364.72  1460.08
eigval :     2874.36  2878.90  2916.95  2934.19  2936.39  2937.38
eigval :     2988.57  3179.29  3332.47  3353.76  3427.20  3527.51
           -------------------------------------------------
          |                Property Printout                |
           -------------------------------------------------

    * Orbital Energies and Occupations

         #    Occupation            Energy/Eh            Energy/eV
      -------------------------------------------------------------
         1        2.0000           -0.7310796             -19.8937
       ...           ...                  ...                  ...
        24        2.0000           -0.5222418             -14.2109
        25        2.0000           -0.5172549             -14.0752
        26        2.0000           -0.5112366             -13.9115
        27        2.0000           -0.4944886             -13.4557
        28        2.0000           -0.4888953             -13.3035
        29        2.0000           -0.4867249             -13.2445
        30        2.0000           -0.4693417             -12.7714
        31        2.0000           -0.4585975             -12.4791
        32        2.0000           -0.4572614             -12.4427
        33        2.0000           -0.4480633             -12.1924
        34        2.0000           -0.4293827             -11.6841
        35        2.0000           -0.4170113             -11.3475
        36        2.0000           -0.4113203             -11.1926 (HOMO)
        37                         -0.0393924              -1.0719 (LUMO)
        38                         -0.0195814              -0.5328
        39                          0.0136491               0.3714
        40                          0.0252274               0.6865
        41                          0.0314379               0.8555
        42                          0.0343126               0.9337
        43                          0.0548385               1.4922
        44                          0.0682974               1.8585
        45                          0.0843153               2.2943
        46                          0.0966905               2.6311
        47                          0.1123596               3.0575
       ...                                ...                  ...
        60                          0.2866892               7.8012
      -------------------------------------------------------------
                  HL-Gap            0.3719279 Eh           10.1207 eV
             Fermi-level           -0.2253564 Eh           -6.1323 eV

     #   Z          covCN         q      C6AA      α(0)
     1   6 C        3.673     0.062    19.770     6.372
     2   6 C        3.728     0.079    19.357     6.281
     3   1 H        0.923     0.067     2.114     2.274
     4   6 C        3.725     0.091    19.177     6.253
     5   1 H        0.924     0.054     2.271     2.357
     6   6 C        3.725     0.094    19.122     6.244
     7   1 H        0.923     0.042     2.424     2.435
     8   6 C        3.724     0.085    19.270     6.268
     9   1 H        0.923     0.031     2.569     2.506
    10   6 C        3.612     0.243    17.267     5.999
    11   1 H        0.924     0.064     2.151     2.294
    12   8 O        1.700    -0.326    19.452     5.955
    13   8 O        1.655    -0.470    22.262     6.369
    14   8 O        1.656    -0.444    21.716     6.291
    15   8 O        1.653    -0.479    22.444     6.395
    16   8 O        1.655    -0.450    21.846     6.310
    17   8 O        1.654    -0.456    21.962     6.326
    18   1 H        0.924     0.053     2.285     2.364
    19   1 H        0.924     0.046     2.369     2.407
    20   1 H        0.804     0.328     0.642     1.259
    21   1 H        0.805     0.307     0.699     1.313
    22   1 H        0.803     0.332     0.632     1.249
    23   1 H        0.804     0.317     0.672     1.288
    24   1 H        0.804     0.328     0.642     1.259

 Mol. C6AA /au·bohr⁶  :       4698.192549
 Mol. C8AA /au·bohr⁸  :     100019.192745
 Mol. α(0) /au        :         98.067346


Wiberg/Mayer (AO) data.
largest (>0.10) Wiberg bond orders for each atom

 ---------------------------------------------------------------------------
     #   Z sym  total        # sym  WBO       # sym  WBO       # sym  WBO
 ---------------------------------------------------------------------------
     1   6 C    3.957 --    17 O    1.003     2 C    0.971    18 H    0.970
                            19 H    0.970
     2   6 C    3.946 --     1 C    0.971    12 O    0.964     4 C    0.963
                             3 H    0.955
     3   1 H    0.995 --     2 C    0.955
     4   6 C    3.964 --    16 O    1.008     6 C    0.967     2 C    0.963
                             5 H    0.958
     5   1 H    0.997 --     4 C    0.958
     6   6 C    3.960 --    15 O    1.000     4 C    0.967     8 C    0.958
                             7 H    0.958
     7   1 H    0.998 --     6 C    0.958
     8   6 C    3.954 --    14 O    0.993    10 C    0.963     9 H    0.959
                             6 C    0.958
     9   1 H    0.999 --     8 C    0.959
    10   6 C    3.935 --    13 O    0.989    12 O    0.985     8 C    0.963
                            11 H    0.946
    11   1 H    0.996 --    10 C    0.946
    12   8 O    2.104 --    10 C    0.985     2 C    0.964
    13   8 O    1.982 --    10 C    0.989    20 H    0.846
    14   8 O    1.978 --     8 C    0.993    21 H    0.889
    15   8 O    1.962 --     6 C    1.000    22 H    0.822
    16   8 O    1.961 --     4 C    1.008    23 H    0.867
    17   8 O    2.000 --     1 C    1.003    24 H    0.852
    18   1 H    0.997 --     1 C    0.970
    19   1 H    0.998 --     1 C    0.970
    20   1 H    0.892 --    13 O    0.846
    21   1 H    0.905 --    14 O    0.889
    22   1 H    0.890 --    15 O    0.822
    23   1 H    0.900 --    16 O    0.867
    24   1 H    0.892 --    17 O    0.852
 ---------------------------------------------------------------------------

Topologies differ in total number of bonds
Writing topology from bond orders to xtbtopo.mol

molecular dipole:
                 x           y           z       tot (Debye)
 q only:        0.136       0.238      -0.013
   full:        0.333       0.340      -0.024       1.212
molecular quadrupole (traceless):
                xx          xy          yy          xz          yz          zz
 q only:        6.129       5.476      -3.039      -0.637       1.087      -3.090
  q+dip:        9.196       7.460      -1.542      -1.383      -0.948      -7.654
   full:        8.634       7.593      -2.449      -1.067      -0.062      -6.185

           -------------------------------------------------
          |                Geometry Summary                 |
           -------------------------------------------------

      molecular mass/u    :      180.1561339
   center of mass at/Å    :       -0.0000102      -0.0000010      -0.0000135
  moments of inertia/u·Å² :        0.4067121E+03   0.5298136E+03   0.6139684E+03
rotational constants/cm⁻¹ :        0.4144856E-01   0.3181805E-01   0.2745684E-01

 * 20 selected distances

     #   Z          #   Z                                           value/Å
     2   6 C        3   1 H                                       1.0982879
     4   6 C        5   1 H                                       1.0966596
     6   6 C        7   1 H                                       1.1011359
     8   6 C        9   1 H                                       1.1008357
     8   6 C       10   6 C                                       1.5358654 (max)
    10   6 C       11   1 H                                       1.0977196
     2   6 C       12   8 O                                       1.4248044
    10   6 C       12   8 O                                       1.3985917
    10   6 C       13   8 O                                       1.4024462
     8   6 C       14   8 O                                       1.4077059
     6   6 C       15   8 O                                       1.4075407
     4   6 C       16   8 O                                       1.4037873
     1   6 C       17   8 O                                       1.4066340
     1   6 C       18   1 H                                       1.0923245
     1   6 C       19   1 H                                       1.0957741
    13   8 O       20   1 H                                       0.9742631
    14   8 O       21   1 H                                       0.9647467 (min)
    15   8 O       22   1 H                                       0.9817631
    16   8 O       23   1 H                                       0.9705954
    17   8 O       24   1 H                                       0.9746960

 * 4 distinct bonds (by element types)

   Z      Z             #   av. dist./Å        max./Å        min./Å
   1 H    6 C           7     1.0975339     1.1011359     1.0923245
   6 C    6 C           1     1.5358654     1.5358654     1.5358654
   1 H    8 O           5     0.9732129     0.9817631     0.9647467
   6 C    8 O           7     1.4073586     1.4248044     1.3985917

           -------------------------------------------------
          |               Frequency Printout                |
           -------------------------------------------------
 projected vibrational frequencies (cm⁻¹)
eigval :       -0.00    -0.00    -0.00     0.00     0.00     0.00
eigval :      101.66   121.12   171.67   200.28   216.83   250.28
eigval :      266.93   288.99   295.45   324.69   363.12   374.05
eigval :      413.12   470.03   473.20   519.62   537.02   559.99
eigval :      569.52   617.69   675.83   773.15   807.69   865.91
eigval :      878.69   901.18   961.23   991.98  1032.72  1061.24
eigval :     1076.37  1086.82  1096.90  1110.86  1117.04  1131.43
eigval :     1171.65  1188.26  1197.06  1208.92  1217.07  1263.04
eigval :     1279.56  1291.82  1299.32  1308.62  1317.14  1328.66
eigval :     1330.39  1338.99  1351.26  1363.39  1364.72  1460.08
eigval :     2874.36  2878.90  2916.95  2934.19  2936.39  2937.38
eigval :     2988.57  3179.29  3332.47  3353.76  3427.20  3527.51
 reduced masses (amu)
   1: 13.66   2: 13.34   3: 13.03   4: 13.26   5: 13.57   6: 13.41   7: 12.81   8: 13.22
   9: 14.44  10: 14.03  11: 13.99  12: 13.54  13: 13.89  14:  6.24  15: 11.56  16:  8.87
  17: 11.81  18: 12.84  19:  7.59  20:  9.83  21: 12.00  22:  3.58  23:  3.16  24: 10.75
  25: 12.55  26: 12.52  27: 11.13  28:  2.74  29: 10.65  30:  8.87  31:  9.70  32: 10.46
  33:  6.69  34:  9.88  35: 11.96  36:  6.55  37: 11.15  38: 10.62  39:  9.70  40: 10.94
  41: 10.95  42:  9.26  43:  4.50  44:  3.82  45:  3.16  46:  3.17  47:  4.39  48:  4.05
  49:  4.26  50:  3.51  51:  4.67  52:  3.74  53:  3.08  54:  4.12  55:  3.34  56:  4.00
  57:  3.92  58:  4.77  59:  3.90  60:  1.76  61:  1.73  62:  1.74  63:  1.75  64:  1.76
  65:  1.75  66:  1.73  67:  1.70  68:  1.91  69:  1.89  70:  1.88  71:  1.87  72:  1.87
 IR intensities (km·mol⁻¹)
   1:  0.06   2:  0.04   3:  0.05   4:  0.02   5:  0.00   6:  0.05   7:  1.63   8: 11.03
   9: 21.99  10:  1.33  11:  9.16  12: 10.04  13:  0.47  14: 59.09  15: 26.36  16: 81.57
  17: 62.01  18: 10.50  19:180.05  20: 73.57  21: 46.84  22:117.02  23:275.96  24: 10.28
  25:  6.60  26: 11.74  27: 23.50  28: 59.68  29: 20.47  30:  3.15  31: 10.47  32: 22.46
  33: 29.55  34:  9.96  35:212.63  36: 67.96  37: 41.70  38: 29.69  39: 33.80  40:163.03
  41:121.48  42: 36.48  43: 18.81  44: 19.00  45: 44.84  46: 13.46  47: 55.56  48: 31.03
  49:  1.75  50: 21.47  51:  7.82  52: 16.39  53: 48.32  54: 44.76  55:  7.59  56:  1.91
  57:115.68  58: 99.74  59:105.81  60:  4.52  61: 55.80  62: 62.49  63: 15.64  64: 15.00
  65: 23.85  66: 60.00  67: 29.20  68:387.05  69:121.66  70:194.60  71: 80.45  72: 17.73
 Raman intensities (Ä⁴*amu⁻¹)
   1:  0.00   2:  0.00   3:  0.00   4:  0.00   5:  0.00   6:  0.00   7:  0.00   8:  0.00
   9:  0.00  10:  0.00  11:  0.00  12:  0.00  13:  0.00  14:  0.00  15:  0.00  16:  0.00
  17:  0.00  18:  0.00  19:  0.00  20:  0.00  21:  0.00  22:  0.00  23:  0.00  24:  0.00
  25:  0.00  26:  0.00  27:  0.00  28:  0.00  29:  0.00  30:  0.00  31:  0.00  32:  0.00
  33:  0.00  34:  0.00  35:  0.00  36:  0.00  37:  0.00  38:  0.00  39:  0.00  40:  0.00
  41:  0.00  42:  0.00  43:  0.00  44:  0.00  45:  0.00  46:  0.00  47:  0.00  48:  0.00
  49:  0.00  50:  0.00  51:  0.00  52:  0.00  53:  0.00  54:  0.00  55:  0.00  56:  0.00
  57:  0.00  58:  0.00  59:  0.00  60:  0.00  61:  0.00  62:  0.00  63:  0.00  64:  0.00
  65:  0.00  66:  0.00  67:  0.00  68:  0.00  69:  0.00  70:  0.00  71:  0.00  72:  0.00
 output can be read by thermo (or use thermo option).
 writing <g98.out> molden fake output.
 recommended (thermochemical) frequency scaling factor: 1.0
           -------------------------------------------------
          |             Thermodynamic Functions             |
           -------------------------------------------------

Molecule has no symmetry elements
It seems to be the C1 point group
c1  symmetry found (for desy threshold:  0.10E+00) used in thermo

          ...................................................
          :                      SETUP                      :
          :.................................................:
          :  # frequencies                          66      :
          :  # imaginary freq.                       0      :
          :  linear?                             false      :
          :  only rotor calc.                    false      :
          :  symmetry                               c1      :
          :  rotational number                       1      :
          :  scaling factor                  1.0000000      :
          :  rotor cutoff                    0.0000000 cm⁻¹ :
          :  imag. cutoff                 -100.0000000 cm⁻¹ :
          :.................................................:

    mode    ω/cm⁻¹     T·S(HO)/kcal·mol⁻¹    T·S(FR)/kcal·mol⁻¹   T·S(vib)
   ------------------------------------------------------------------------
       1    101.66    -1.02034 (100.00%)    -0.84624 (  0.00%)    -1.02034
       2    121.12    -0.91901 (100.00%)    -0.79436 (  0.00%)    -0.91901
       3    171.67    -0.72067 (100.00%)    -0.69107 (  0.00%)    -0.72067
       4    200.28    -0.63520 (100.00%)    -0.64540 (  0.00%)    -0.63520
       5    216.83    -0.59196 (100.00%)    -0.62190 (  0.00%)    -0.59196
       6    250.28    -0.51539 (100.00%)    -0.57940 (  0.00%)    -0.51539
       7    266.93    -0.48181 (100.00%)    -0.56032 (  0.00%)    -0.48181
       8    288.99    -0.44122 (100.00%)    -0.53680 (  0.00%)    -0.44122
       9    295.45    -0.43010 (100.00%)    -0.53026 (  0.00%)    -0.43010
   ------------------------------------------------------------------------

   temp. (K)  partition function   enthalpy   heat capacity  entropy
                                   cal/mol     cal/K/mol   cal/K/mol   J/K/mol
 298.15  VIB   415.                 5449.153     40.352     30.255
         ROT  0.879E+06              888.752      2.981     30.179
         INT  0.364E+09             6337.905     43.333     60.434
         TR   0.234E+28             1481.254      4.968     41.454
         TOT                        7819.1594    48.3009   101.8880   426.2994

       T/K    H(0)-H(T)+PV         H(T)/Eh          T*S/Eh         G(T)/Eh
   ------------------------------------------------------------------------
    298.15    0.124606E-01    0.202166E+00    0.484103E-01    0.153756E+00
   ------------------------------------------------------------------------

         :::::::::::::::::::::::::::::::::::::::::::::::::::::
         ::                  THERMODYNAMIC                  ::
         :::::::::::::::::::::::::::::::::::::::::::::::::::::
         :: total free energy         -43.209440996365 Eh   ::
         ::.................................................::
         :: total energy              -43.363197099724 Eh   ::
         :: zero point energy           0.189705752141 Eh   ::
         :: G(RRHO) w/o ZPVE           -0.035949648783 Eh   ::
         :: G(RRHO) contrib.            0.153756103359 Eh   ::
         :::::::::::::::::::::::::::::::::::::::::::::::::::::

optimized geometry written to: xtbopt.coord


           -------------------------------------------------
          | TOTAL ENERGY              -43.363197099724 Eh   |
          | TOTAL ENTHALPY            -43.161030723910 Eh   |
          | TOTAL FREE ENERGY         -43.209440996365 Eh   |
          | GRADIENT NORM               0.000088368215 Eh/α |
          | HOMO-LUMO GAP              10.120672032514 eV   |
           -------------------------------------------------

------------------------------------------------------------------------
 * finished run on 2025/04/16 at 11:25:01.652     
------------------------------------------------------------------------
 total:
 * wall-time:     0 d,  0 h,  0 min,  3.363 sec
 *  cpu-time:     0 d,  0 h,  0 min,  3.302 sec
 * ratio c/w:     0.982 speedup
 SCF:
 * wall-time:     0 d,  0 h,  0 min,  0.071 sec
 *  cpu-time:     0 d,  0 h,  0 min,  0.029 sec
 * ratio c/w:     0.414 speedup
 analytical hessian:
 * wall-time:     0 d,  0 h,  0 min,  2.979 sec
 *  cpu-time:     0 d,  0 h,  0 min,  2.978 sec
 * ratio c/w:     0.999 speedup

