24
 energy: -43.360152848569 gnorm: 0.048441862454 xtb: 6.7.1 (edcfbbe)
C           -2.20830670524406       -0.91612545253609       -0.13946448969360
C           -1.15816051056663       -0.31596020036229        0.78956858768741
H           -1.63095737730914       -0.28748798759466        1.78009587987131
C           -0.74873087608411        1.14075785885033        0.49875637911649
H           -1.60662318583708        1.66260356302974        0.05533922376674
C            0.44163246834546        1.26199781922451       -0.46778992108547
H            0.78229490760740        2.30606401880728       -0.42968601874868
C            1.58893201510477        0.34075259288831       -0.02047709422171
H            2.38162129003796        0.35277571185585       -0.78357571699322
C            1.09513212213903       -1.09962208655028        0.13311892971876
H            1.85151822211605       -1.70135269622812        0.64721793481155
O           -0.03195225694206       -1.20283483575220        0.97409497601136
O            0.88515097934782       -1.68595028681574       -1.15325118577312
O            2.11623119548113        0.72454699933578        1.25718767333033
O            0.10413238008967        0.96484192742029       -1.82416101908907
O           -0.46216743561995        1.83017739928644        1.71352037957209
O           -1.82772285769519       -0.99281136598758       -1.51604887399413
H           -3.10685002804493       -0.29013224428435       -0.09889858239791
H           -2.46889199355458       -1.91456003047617        0.23634693844163
H            0.90598014731696       -0.96728307278303       -1.80587858168211
H            2.55612588930977        1.57644895182981        1.15061659539150
H           -0.72567036102608        0.44164990336429       -1.83375450122246
H            0.33637036699732        1.41958071553399        2.07896926453815
H           -1.09862794683534       -1.63671439333600       -1.55093887458582
24
 energy: -43.362480657239 gnorm: 0.024754034747 xtb: 6.7.1 (edcfbbe)
C           -2.20133611044792       -0.90965482305233       -0.14301254357119
C           -1.14832539542684       -0.32054707920318        0.80238350962555
H           -1.61169596488613       -0.30427685348757        1.79804533109798
C           -0.74782876136133        1.13620119712712        0.49318936780084
H           -1.60848582372319        1.65981368470180        0.05962057876179
C            0.44147469778207        1.25519796394807       -0.47299370286381
H            0.78494492634984        2.29929073986022       -0.44953965488162
C            1.59077270951336        0.34211362311592       -0.00846677332271
H            2.38585220105735        0.35199254801864       -0.76788617035784
C            1.08165822350059       -1.09541756530684        0.13276895171016
H            1.83568104859817       -1.70682922513555        0.64108196898598
O           -0.03093388648547       -1.20403010851486        0.97608886679408
O            0.85433594367586       -1.66903131413182       -1.14381398054436
O            2.10923090007229        0.74107605712258        1.25390015100748
O            0.10862626563731        0.95564071850563       -1.81723792840082
O           -0.45432146070991        1.81938969539761        1.69538809732740
O           -1.79974082887353       -0.98233869638617       -1.50079112430418
H           -3.09627232315407       -0.28131484074679       -0.11955289444882
H           -2.46247112669362       -1.91057611598196        0.21895874704184
H            0.86044538901644       -0.95655894323667       -1.80342426810156
H            2.55156595601877        1.59132323435270        1.14655145246747
H           -0.72452711895595        0.43957993653139       -1.83498760866363
H            0.33299119599651        1.39832384325407        2.07524805341153
H           -1.08118020736639       -1.63800486803190       -1.54061052380152
24
 energy: -43.363080407328 gnorm: 0.005526719006 xtb: 6.7.1 (edcfbbe)
C           -2.19831612172941       -0.90769373283828       -0.14757257114140
C           -1.13897004906635       -0.32327910574633        0.80668640191739
H           -1.59871949535478       -0.31088162279500        1.80380751264113
C           -0.74197307148077        1.13626997014322        0.49666146627247
H           -1.60672496945480        1.65475477445455        0.06708061484649
C            0.43810239844831        1.24735673798205       -0.48303468532563
H            0.78141783872826        2.29291024427612       -0.46780975521185
C            1.59187536317271        0.34153809532022       -0.00033604150266
H            2.38878740262054        0.34542271100533       -0.75845870554087
C            1.07704293185508       -1.09690201238280        0.13280615174586
H            1.83048703253726       -1.71609007809138        0.63699835656019
O           -0.02919678676319       -1.20378090857439        0.97397063473579
O            0.84848857447060       -1.65075422766870       -1.14015002128982
O            2.09824005675063        0.74592829459270        1.25232938854834
O            0.10746819985071        0.94200779180871       -1.81679181688599
O           -0.44497664580423        1.82189766751625        1.68654474705268
O           -1.78896389887409       -0.97837137112894       -1.49259269280103
H           -3.08596682459159       -0.27209984963550       -0.12917462466225
H           -2.46498760080282       -1.90631081219866        0.21418902536814
H            0.83833415529814       -0.93670512926712       -1.79971027783023
H            2.53942419324177        1.59739997800201        1.15096530291944
H           -0.73024256968070        0.43190242691860       -1.83975335363493
H            0.33072509958887        1.39265381383320        2.08360074522261
H           -1.07089476382597       -1.63581084680574       -1.53934789923382
24
 energy: -43.363141969559 gnorm: 0.002440341369 xtb: 6.7.1 (edcfbbe)
C           -2.19876313841619       -0.90652114188106       -0.14861907773689
C           -1.13660941761152       -0.32433042058580        0.80693892966111
H           -1.59850157786652       -0.31110051087733        1.80310739109063
C           -0.74044652908300        1.13649414327005        0.49673505206576
H           -1.60690277597114        1.65255484867190        0.06663471946367
C            0.43947376498219        1.24628618158867       -0.48559117676487
H            0.78304096164751        2.29231118622072       -0.47086906305484
C            1.59524876804175        0.34162414755377        0.00102334206780
H            2.39301297106473        0.34446757564403       -0.75716099195431
C            1.07902316251002       -1.09837617146596        0.13002117207306
H            1.83265583383312       -1.71836157237276        0.63370693081850
O           -0.02755376205982       -1.20465930691560        0.97209471088648
O            0.85455006264352       -1.64851371702164       -1.14322856453890
O            2.09560382090312        0.74591176005579        1.25397750904756
O            0.10656051457928        0.93688504272633       -1.81649314076285
O           -0.44333846054678        1.82344732842579        1.68433483216112
O           -1.79131345774160       -0.98231576559978       -1.49271373204379
H           -3.08299847989963       -0.26604676727834       -0.12865673834015
H           -2.47016179440936       -1.90195680538348        0.21924109576676
H            0.83371951398022       -0.93146762393342       -1.80066588280395
H            2.53187501061205        1.60066870142465        1.15749812777265
H           -0.73450510446037        0.43055162792099       -1.83787568406828
H            0.32797726525755        1.39183712507884        2.08703652280632
H           -1.07118670285497       -1.63802705654624       -1.53956838084256
24
 energy: -43.363174464902 gnorm: 0.002110608403 xtb: 6.7.1 (edcfbbe)
C           -2.19931434061522       -0.90553762468866       -0.14893990852560
C           -1.13379756922234       -0.32500716077447        0.80576660864903
H           -1.59759318014665       -0.31111883377737        1.80106251882065
C           -0.73798299054225        1.13709876237731        0.49674624632520
H           -1.60505234829598        1.65139561948573        0.06492211059667
C            0.44179940824204        1.24591020645240       -0.48784755745548
H            0.78512708546871        2.29230685939243       -0.47380069335515
C            1.59896041947766        0.34188468803522        0.00153059823467
H            2.39781522584831        0.34548523182702       -0.75616916846196
C            1.08268000754150       -1.09995883417139        0.12624993865864
H            1.83547086500030       -1.72121292519100        0.62973188621559
O           -0.02563240529480       -1.20598459357156        0.96925240321871
O            0.86141269107434       -1.64636986884616       -1.14783045811345
O            2.09401349282446        0.74431891666176        1.25591570947103
O            0.10670320814695        0.93135742322252       -1.81676468184417
O           -0.44239494169959        1.82537548396729        1.68344363693902
O           -1.79296183950808       -0.98941832752234       -1.49248439471766
H           -3.07926246311625       -0.25850874326114       -0.12919575610459
H           -2.47827480661198       -1.89707723813913        0.22548678366122
H            0.82409987750014       -0.92432313372924       -1.80072475437875
H            2.52161958643027        1.60442423089791        1.16548181507295
H           -0.73841964623333        0.43039647047403       -1.83613616231310
H            0.32352526122945        1.39060976255126        2.09218750721448
H           -1.07208014836350       -1.64468356295228       -1.53697632503791
24
 energy: -43.363185847294 gnorm: 0.001893608006 xtb: 6.7.1 (edcfbbe)
C           -2.19964633109521       -0.90447720688010       -0.14861677678140
C           -1.13249276887806       -0.32520793404011        0.80501945920571
H           -1.59573118317266       -0.31144199414774        1.80065469485143
C           -0.73677851816898        1.13703337504296        0.49620634035508
H           -1.60353360379007        1.65133106765147        0.06359922961325
C            0.44327606884147        1.24539257571170       -0.48834814870322
H            0.78606099644048        2.29191250895828       -0.47565537791501
C            1.60092078155622        0.34207120576943        0.00142379788983
H            2.40060411288866        0.34694011022524       -0.75542223692783
C            1.08507344359102       -1.10020923534283        0.12402946323143
H            1.83669112258687       -1.72210592931701        0.62791856182372
O           -0.02470105474728       -1.20664072453101        0.96709333908236
O            0.86556440293689       -1.64545294956666       -1.15027434159857
O            2.09393481697687        0.74319516159795        1.25690978633050
O            0.10726841285840        0.92830553747501       -1.81681193015174
O           -0.44197234373740        1.82565229613984        1.68294867821769
O           -1.79336232496256       -0.99330201993416       -1.49195421883266
H           -3.07734594857853       -0.25416375140756       -0.13056825112660
H           -2.48282683738219       -1.89399959612033        0.22826765888558
H            0.81704375827776       -0.92059240904690       -1.79990553943440
H            2.51507564511011        1.60690142738888        1.16946185286225
H           -0.74012918762814        0.43126289434296       -1.83545203402459
H            0.32062821704036        1.38831952153438        2.09464935051488
H           -1.07316122782987       -1.64936112278359       -1.53426545459764
24
 energy: -43.363195014218 gnorm: 0.001035656649 xtb: 6.7.1 (edcfbbe)
C           -2.20031056336836       -0.90240204518411       -0.14742458476241
C           -1.13070218263027       -0.32535616838279        0.80377143930190
H           -1.59091281954098       -0.31254027240841        1.80098091099694
C           -0.73466753446152        1.13642949274317        0.49507844857484
H           -1.60029070826144        1.65187440293756        0.06179519029439
C            0.44561905261882        1.24416325761567       -0.48851077424029
H            0.78700382363611        2.29092118796984       -0.47933367668934
C            1.60327499262805        0.34228366305827        0.00126547772344
H            2.40449219095019        0.34994828830022       -0.75358932312429
C            1.08899556821391       -1.10010698038261        0.12047011458269
H            1.83794058829033       -1.72301585842655        0.62594208642227
O           -0.02369560882583       -1.20792936605106        0.96243325995451
O            0.87289737030060       -1.64422087923544       -1.15386351564363
O            2.09417018431192        0.74177914809298        1.25846654028735
O            0.10908601123127        0.92322780216091       -1.81707139772766
O           -0.44059093918886        1.82537159369514        1.68223636957622
O           -1.79285602731826       -0.99847280130050       -1.49029909039414
H           -3.07445625197522       -0.24729748729083       -0.13381976162298
H           -2.48989748955863       -1.88906227455399        0.23162502852303
H            0.80380800385784       -0.91553335115498       -1.79776465051838
H            2.50288614226838        1.61186761722088        1.17486187741337
H           -0.74212975504981        0.43398642156922       -1.83561302829676
H            0.31631755855197        1.38291565612658        2.09829159598066
H           -1.07552115754607       -1.65746823839901       -1.52902063384168
24
 energy: -43.363196737088 gnorm: 0.000322324241 xtb: 6.7.1 (edcfbbe)
C           -2.20032813821111       -0.90260978184225       -0.14743459234167
C           -1.13137283261835       -0.32524143209683        0.80413010198725
H           -1.59120884484126       -0.31246932209577        1.80146792800522
C           -0.73525477722460        1.13631541248401        0.49523462607346
H           -1.60105376743663        1.65204067069174        0.06273837119258
C            0.44494001131047        1.24415483612404       -0.48807210008649
H            0.78638121819298        2.29090958115803       -0.47858072993695
C            1.60230697977550        0.34218763371365        0.00138054660988
H            2.40325541450972        0.34933967834591       -0.75372682609771
C            1.08798335770934       -1.09986727076193        0.12153383430933
H            1.83734932715663       -1.72238669805482        0.62721737347433
O           -0.02436555907781       -1.20801257140252        0.96275605025322
O            0.87192708429143       -1.64461615932576       -1.15268322609285
O            2.09435109831377        0.74252965162175        1.25807224841477
O            0.10910725215791        0.92440961373991       -1.81706270895991
O           -0.44046360050313        1.82491215458267        1.68247593052168
O           -1.79248913440952       -0.99639680769990       -1.49036989225141
H           -3.07546731900730       -0.24910227677196       -0.13348007351880
H           -2.48782484333913       -1.89021124517539        0.23022419139895
H            0.80683373687777       -0.91782072819583       -1.79799195422275
H            2.50498760257737        1.61126261881618        1.17282732044030
H           -0.74143801218968        0.43438922090130       -1.83630835755272
H            0.31803966115891        1.38350170641449        2.09685295059761
H           -1.07573546603915       -1.65585567645062       -1.53029310944725
24
 energy: -43.363197019491 gnorm: 0.000130803229 xtb: 6.7.1 (edcfbbe)
C           -2.20044391291330       -0.90260610810800       -0.14748632776479
C           -1.13135660207993       -0.32535806145078        0.80416669527580
H           -1.59113124833427       -0.31255366291758        1.80151237092960
C           -0.73511918077289        1.13618712604560        0.49529152548515
H           -1.60103478398213        1.65185529775415        0.06296299914229
C            0.44497720112448        1.24418390117763       -0.48809624082409
H            0.78636429144225        2.29100994465816       -0.47850334697567
C            1.60224858238838        0.34221239749797        0.00160226651711
H            2.40317094663222        0.34917113591181       -0.75357416286564
C            1.08797852459952       -1.09993849710209        0.12168229363097
H            1.83751969022321       -1.72222981835939        0.62755738257208
O           -0.02449460666335       -1.20841120250660        0.96240694874616
O            0.87268862822958       -1.64475920004257       -1.15255312369217
O            2.09435866878933        0.74280389844956        1.25816399670558
O            0.10943362670283        0.92435876323538       -1.81710700882551
O           -0.44024067353130        1.82484807075257        1.68245503568857
O           -1.79251003224471       -0.99612916253748       -1.49039007042410
H           -3.07555694751442       -0.24906184687053       -0.13343407013927
H           -2.48786247745476       -1.89025477984668        0.23018283159749
H            0.80582676725665       -0.91812105017097       -1.79807828931424
H            2.50454684604424        1.61178182393329        1.17279055068339
H           -0.74126242156131        0.43466219731559       -1.83656841389822
H            0.31855809047638        1.38368281737480        2.09670368935801
H           -1.07619852772258       -1.65597117547374       -1.53077962883843
24
 energy: -43.363197099615 gnorm: 0.000088486386 xtb: 6.7.1 (edcfbbe)
C           -2.20053931497497       -0.90259150970003       -0.14756302723270
C           -1.13138280561278       -0.32536750262343        0.80406700370386
H           -1.59116099179466       -0.31251929641094        1.80140094888216
C           -0.73513381175267        1.13618477346407        0.49528006966709
H           -1.60108714329594        1.65184813272208        0.06298601808275
C            0.44505677139363        1.24414376549593       -0.48800455165385
H            0.78638983093065        2.29099518867298       -0.47832034423722
C            1.60239750900257        0.34223826275577        0.00168457247668
H            2.40326636650736        0.34900615834333       -0.75356519023853
C            1.08808104249858       -1.09995686181366        0.12182594119196
H            1.83761507924067       -1.72220942111581        0.62777910454873
O           -0.02463659537482       -1.20865560259320        0.96212491270840
O            0.87345916830762       -1.64466139760704       -1.15257170510930
O            2.09457791907948        0.74287473964472        1.25822123790007
O            0.10948950755074        0.92423530016536       -1.81699801880313
O           -0.44025666378373        1.82476650212224        1.68251257109386
O           -1.79262313192276       -0.99621836095023       -1.49049167559182
H           -3.07566571433929       -0.24904106042357       -0.13348303891698
H           -2.48797892563903       -1.89022041159750        0.23017813716480
H            0.80552802437845       -0.91793304139658       -1.79789312297526
H            2.50448680084457        1.61201788309857        1.17277557162969
H           -0.74150930078550        0.43506949099522       -1.83639902494486
H            0.31896596328154        1.38395193212201        2.09641934378606
H           -1.07687913460556       -1.65659485465018       -1.53105783036240
