
                                 *****************
                                 * O   R   C   A *
                                 *****************

                                            #,                                       
                                            ###                                      
                                            ####                                     
                                            #####                                    
                                            ######                                   
                                           ########,                                 
                                     ,,################,,,,,                         
                               ,,#################################,,                 
                          ,,##########################################,,             
                       ,#########################################, ''#####,          
                    ,#############################################,,   '####,        
                  ,##################################################,,,,####,       
                ,###########''''           ''''###############################       
              ,#####''   ,,,,##########,,,,          '''####'''          '####       
            ,##' ,,,,###########################,,,                        '##       
           ' ,,###''''                  '''############,,,                           
         ,,##''                                '''############,,,,        ,,,,,,###''
      ,#''                                            '''#######################'''  
     '                                                          ''''####''''         
             ,#######,   #######,   ,#######,      ##                                
            ,#'     '#,  ##    ##  ,#'     '#,    #''#        ,####,   ,####,        
            ##       ##  ##   ,#'  ##            #'  '#       #'       #'  '#        
            ##       ##  #######   ##           ,######,      #####,   #    #        
            '#,     ,#'  ##    ##  '#,     ,#' ,#      #,     #,   #   #,  ,#        
             '#######'   ##     ##  '#######'  #'      '#     '####' # '####'        



                #########################################################
                #                        -***-                          #
                #          Department of theory and spectroscopy        #
                #                                                       #
                #                      Frank Neese                      #
                #                                                       #
                #     Directorship, Architecture, Infrastructure        #
                #                    SHARK, DRIVERS                     #
                #        Core code/Algorithms in most modules           #
                #                                                       #
                #        Max Planck Institute fuer Kohlenforschung      #
                #                Kaiser Wilhelm Platz 1                 #
                #                 D-45470 Muelheim/Ruhr                 #
                #                      Germany                          #
                #                                                       #
                #                  All rights reserved                  #
                #                        -***-                          #
                #########################################################


                         Program Version 6.0.0  -   RELEASE  -


 With contributions from (in alphabetic order):
   Daniel Aravena         : Magnetic Suceptibility
   Michael Atanasov       : Ab Initio Ligand Field Theory (pilot matlab implementation)
   Alexander A. Auer      : GIAO ZORA, VPT2 properties, NMR spectrum
   Ute Becker             : All parallelization in ORCA, NUMFREQ, NUMCALC
   Giovanni Bistoni       : ED, misc. LED, open-shell LED, HFLD
   Martin Brehm           : Molecular dynamics
   Dmytro Bykov           : pre 5.0 version of the SCF Hessian
   Marcos Casanova-Páez   : Triplet and SCS-CIS(D). UHF-(DLPNO)-IP/EA/STEOM-CCSD. UHF-CVS-IP/STEOM-CCSD
   Vijay G. Chilkuri      : MRCI spin determinant printing, contributions to CSF-ICE
   Pauline Colinet        : FMM embedding
   Dipayan Datta          : RHF DLPNO-CCSD density
   Achintya Kumar Dutta   : EOM-CC, STEOM-CC
   Nicolas Foglia         : Exact transition moments, OPA infrastructure, MCD improvements
   Dmitry Ganyushin       : Spin-Orbit,Spin-Spin,Magnetic field MRCI
   Miquel Garcia          : C-PCM and meta-GGA Hessian, CCSD/C-PCM, Gaussian charge scheme
   Tiago L. C. Gouveia    : GS-ROHF, GS-ROCIS
   Yang Guo               : DLPNO-NEVPT2, F12-NEVPT2, CIM, IAO-localization
   Andreas Hansen         : Spin unrestricted coupled pair/coupled cluster methods
   Ingolf Harden          : AUTO-CI MPn and infrastructure 
   Benjamin Helmich-Paris : MC-RPA, TRAH-(SCF,CASSCF), AVAS, COSX integrals, SCF dyn. polar.
   Lee Huntington         : MR-EOM, pCC
   Robert Izsak           : Overlap fitted RIJCOSX, COSX-SCS-MP3, EOM
   Riya Kayal             : Wick's Theorem for AUTO-CI, AUTO-CI UHF-CCSDT
   Emily Kempfer          : AUTO-CI, RHF CISDT and CCSDT
   Christian Kollmar      : KDIIS, OOCD, Brueckner-CCSD(T), CCSD density, CASPT2, CASPT2-K, improved NEVPT2
   Axel Koslowski         : Symmetry handling
   Simone Kossmann        : Meta GGA functionals, TD-DFT gradient, OOMP2, (MP2 Hessian; deprecated post 5.0)
   Lucas Lang             : DCDCAS
   Marvin Lechner         : AUTO-CI (C++ implementation), FIC-MRCC
   Spencer Leger          : CASSCF response
   Dagmar Lenk            : GEPOL surface, SMD, ORCA-2-JSON
   Dimitrios Liakos       : Extrapolation schemes; Compound Job, initial MDCI parallelization
   Dimitrios Manganas     : Further ROCIS development; embedding schemes. LFT, Crystal Embedding
   Dimitrios Pantazis     : SARC Basis sets
   Anastasios Papadopoulos: AUTO-CI, single reference methods and gradients
   Taras Petrenko         : pre 6.0 DFT Hessian and TD-DFT gradient, (ASA, deprecated), ECA, 1-Electron XAS/XES, NRVS
   Peter Pinski           : DLPNO-MP2, DLPNO-MP2 Gradient
   Christoph Reimann      : Effective Core Potentials
   Marius Retegan         : Local ZFS, SOC
   Christoph Riplinger    : Optimizer, TS searches, QM/MM, DLPNO-CCSD(T), (RO)-DLPNO pert. Triples
   Michael Roemelt        : Original ROCIS implementation
   Masaaki Saitow         : Open-shell DLPNO-CCSD energy and density
   Barbara Sandhoefer     : DKH picture change effects
   Kantharuban Sivalingam : CASSCF convergence/infrastructure, NEVPT2 and variants, FIC-MRCI
   Bernardo de Souza      : ESD, SOC TD-DFT
   Georgi Stoychev        : AutoAux, RI-MP2 NMR, DLPNO-MP2 response, X2C
   Van Anh Tran           : RI-MP2 g-tensors
   Willem Van den Heuvel  : Paramagnetic NMR
   Zikuan Wang            : NOTCH, Electric field optimization 
   Frank Wennmohs         : Technical directorship and infrastructure
   Hang Xu                : AUTO-CI-Response properties 


 We gratefully acknowledge several colleagues who have allowed us to
 interface, adapt or use parts of their codes:
   Stefan Grimme, W. Hujo, H. Kruse, P. Pracht,  : VdW corrections, initial TS optimization,
                  C. Bannwarth, S. Ehlert,         DFT functionals, gCP, sTDA/sTD-DF
                  L. Wittmann, M. Mueller
   Ed Valeev, F. Pavosevic, A. Kumar             : LibInt (2-el integral package), F12 methods
   Garnet Chan, S. Sharma, J. Yang, R. Olivares  : DMRG
   Ulf Ekstrom                                   : XCFun DFT Library
   Mihaly Kallay                                 : mrcc  (arbitrary order and MRCC methods)
   Frank Weinhold                                : gennbo (NPA and NBO analysis)
   Simon Mueller                                 : openCOSMO-RS
   Christopher J. Cramer and Donald G. Truhlar   : smd solvation model
   Lars Goerigk                                  : TD-DFT with DH, B97 family of functionals
   V. Asgeirsson, H. Jonsson                     : NEB implementation
   FAccTs GmbH                                   : IRC, NEB, NEB-TS, DLPNO-Multilevel, CI-OPT
                                                   MM, QMMM, 2- and 3-layer-ONIOM, Crystal-QMMM,
                                                   LR-CPCM, SF, NACMEs, symmetry and pop. for TD-DFT,
                                                   nearIR, NL-DFT gradient (VV10), updates on ESD,
                                                   ML-optimized integration grids, MBIS, APM,
                                                   GOAT, DOCKER, SOLVATOR, interface openCOSMO-RS
   S Lehtola, MJT Oliveira, MAL Marques          : LibXC Library
   Liviu Ungur et al                             : ANISO software


 Your calculation uses the libint2 library for the computation of 2-el integrals
 For citations please refer to: http://libint.valeyev.net

 Your ORCA version has been built with support for libXC version: 6.2.2
 For citations please refer to: https://libxc.gitlab.io

 This ORCA versions uses:
   CBLAS   interface :  Fast vector & matrix operations
   LAPACKE interface :  Fast linear algebra routines
   SCALAPACK package :  Parallel linear algebra routines
   Shared memory     :  Shared parallel matrices
   BLAS/LAPACK       :  OpenBLAS 0.3.27  USE64BITINT DYNAMIC_ARCH NO_AFFINITY SkylakeX SINGLE_THREADED
        Core in use  :  SkylakeX
   Copyright (c) 2011-2014, The OpenBLAS Project




***************************************
The coordinates will be read from file: censo.xyz
***************************************


Your calculation utilizes the geometrical counterpoise correction gCP
Please cite in your paper:
H.Kruse, S. Grimme J.Chem.Phys., 136, (2012), 154101 
   

Your calculation utilizes the atom-pairwise dispersion correction
based on EEQ partial charges (D4)


================================================================================

----- Orbital basis set information -----
Your calculation utilizes the basis: def2-TZVP
   F. Weigend and R. Ahlrichs, Phys. Chem. Chem. Phys. 7, 3297 (2005).

----- AuxJ basis set information -----
Your calculation utilizes the basis: def2-mTZVPP/J
   Stefan Grimme, Andreas Hansen, Sebastian Ehlert, and Jan-Michael Mewes 
   J. Chem. Phys. 154, 000000 (2021). DOI: 10.1063/5.0040021

================================================================================
                                        WARNINGS
                       Please study these warnings very carefully!
================================================================================

Using LibXC functional ID 497 : Re-regularized SCAN exchange by Furness et al
[ 1]  J. W. Furness, A. D. Kaplan, J. Ning, J. P. Perdew, and J. Sun.,  J. Phys. Chem. Lett. 11, 8208-8215 (2020)
[ 2]  J. W. Furness, A. D. Kaplan, J. Ning, J. P. Perdew, and J. Sun.,  J. Phys. Chem. Lett. 11, 9248-9248 (2020)
Using LibXC functional ID 498 : Re-regularized SCAN correlation by Furness et al
[ 1]  J. W. Furness, A. D. Kaplan, J. Ning, J. P. Perdew, and J. Sun.,  J. Phys. Chem. Lett. 11, 8208-8215 (2020)
[ 2]  J. W. Furness, A. D. Kaplan, J. Ning, J. P. Perdew, and J. Sun.,  J. Phys. Chem. Lett. 11, 9248-9248 (2020)
Using LibXC functional ID 497 : Re-regularized SCAN exchange by Furness et al
[ 1]  J. W. Furness, A. D. Kaplan, J. Ning, J. P. Perdew, and J. Sun.,  J. Phys. Chem. Lett. 11, 8208-8215 (2020)
[ 2]  J. W. Furness, A. D. Kaplan, J. Ning, J. P. Perdew, and J. Sun.,  J. Phys. Chem. Lett. 11, 9248-9248 (2020)
Using LibXC functional ID 498 : Re-regularized SCAN correlation by Furness et al
[ 1]  J. W. Furness, A. D. Kaplan, J. Ning, J. P. Perdew, and J. Sun.,  J. Phys. Chem. Lett. 11, 8208-8215 (2020)
[ 2]  J. W. Furness, A. D. Kaplan, J. Ning, J. P. Perdew, and J. Sun.,  J. Phys. Chem. Lett. 11, 9248-9248 (2020)

================================================================================
                                       INPUT FILE
================================================================================
NAME = censo.inp
|  1> ! r2SCAN-3c DEF2-TZVP FREQ
|  2> * xyzfile 0 1 censo.xyz
|  3> 
|  4>                          ****END OF INPUT****
================================================================================

                       ****************************
                       * Single Point Calculation *
                       ****************************

---------------------------------
CARTESIAN COORDINATES (ANGSTROEM)
---------------------------------
  C     -1.612705   -0.124763    0.475563
  C     -0.663022    0.507340   -0.539027
  C      0.683594   -0.195176   -0.620464
  O      1.443272   -0.103355    0.603128
  H     -1.789145   -1.180899    0.241417
  H     -1.214768   -0.066186    1.494887
  H     -2.580918    0.385376    0.476807
  H     -0.500484    1.565660   -0.299590
  H     -1.113213    0.472068   -1.539349
  H      0.543830   -1.251648   -0.893535
  H      1.308404    0.271844   -1.388019
  H      0.966431   -0.600546    1.279375

----------------------------
CARTESIAN COORDINATES (A.U.)
----------------------------
  NO LB      ZA    FRAG     MASS         X           Y           Z
   0 C     6.0000    0    12.011   -3.047570   -0.235769    0.898684
   1 C     6.0000    0    12.011   -1.252931    0.958733   -1.018614
   2 C     6.0000    0    12.011    1.291805   -0.368829   -1.172507
   3 O     8.0000    0    15.999    2.727390   -0.195312    1.139748
   4 H     1.0000    0     1.008   -3.380994   -2.231576    0.456212
   5 H     1.0000    0     1.008   -2.295580   -0.125074    2.824927
   6 H     1.0000    0     1.008   -4.877228    0.728255    0.901036
   7 H     1.0000    0     1.008   -0.945777    2.958669   -0.566143
   8 H     1.0000    0     1.008   -2.103668    0.892078   -2.908947
   9 H     1.0000    0     1.008    1.027689   -2.365272   -1.688537
  10 H     1.0000    0     1.008    2.472525    0.513711   -2.622976
  11 H     1.0000    0     1.008    1.826290   -1.134867    2.417668

--------------------------------
INTERNAL COORDINATES (ANGSTROEM)
--------------------------------
 C      0   0   0     0.000000000000     0.00000000     0.00000000
 C      1   0   0     1.526710328028     0.00000000     0.00000000
 C      2   1   0     1.521031169222   113.27031178     0.00000000
 O      3   2   1     1.443163443881   113.03266540   295.52068150
 H      1   2   3     1.096073846503   110.92292794   302.02621247
 H      1   2   3     1.095813101416   111.72485389    62.56152126
 H      1   2   3     1.094385847696   110.98281472   182.11715316
 H      2   1   3     1.097174444999   110.27287932   237.50673273
 H      2   1   3     1.097523789021   109.70891741   120.02497343
 H      3   2   1     1.100106675145   110.14276906    58.72669795
 H      3   2   1     1.094366059662   110.23763396   177.75069221
 H      4   3   2     0.965342241516   107.52689643    66.15445647

---------------------------
INTERNAL COORDINATES (A.U.)
---------------------------
 C      0   0   0     0.000000000000     0.00000000     0.00000000
 C      1   0   0     2.885064405803     0.00000000     0.00000000
 C      2   1   0     2.874332350987   113.27031178     0.00000000
 O      3   2   1     2.727183675421   113.03266540   295.52068150
 H      1   2   3     2.071279392444   110.92292794   302.02621247
 H      1   2   3     2.070786655639   111.72485389    62.56152126
 H      1   2   3     2.068089536985   110.98281472   182.11715316
 H      2   1   3     2.073359222185   110.27287932   237.50673273
 H      2   1   3     2.074019386714   109.70891741   120.02497343
 H      3   2   1     2.078900334123   110.14276906    58.72669795
 H      3   2   1     2.068052143020   110.23763396   177.75069221
 H      4   3   2     1.824232461972   107.52689643    66.15445647

---------------------
BASIS SET INFORMATION
---------------------
There are 3 groups of distinct atoms

 Group   1 Type C   : 11s6p2d1f contracted to 5s3p2d1f pattern {62111/411/11/1}
 Group   2 Type O   : 11s6p2d1f contracted to 5s3p2d1f pattern {62111/411/11/1}
 Group   3 Type H   : 5s1p contracted to 3s1p pattern {311/1}

Atom   0C    basis set group =>   1
Atom   1C    basis set group =>   1
Atom   2C    basis set group =>   1
Atom   3O    basis set group =>   2
Atom   4H    basis set group =>   3
Atom   5H    basis set group =>   3
Atom   6H    basis set group =>   3
Atom   7H    basis set group =>   3
Atom   8H    basis set group =>   3
Atom   9H    basis set group =>   3
Atom  10H    basis set group =>   3
Atom  11H    basis set group =>   3
---------------------------------
AUXILIARY/J BASIS SET INFORMATION
---------------------------------
There are 3 groups of distinct atoms

 Group   1 Type C   : 8s3p3d contracted to 6s3p3d pattern {311111/111/111}
 Group   2 Type O   : 8s3p3d contracted to 6s3p3d pattern {311111/111/111}
 Group   3 Type H   : 5s2p1d contracted to 3s1p1d pattern {311/2/1}

Atom   0C    basis set group =>   1
Atom   1C    basis set group =>   1
Atom   2C    basis set group =>   1
Atom   3O    basis set group =>   2
Atom   4H    basis set group =>   3
Atom   5H    basis set group =>   3
Atom   6H    basis set group =>   3
Atom   7H    basis set group =>   3
Atom   8H    basis set group =>   3
Atom   9H    basis set group =>   3
Atom  10H    basis set group =>   3
Atom  11H    basis set group =>   3
------------------------------------------------------------------------------
                             ORCA STARTUP CALCULATIONS
                           -- RI-GTO INTEGRALS CHOSEN --
------------------------------------------------------------------------------
------------------------------------------------------------------------------
                   ___                                                        
                  /   \      - P O W E R E D   B Y -                         
                 /     \                                                     
                 |  |  |   _    _      __       _____    __    __             
                 |  |  |  | |  | |    /  \     |  _  \  |  |  /  |          
                  \  \/   | |  | |   /    \    | | | |  |  | /  /          
                 / \  \   | |__| |  /  /\  \   | |_| |  |  |/  /          
                |  |  |   |  __  | /  /__\  \  |    /   |      \           
                |  |  |   | |  | | |   __   |  |    \   |  |\   \          
                \     /   | |  | | |  |  |  |  | |\  \  |  | \   \       
                 \___/    |_|  |_| |__|  |__|  |_| \__\ |__|  \__/        
                                                                              
                      - O R C A' S   B I G   F R I E N D -                    
                                      &                                       
                       - I N T E G R A L  F E E D E R -                       
                                                                              
 v1 FN, 2020, v2 2021, v3 2022-2024                                           
------------------------------------------------------------------------------


----------------------
SHARK INTEGRAL PACKAGE
----------------------

Number of atoms                             ...     12
Number of basis functions                   ...    172
Number of shells                            ...     76
Maximum angular momentum                    ...      3
Integral batch strategy                     ... SHARK/LIBINT Hybrid
RI-J (if used) integral strategy            ... SPLIT-RIJ (Revised 2003 algorithm where possible)
Printlevel                                  ...      1
Contraction scheme used                     ... SEGMENTED contraction
Prescreening option                         ... SCHWARTZ
   Thresh                                   ... 1.000e-10
   Tcut                                     ... 1.000e-11
   Tpresel                                  ... 1.000e-11 
Coulomb Range Separation                    ... NOT USED
Exchange Range Separation                   ... NOT USED
Multipole approximations                    ... NOT USED
Finite Nucleus Model                        ... NOT USED
CABS basis                                  ... NOT available
Auxiliary Coulomb fitting basis             ... AVAILABLE
   # of basis functions in Aux-J            ...    208
   # of shells in Aux-J                     ...     88
   Maximum angular momentum in Aux-J        ...      2
Auxiliary J/K fitting basis                 ... NOT available
Auxiliary Correlation fitting basis         ... NOT available
Auxiliary 'external' fitting basis          ... NOT available

Checking pre-screening integrals            ... done (  0.0 sec) Dimension = 76
Check shell pair data                       ... done (  0.0 sec)
Shell pair information
Shell pair cut-off parameter TPreSel        ...   1.0e-11
Total number of shell pairs                 ...      2926
Shell pairs after pre-screening             ...      2849
Total number of primitive shell pairs       ...      8368
Primitive shell pairs kept                  ...      6654
          la=0 lb=0:    946 shell pairs
          la=1 lb=0:    860 shell pairs
          la=1 lb=1:    209 shell pairs
          la=2 lb=0:    344 shell pairs
          la=2 lb=1:    159 shell pairs
          la=2 lb=2:     36 shell pairs
          la=3 lb=0:    173 shell pairs
          la=3 lb=1:     80 shell pairs
          la=3 lb=2:     32 shell pairs
          la=3 lb=3:     10 shell pairs

Calculating one electron integrals          ... done (  0.0 sec)
Calculating RI/J V-Matrix + Cholesky decomp.... done (  0.0 sec)
Calculating Nuclear repulsion               ... done (  0.0 sec) ENN=    132.109424318671 Eh

Diagonalization of the overlap matrix:
Smallest eigenvalue                        ... 3.461e-04
Time for diagonalization                   ...    0.003 sec
Threshold for overlap eigenvalues          ... 1.000e-07
Number of eigenvalues below threshold      ... 0
Time for construction of square roots      ...    0.015 sec
Total time needed                          ...    0.028 sec

-------------------
DFT GRID GENERATION
-------------------

General Integration Accuracy     IntAcc      ... 4.388
Radial Grid Type                 RadialGrid  ... OptM3 with GC (2021)
Angular Grid (max. ang.)         AngularGrid ... 4 (Lebedev-302)
Angular grid pruning method      GridPruning ... 4 (adaptive)
Weight generation scheme         WeightScheme... mBecke (2022)
Basis function cutoff            BFCut       ... 1.0000e-10
Integration weight cutoff        WCut        ... 1.0000e-14
Partially contracted basis set               ... off
Rotationally invariant grid construction     ... off
Angular grids for H and He will be reduced by one unit

Total number of grid points                  ...    50064
Total number of batches                      ...      789
Average number of points per batch           ...       63
Average number of grid points per atom       ...     4172
Initializing property integral containers    ... done (  0.0 sec)

SHARK setup successfully completed in   0.7 seconds

Maximum memory used throughout the entire STARTUP-calculation: 23.7 MB
-------------------------------------------------------------------------------
                                 ORCA GUESS
                   Start orbitals & Density for SCF / CASSCF
-------------------------------------------------------------------------------

------------
SCF SETTINGS
------------
Hamiltonian:
 Density Functional     Method          .... DFT(GTOs)
  Functional kind                       .... Exchange
  Functional name                       .... Re-regularized SCAN exchange by Furness et al
  Functional family                     .... MGGA
  Functional refs                              
    [ 0] J. W. Furness, A. D. Kaplan, J. Ning, J. P. Perdew, and J. Sun.,  J. Phys. Chem. Lett. 11, 8208-8215 (2020), doi: 10.1021/acs.jpclett.0c02405
    [ 1] J. W. Furness, A. D. Kaplan, J. Ning, J. P. Perdew, and J. Sun.,  J. Phys. Chem. Lett. 11, 9248-9248 (2020), doi: 10.1021/acs.jpclett.0c03077
  Functional external parameters        .... 6
    Parameter  0 _c1        =  6.670000e-01 : c1 parameter        
    Parameter  1 _c2        =  8.000000e-01 : c2 parameter        
    Parameter  2 _d         =  1.240000e+00 : d parameter         
    Parameter  3 _k1        =  6.500000e-02 : k1 parameter        
    Parameter  4 _eta       =  1.000000e-03 : eta parameter       
    Parameter  5 _dp2       =  3.610000e-01 : dp2 parameter       
  Functional kind                       .... Correlation
  Functional name                       .... Re-regularized SCAN correlation by Furness et al
  Functional family                     .... MGGA
  Functional refs                              
    [ 0] J. W. Furness, A. D. Kaplan, J. Ning, J. P. Perdew, and J. Sun.,  J. Phys. Chem. Lett. 11, 8208-8215 (2020), doi: 10.1021/acs.jpclett.0c02405
    [ 1] J. W. Furness, A. D. Kaplan, J. Ning, J. P. Perdew, and J. Sun.,  J. Phys. Chem. Lett. 11, 9248-9248 (2020), doi: 10.1021/acs.jpclett.0c03077
  Functional external parameters        .... 1
    Parameter  0 _eta       =  1.000000e-03 : Regularization parameter
 Gradients option       PostSCFGGA      .... off
 RI-approximation to the Coulomb term is turned on
   Number of AuxJ basis functions       .... 208


General Settings:
 Integral files         IntName         .... censo
 Hartree-Fock type      HFTyp           .... RHF
 Total Charge           Charge          ....    0
 Multiplicity           Mult            ....    1
 Number of Electrons    NEL             ....   34
 Basis Dimension        Dim             ....  172
 Nuclear Repulsion      ENuc            ....    132.1094243187 Eh

Convergence Acceleration:
 AO-DIIS                CNVDIIS         .... on
   Start iteration      DIISMaxIt       ....    12
   Startup error        DIISStart       ....  0.200000
   # of expansion vecs  DIISMaxEq       ....     5
   Bias factor          DIISBfac        ....   1.050
   Max. coefficient     DIISMaxC        ....  10.000
 MO-DIIS                CNVKDIIS        .... off
 Trust-Rad. Augm. Hess. CNVTRAH         .... auto
   Auto Start mean grad. ratio tolernc. ....  1.125000
   Auto Start start iteration           ....    50
   Auto Start num. interpolation iter.  ....    10
   Max. Number of Micro iterations      ....    24
   Max. Number of Macro iterations      .... Maxiter - #DIIS iter
   Number of Davidson start vectors     ....     2
   Converg. threshold    (grad. norm)   ....   5.000e-05
   Grad. Scal. Fac. for Micro threshold ....   0.100
   Minimum threshold for Micro iter.    ....   1.000e-02
   NR start threshold (gradient norm)   ....   1.000e-04
   Initial trust radius                 ....   0.400
   Minimum AH scaling param. (alpha)    ....   1.000
   Maximum AH scaling param. (alpha)    .... 1000.000
   Quad. conv. algorithm                .... NR
   White noise on init. David. guess    .... on
   Maximum white noise                  ....   0.010
   Pseudo random numbers                .... off
   Inactive MOs                         .... canonical
   Orbital update algorithm             .... Taylor
   Preconditioner                       .... Diag
   Full preconditioner red. dimension   ....   250
   COSX micro iterations for RIJONX calc.... off
 SOSCF                  CNVSOSCF        .... on
   Start iteration      SOSCFMaxIt      ....   150
   Startup grad/error   SOSCFStart      ....  0.003300
   Hessian update       SOSCFHessUp     .... L-BFGS
 Level Shifting         CNVShift        .... on
   Level shift para.    LevelShift      ....    0.2500
   Turn off err/grad.   ShiftErr        ....    0.0010
 Zerner damping         CNVZerner       .... off
 Static damping         CNVDamp         .... on
   Fraction old density DampFac         ....    0.7000
   Max. Damping (<1)    DampMax         ....    0.9800
   Min. Damping (>=0)   DampMin         ....    0.0000
   Turn off err/grad.   DampErr         ....    0.1000

SCF Procedure:
 Maximum # iterations   MaxIter         ....   125
 SCF integral mode      SCFMode         .... Direct
   Integral package                     .... SHARK and LIBINT hybrid scheme
 Reset frequency        DirectResetFreq ....    20
 Integral Threshold     Thresh          ....  1.000e-10 Eh
 Primitive CutOff       TCut            ....  1.000e-11 Eh

Convergence Tolerance:
 Convergence Check Mode ConvCheckMode   .... Total+1el-Energy
 Convergence forced     ConvForced      .... 0
 Energy Change          TolE            ....  1.000e-06 Eh
 1-El. energy change                    ....  1.000e-03 Eh
 Orbital Gradient       TolG            ....  5.000e-05
 Orbital Rotation angle TolX            ....  5.000e-05
 DIIS Error             TolErr          ....  1.000e-06

------------------------------
INITIAL GUESS: MODEL POTENTIAL
------------------------------
Loading Hartree-Fock densities                     ... done
Calculating cut-offs                               ... done
Initializing the effective Hamiltonian             ... done
Setting up the integral package (SHARK)            ... done
Starting the Coulomb interaction                   ... done (   0.1 sec)
Making the grid                                    ... done (   0.1 sec)
Mapping shells                                     ... done
Starting the XC term evaluation                    ... done (   0.1 sec)
  promolecular density results
     # of electrons  =     33.997977659
     EX              =    -25.838819381
     EC              =     -1.099167191
     EX+EC           =    -26.937986572
Transforming the Hamiltonian                       ... done (   0.0 sec)
Diagonalizing the Hamiltonian                      ... done (   0.0 sec)
Back transforming the eigenvectors                 ... done (   0.0 sec)
Now organizing SCF variables                       ... done
                      ------------------
                      INITIAL GUESS DONE (   0.4 sec)
                      ------------------
             **** ENERGY FILE WAS UPDATED (censo.en.tmp) ****
Finished Guess after   0.6 sec
Maximum memory used throughout the entire GUESS-calculation: 13.5 MB

-------------------------------------------------------------------------------------------
                                      ORCA LEAN-SCF
                              memory conserving SCF solver
-------------------------------------------------------------------------------------------

----------------------------------------D-I-I-S--------------------------------------------
Iteration    Energy (Eh)           Delta-E    RMSDP     MaxDP     DIISErr   Damp  Time(sec)
-------------------------------------------------------------------------------------------
               ***  Starting incremental Fock matrix formation  ***
    1    -194.1551934427520507     0.00e+00  2.04e-03  4.40e-02  2.48e-01  0.700   1.7
    2    -194.2329939894370057    -7.78e-02  1.47e-03  2.71e-02  9.61e-02  0.700   1.6
                               ***Turning on AO-DIIS***
    3    -194.2608926669234677    -2.79e-02  5.56e-04  1.02e-02  2.99e-02  0.700   1.6
    4    -194.2776407910830869    -1.67e-02  8.44e-04  1.45e-02  1.39e-02  0.000   1.5
    5    -194.3153681375027020    -3.77e-02  2.61e-04  5.72e-03  9.25e-03  0.000   1.5
                              *** Initializing SOSCF ***
---------------------------------------S-O-S-C-F--------------------------------------
Iteration    Energy (Eh)           Delta-E    RMSDP     MaxDP     MaxGrad    Time(sec)
--------------------------------------------------------------------------------------
    6    -194.3156969124114255    -3.29e-04  9.75e-05  2.40e-03  2.05e-03     1.5
               *** Restarting incremental Fock matrix formation ***
    7    -194.3157209762248669    -2.41e-05  8.99e-05  2.02e-03  2.94e-04     1.6
    8    -194.3157178351185905     3.14e-06  2.79e-05  6.59e-04  5.20e-04     1.4
    9    -194.3157240768788654    -6.24e-06  6.58e-06  1.04e-04  2.87e-05     1.4
   10    -194.3157240860514605    -9.17e-09  2.73e-06  4.69e-05  2.88e-05     1.3
                 **** Energy Check signals convergence ****

               *****************************************************
               *                     SUCCESS                       *
               *           SCF CONVERGED AFTER  10 CYCLES          *
               *****************************************************

             **** ENERGY FILE WAS UPDATED (censo.en.tmp) ****

----------------
TOTAL SCF ENERGY
----------------

Total Energy       :       -194.31572408605146 Eh           -5287.59967 eV

Components:
Nuclear Repulsion  :        132.10942431867144 Eh            3594.88020 eV
Electronic Energy  :       -326.42514840472290 Eh           -8882.47986 eV
One Electron Energy:       -524.26209464554017 Eh          -14265.89686 eV
Two Electron Energy:        197.83694624081730 Eh            5383.41699 eV

Virial components:
Potential Energy   :       -387.67573676914043 Eh          -10549.19311 eV
Kinetic Energy     :        193.36001268308897 Eh            5261.59344 eV
Virial Ratio       :          2.00494265277345

DFT components:
N(Alpha)           :       17.000014864377 electrons
N(Beta)            :       17.000014864377 electrons
N(Total)           :       34.000029728754 electrons
E(X)               :      -26.712886334311 Eh       
E(C)               :       -1.059815158178 Eh       
E(XC)              :      -27.772701492489 Eh       

---------------
SCF CONVERGENCE
---------------

  Last Energy change         ...    9.1726e-09  Tolerance :   1.0000e-06
  Last MAX-Density change    ...    4.6889e-05  Tolerance :   1.0000e-05
  Last RMS-Density change    ...    2.7267e-06  Tolerance :   1.0000e-06
  Last DIIS Error            ...    2.0526e-03  Tolerance :   1.0000e-06
  Last Orbital Gradient      ...    2.8781e-05  Tolerance :   5.0000e-05
  Last Orbital Rotation      ...    2.8036e-05  Tolerance :   5.0000e-05


----------------
ORBITAL ENERGIES
----------------

  NO   OCC          E(Eh)            E(eV) 
   0   2.0000     -18.947022      -515.5747 
   1   2.0000     -10.075295      -274.1627 
   2   2.0000     -10.031668      -272.9756 
   3   2.0000     -10.029161      -272.9073 
   4   2.0000      -0.974935       -26.5293 
   5   2.0000      -0.746907       -20.3244 
   6   2.0000      -0.649873       -17.6839 
   7   2.0000      -0.558382       -15.1943 
   8   2.0000      -0.473194       -12.8763 
   9   2.0000      -0.428959       -11.6726 
  10   2.0000      -0.406888       -11.0720 
  11   2.0000      -0.389203       -10.5908 
  12   2.0000      -0.344715        -9.3802 
  13   2.0000      -0.327633        -8.9154 
  14   2.0000      -0.318217        -8.6591 
  15   2.0000      -0.292207        -7.9513 
  16   2.0000      -0.238051        -6.4777 
  17   0.0000       0.029576         0.8048 
  18   0.0000       0.066169         1.8006 
  19   0.0000       0.089537         2.4364 
  20   0.0000       0.091177         2.4811 
  21   0.0000       0.110280         3.0009 
  22   0.0000       0.121441         3.3046 
  23   0.0000       0.130593         3.5536 
  24   0.0000       0.147826         4.0226 
  25   0.0000       0.157113         4.2753 
  26   0.0000       0.176837         4.8120 
  27   0.0000       0.203205         5.5295 
*Only the first 10 virtual orbitals were printed.

                    ********************************
                    * MULLIKEN POPULATION ANALYSIS *
                    ********************************

-----------------------
MULLIKEN ATOMIC CHARGES
-----------------------
   0 C :   -0.354888
   1 C :   -0.126435
   2 C :    0.008794
   3 O :   -0.471322
   4 H :    0.103950
   5 H :    0.094345
   6 H :    0.112374
   7 H :    0.089546
   8 H :    0.074317
   9 H :    0.077905
  10 H :    0.093322
  11 H :    0.298091
Sum of atomic charges:   -0.0000000

--------------------------------
MULLIKEN REDUCED ORBITAL CHARGES
--------------------------------
  0 C s       :     3.270055  s :     3.270055
      pz      :     0.981285  p :     3.032916
      px      :     1.030173
      py      :     1.021459
      dz2     :     0.019326  d :     0.048157
      dxz     :     0.005544
      dyz     :     0.003142
      dx2y2   :     0.013164
      dxy     :     0.006981
      f0      :     0.000544  f :     0.003759
      f+1     :     0.001130
      f-1     :     0.000237
      f+2     :     0.000507
      f-2     :     0.000329
      f+3     :     0.000236
      f-3     :     0.000776

  1 C s       :     3.193505  s :     3.193505
      pz      :     0.957939  p :     2.839057
      px      :     0.911047
      py      :     0.970072
      dz2     :     0.021236  d :     0.087648
      dxz     :     0.018431
      dyz     :     0.005164
      dx2y2   :     0.027852
      dxy     :     0.014965
      f0      :     0.000831  f :     0.006225
      f+1     :     0.001382
      f-1     :     0.000301
      f+2     :     0.000721
      f-2     :     0.000682
      f+3     :     0.001185
      f-3     :     0.001121

  2 C s       :     3.207668  s :     3.207668
      pz      :     0.776496  p :     2.658778
      px      :     0.882158
      py      :     1.000124
      dz2     :     0.020987  d :     0.115027
      dxz     :     0.035496
      dyz     :     0.023485
      dx2y2   :     0.022536
      dxy     :     0.012522
      f0      :     0.002067  f :     0.009733
      f+1     :     0.001675
      f-1     :     0.001205
      f+2     :     0.001026
      f-2     :     0.001663
      f+3     :     0.001071
      f-3     :     0.001026

  3 O s       :     3.816424  s :     3.816424
      pz      :     1.260906  p :     4.623725
      px      :     1.614164
      py      :     1.748656
      dz2     :     0.003842  d :     0.029583
      dxz     :     0.011548
      dyz     :     0.006149
      dx2y2   :     0.003379
      dxy     :     0.004666
      f0      :     0.000251  f :     0.001591
      f+1     :     0.000373
      f-1     :     0.000248
      f+2     :     0.000162
      f-2     :     0.000394
      f+3     :     0.000078
      f-3     :     0.000084

  4 H s       :     0.873284  s :     0.873284
      pz      :     0.005379  p :     0.022766
      px      :     0.005445
      py      :     0.011942

  5 H s       :     0.882354  s :     0.882354
      pz      :     0.011850  p :     0.023302
      px      :     0.006205
      py      :     0.005247

  6 H s       :     0.864338  s :     0.864338
      pz      :     0.005348  p :     0.023288
      px      :     0.011240
      py      :     0.006699

  7 H s       :     0.887431  s :     0.887431
      pz      :     0.005332  p :     0.023023
      px      :     0.005107
      py      :     0.012584

  8 H s       :     0.902572  s :     0.902572
      pz      :     0.011482  p :     0.023111
      px      :     0.006492
      py      :     0.005136

  9 H s       :     0.900646  s :     0.900646
      pz      :     0.004418  p :     0.021449
      px      :     0.004769
      py      :     0.012262

 10 H s       :     0.884271  s :     0.884271
      pz      :     0.008566  p :     0.022407
      px      :     0.007464
      py      :     0.006376

 11 H s       :     0.652913  s :     0.652913
      pz      :     0.015864  p :     0.048996
      px      :     0.015170
      py      :     0.017962



                     *******************************
                     * LOEWDIN POPULATION ANALYSIS *
                     *******************************

----------------------
LOEWDIN ATOMIC CHARGES
----------------------
   0 C :   -0.319156
   1 C :   -0.307820
   2 C :   -0.336520
   3 O :   -0.062301
   4 H :    0.117898
   5 H :    0.112834
   6 H :    0.121202
   7 H :    0.134999
   8 H :    0.136349
   9 H :    0.112418
  10 H :    0.125253
  11 H :    0.164844

-------------------------------
LOEWDIN REDUCED ORBITAL CHARGES
-------------------------------
  0 C s       :     2.840850  s :     2.840850
      pz      :     1.060858  p :     3.188561
      px      :     1.059147
      py      :     1.068556
      dz2     :     0.089331  d :     0.264844
      dxz     :     0.044507
      dyz     :     0.024566
      dx2y2   :     0.063053
      dxy     :     0.043386
      f0      :     0.002711  f :     0.024900
      f+1     :     0.005408
      f-1     :     0.003049
      f+2     :     0.004521
      f-2     :     0.003390
      f+3     :     0.001694
      f-3     :     0.004126

  1 C s       :     2.796270  s :     2.796270
      pz      :     1.019166  p :     3.072179
      px      :     1.024451
      py      :     1.028562
      dz2     :     0.093681  d :     0.400551
      dxz     :     0.090798
      dyz     :     0.032642
      dx2y2   :     0.110318
      dxy     :     0.073112
      f0      :     0.004493  f :     0.038820
      f+1     :     0.006529
      f-1     :     0.003623
      f+2     :     0.005293
      f-2     :     0.005437
      f+3     :     0.007558
      f-3     :     0.005888

  2 C s       :     2.819041  s :     2.819041
      pz      :     0.869257  p :     2.918269
      px      :     0.996602
      py      :     1.052409
      dz2     :     0.094801  d :     0.532548
      dxz     :     0.159636
      dyz     :     0.094903
      dx2y2   :     0.107940
      dxy     :     0.075269
      f0      :     0.012527  f :     0.066662
      f+1     :     0.013164
      f-1     :     0.009645
      f+2     :     0.008173
      f-2     :     0.011575
      f+3     :     0.006615
      f-3     :     0.004963

  3 O s       :     3.390635  s :     3.390635
      pz      :     1.304503  p :     4.601289
      px      :     1.605074
      py      :     1.691712
      dz2     :     0.014205  d :     0.066198
      dxz     :     0.024389
      dyz     :     0.016857
      dx2y2   :     0.004215
      dxy     :     0.006531
      f0      :     0.000820  f :     0.004178
      f+1     :     0.000922
      f-1     :     0.000525
      f+2     :     0.000424
      f-2     :     0.001224
      f+3     :     0.000158
      f-3     :     0.000106

  4 H s       :     0.819485  s :     0.819485
      pz      :     0.014774  p :     0.062617
      px      :     0.014240
      py      :     0.033603

  5 H s       :     0.824050  s :     0.824050
      pz      :     0.031771  p :     0.063116
      px      :     0.017252
      py      :     0.014093

  6 H s       :     0.815968  s :     0.815968
      pz      :     0.013860  p :     0.062830
      px      :     0.030305
      py      :     0.018665

  7 H s       :     0.804697  s :     0.804697
      pz      :     0.014379  p :     0.060304
      px      :     0.013507
      py      :     0.032418

  8 H s       :     0.803527  s :     0.803527
      pz      :     0.029585  p :     0.060124
      px      :     0.016816
      py      :     0.013723

  9 H s       :     0.827926  s :     0.827926
      pz      :     0.012443  p :     0.059656
      px      :     0.012641
      py      :     0.034572

 10 H s       :     0.816028  s :     0.816028
      pz      :     0.021306  p :     0.058719
      px      :     0.019475
      py      :     0.017938

 11 H s       :     0.675706  s :     0.675706
      pz      :     0.049351  p :     0.159450
      px      :     0.053358
      py      :     0.056741



                      *****************************
                      * MAYER POPULATION ANALYSIS *
                      *****************************

  NA   - Mulliken gross atomic population
  ZA   - Total nuclear charge
  QA   - Mulliken gross atomic charge
  VA   - Mayer's total valence
  BVA  - Mayer's bonded valence
  FA   - Mayer's free valence

  ATOM       NA         ZA         QA         VA         BVA        FA
  0 C      6.3549     6.0000    -0.3549     3.9095     3.9095     0.0000
  1 C      6.1264     6.0000    -0.1264     3.8566     3.8566    -0.0000
  2 C      5.9912     6.0000     0.0088     3.9113     3.9113    -0.0000
  3 O      8.4713     8.0000    -0.4713     1.9287     1.9287    -0.0000
  4 H      0.8960     1.0000     0.1040     0.9774     0.9774     0.0000
  5 H      0.9057     1.0000     0.0943     0.9898     0.9898     0.0000
  6 H      0.8876     1.0000     0.1124     0.9860     0.9860    -0.0000
  7 H      0.9105     1.0000     0.0895     0.9825     0.9825     0.0000
  8 H      0.9257     1.0000     0.0743     0.9835     0.9835    -0.0000
  9 H      0.9221     1.0000     0.0779     0.9705     0.9705    -0.0000
 10 H      0.9067     1.0000     0.0933     0.9717     0.9717    -0.0000
 11 H      0.7019     1.0000     0.2981     0.9311     0.9311    -0.0000

  Mayer bond orders larger than 0.100000
B(  0-C ,  1-C ) :   0.9671 B(  0-C ,  4-H ) :   0.9723 B(  0-C ,  5-H ) :   0.9748 
B(  0-C ,  6-H ) :   0.9756 B(  1-C ,  2-C ) :   0.9755 B(  1-C ,  7-H ) :   0.9631 
B(  1-C ,  8-H ) :   0.9519 B(  2-C ,  3-O ) :   0.9644 B(  2-C ,  9-H ) :   0.9702 
B(  2-C , 10-H ) :   0.9657 B(  3-O , 11-H ) :   0.9028 

-------
TIMINGS
-------

Total SCF time: 0 days 0 hours 0 min 15 sec 

Total time                  ....      15.536 sec
Sum of individual times     ....      15.067 sec  ( 97.0%)

SCF preparation             ....       0.190 sec  (  1.2%)
Fock matrix formation       ....      14.058 sec  ( 90.5%)
  Startup                   ....       0.068 sec  (  0.5% of F)
  Split-RI-J                ....       1.194 sec  (  8.5% of F)
  XC integration            ....      12.246 sec  ( 87.1% of F)
    XC Preparation          ....       0.000 sec  (  0.0% of XC)
    Basis function eval.    ....       1.958 sec  ( 16.0% of XC)
    Density eval.           ....       3.444 sec  ( 28.1% of XC)
    XC-Functional eval.     ....       1.446 sec  ( 11.8% of XC)
    XC-Potential eval.      ....       4.453 sec  ( 36.4% of XC)
Diagonalization             ....       0.000 sec  (  0.0%)
Density matrix formation    ....       0.225 sec  (  1.4%)
Total Energy calculation    ....       0.041 sec  (  0.3%)
Population analysis         ....       0.028 sec  (  0.2%)
Orbital Transformation      ....       0.051 sec  (  0.3%)
Orbital Orthonormalization  ....       0.000 sec  (  0.0%)
DIIS solution               ....       0.320 sec  (  2.1%)
SOSCF solution              ....       0.154 sec  (  1.0%)
Finished LeanSCF after  15.6 sec

Maximum memory used throughout the entire LEANSCF-calculation: 16.0 MB

------------------------------------------------------------------------------
                         ORCA PROPERTY INTEGRAL CALCULATIONS
------------------------------------------------------------------------------

GBWName                                   ... censo.gbw
Number of atoms                           ...     12
Number of basis functions                 ...    172
Max core memory                           ...   1024 MB

Dipole integrals                          ... YES
Quadrupole integrals                      ...  NO
Linear momentum integrals                 ...  NO
Angular momentum integrals                ...  NO
Higher moments length integrals           ...  NO
Higher moments velocity integrals         ...  NO
Kinetic energy integrals                  ...  NO
GIAO right hand sides                     ...  NO
GIAO dipole derivative integrals          ...  NO
SOC integrals                             ...  NO
EPR diamagnetic integrals (GIAO)          ...  NO
EPR gauge integrals                       ...  NO
Field gradient integrals                  ...  NO (   0 nuclei)
Spin-dipole/Fermi contact integrals       ...  NO (   0 nuclei)
Contact density integrals                 ...  NO (   0 nuclei)
Nucleus-orbit integrals                   ...  NO (   0 nuclei)
Geometric perturbations                   ... YES (  12 nuclei)

Choice of electric origin   ... Center of mass
Position of electric origin ... ( -0.0141,  0.0060,  0.0252) 
Choice of magnetic origin   ... GIAO
Position of magnetic origin ... (  0.0000,  0.0000,  0.0000) 

Calculating integrals                     ... Electric Dipole (Length)     done (  0.1 sec)
Calculating integrals                     ... Geometrical perturbation right hand sides

-----------------------
GEOMETRIC PERTURBATIONS (12 nuclei)
-----------------------

MaxCore                            ...   1024 MB
Number of batches                  ...      1

BATCH   0: Atoms    0 -   11 ( 36 perturbations)
   => H(core) and overlap derivative integrals     ... done (     0.1 sec)
   => Making and storing internal U-coefficients   ... done (     0.8 sec)
   => RI-J derivative integrals                    ... done (     1.2 sec)
   => RI-J response operators                      ... done (     0.3 sec)
   => XC derivative integrals                      ... done (    90.0 sec)
   => XC response operators                        ... done (    23.9 sec)
   => Completing and storing right hand sides      ... done (     0.3 sec)
   => Total time for right hand sides = 118.1 sec

  geometrical perturbations done (118.2 sec)

Property integrals calculated in 118.2 sec

Maximum memory used throughout the entire PROPINT-calculation: 62.4 MB


-------------------------------------------------------------------------------
                          DFT DISPERSION CORRECTION                            
                                                                               
                                DFTD4 V3.4.0                                   
-------------------------------------------------------------------------------
The R2SCAN3C composite method is recognized
Using three-body term ABC
Active option DFTDOPT                   ...         5   

-------------------------   ----------------
Dispersion correction           -0.002126418
-------------------------   ----------------

------------------   -----------------
gCP correction             0.006921436
------------------   -----------------

-------------------------   --------------------
FINAL SINGLE POINT ENERGY      -194.310929068206
-------------------------   --------------------

------------------------------------------------------------------------------
                            ORCA SCF RESPONSE CALCULATION
------------------------------------------------------------------------------

GBWName                                 ... censo.gbw
Number of atoms                         ...     12
Number of basis functions               ...    172
Max core memory                         ...   1024 MB

Electric field perturbation             ...  NO
Quadrupolar field perturbation          ...  NO
Magnetic field perturbation (no GIAO)   ...  NO
Magnetic field perturbation (with GIAO) ...  NO
Linear momentum (velocity) perturbation ...  NO
Spin-orbit coupling perturbation        ...  NO
Choice of electric origin               ... Center of mass
Position of electric origin             ...    -0.014059     0.005966     0.025211
Choice of magnetic origin               ... GIAO
Position of magnetic origin             ...     0.000000     0.000000     0.000000
Nuclear geometric perturbations         ... YES (  36 perturbations)
Nucleus-orbit perturbations             ...  NO (   0 perturbations)
Spin-dipole/Fermi contact perturbations ...  NO (   0 perturbations)

Total number of real perturbations      ...     36
Total number of imaginary perturbations ...      0
Total number of triplet perturbations   ...      0
Total number of SOC perturbations       ...      0


                                **********************
                                * REAL PERTURBATIONS *
                                **********************



-------------------
SHARK CP-SCF DRIVER
-------------------

Dimension of the orbital basis          ...    172
Dimension of the CPSCF-problem          ...   2635
Number of operators                     ...      1
Max. number of iterations               ...    128
Convergence Tolerance                   ... 1.0e-03
Number of perturbations                 ...     36
Perturbation type                       ... REAL

----------------------------
POPLE LINEAR EQUATION SOLVER
----------------------------

  ITERATION   0:   ||err||_max =   1.9918e-01 (   8.6 sec   0/ 36 done)
  ITERATION   1:   ||err||_max =   2.3248e-02 (   8.2 sec   0/ 36 done)
  ITERATION   2:   ||err||_max =   6.3983e-03 (   8.1 sec   4/ 36 done)
  ITERATION   3:   ||err||_max =   1.8133e-03 (   9.2 sec  21/ 36 done)
  ITERATION   4:   ||err||_max =   4.9696e-04 (   4.4 sec  36/ 36 done)

CP-SCF equations solved in  42.5 sec
Response densities calculated in   0.1 sec

Maximum memory used throughout the entire SCFRESP-calculation: 30.8 MB

------------------------------------------------------------------------------
                              ORCA PROPERTY CALCULATIONS
------------------------------------------------------------------------------

GBWName                                 ... censo.gbw
Number of atoms                         ...     12
Number of basis functions               ...    172
Max core memory                         ...   1024 MB

Electric properties:
Dipole moment                           ... YES
Quadrupole moment                       ...  NO
Static polarizability (Dipole/Dipole)   ...  NO
Static polarizability (Dipole/Quad.)    ...  NO
Static polarizability (Quad./Quad.)     ...  NO
Static polarizability (Velocity)        ...  NO

Atomic electric properties:
Dipole moment                           ...  NO
Quadrupole moment                       ...  NO
Static polarizability                   ...  NO

Choice of electric origin               ... Center of mass
Position of electric origin             ...    -0.014059     0.005966     0.025211

General magnetic properties:
Magnetizability                         ...  NO

EPR properties:
g-Tensor (aka g-matrix)                 ...  NO
Zero-Field splitting spin-orbit         ...  NO
Zero-field splitting spin-spin          ...  NO
Hyperfine couplings                     ...  NO (   0 nuclei)
Quadrupole couplings                    ...  NO (   0 nuclei)
Contact density                         ...  NO (   0 nuclei)

NMR properties:
Chemical shifts                         ...  NO (   0 nuclei)
Spin-rotation constants                 ...  NO (   0 nuclei)
Spin-spin couplings                     ...  NO (   0 nuclei,    0 pairs)

Choice of magnetic origin               ... GIAO
Position of magnetic origin             ...     0.000000     0.000000     0.000000

Properties with geometric perturbations:
SCF Hessian                             ... YES
IR spectrum                             ... YES
VCD spectrum                            ...  NO
X-ray spectroscopy properties:
SCF XES/XAS/RIXS spectra                ...  NO


-------------
DIPOLE MOMENT
-------------

Method             : SCF
Type of density    : Electron Density
Multiplicity       :   1
Irrep              :   0
Energy             :  -194.3157240860514605 Eh
Relativity type    : 
Basis              : AO
                                X                 Y                 Z
Electronic contribution:      3.399665644       0.150979268       0.578690768
Nuclear contribution   :     -4.031791139      -0.404603186      -0.680590465
                        -----------------------------------------
Total Dipole Moment    :     -0.632125495      -0.253623918      -0.101899697
                        -----------------------------------------
Magnitude (a.u.)       :      0.688688087
Magnitude (Debye)      :      1.750506002



--------------------
Rotational spectrum 
--------------------
 
Rotational constants in cm-1:             0.472789             0.168183             0.141330 
Rotational constants in MHz :         14173.854145          5041.994167          4236.973621 

Dipole components along the rotational axes: 
x,y,z [a.u.] :    -0.611406     0.003069    -0.316962 
x,y,z [Debye]:    -1.554070     0.007801    -0.805654 

 

Dipole moment calculation done in   0.0 sec 

-----------
SCF HESSIAN
-----------

Occupied/Occupied contributions to the Hessian:
   => Occupied/Occupied contributions              ... done (  0.0 sec)
Perturbed density contributions to the Hessian:
   => Perturbed density contributions              ... done (  0.0 sec)
Explicit contributions to the Hessian:
   => Nuclear repulsion Hessian                    ... done (  0.0 sec)
   => HCore and overlap Hessian                    ... done (  3.4 sec)
   => RI-J Hessian                                 ... done (  3.2 sec)
   => XC-Hessian                                   ... done ( 37.9 sec)
   => Van der Waals-Hessian                        ... done (  2.7 sec)
   => GCP-Hessian                                  ... done (  0.1 sec)
   => Explicit contributions done
Dipole derivatives                                 ... done (  0.0 sec)
Mass weighting the Hessian           ... done
Calculating normal modes             ... done
Scaling frequencies                  ... done

-----------------------
VIBRATIONAL FREQUENCIES
-----------------------

Scaling factor for frequencies =  1.000000000  (already applied!)

     0:       0.00 cm**-1
     1:       0.00 cm**-1
     2:       0.00 cm**-1
     3:       0.00 cm**-1
     4:       0.00 cm**-1
     5:       0.00 cm**-1
     6:     156.39 cm**-1
     7:     258.79 cm**-1
     8:     316.13 cm**-1
     9:     356.36 cm**-1
    10:     481.53 cm**-1
    11:     768.74 cm**-1
    12:     853.19 cm**-1
    13:     908.00 cm**-1
    14:     955.77 cm**-1
    15:    1065.21 cm**-1
    16:    1080.43 cm**-1
    17:    1135.44 cm**-1
    18:    1233.58 cm**-1
    19:    1292.91 cm**-1
    20:    1362.67 cm**-1
    21:    1373.58 cm**-1
    22:    1399.69 cm**-1
    23:    1409.27 cm**-1
    24:    1466.81 cm**-1
    25:    1486.83 cm**-1
    26:    1494.95 cm**-1
    27:    1505.42 cm**-1
    28:    2976.11 cm**-1
    29:    2999.88 cm**-1
    30:    3003.32 cm**-1
    31:    3044.89 cm**-1
    32:    3069.87 cm**-1
    33:    3075.86 cm**-1
    34:    3083.16 cm**-1
    35:    3777.58 cm**-1


------------
NORMAL MODES
------------

These modes are the Cartesian displacements weighted by the diagonal matrix
M(i,i)=1/sqrt(m[i]) where m[i] is the mass of the displaced atom
Thus, these vectors are normalized but *not* orthogonal

                  0          1          2          3          4          5    
      0       0.000000   0.000000   0.000000   0.000000   0.000000   0.000000
      1       0.000000   0.000000   0.000000   0.000000   0.000000   0.000000
      2       0.000000   0.000000   0.000000   0.000000   0.000000   0.000000
      3       0.000000   0.000000   0.000000   0.000000   0.000000   0.000000
      4       0.000000   0.000000   0.000000   0.000000   0.000000   0.000000
      5       0.000000   0.000000   0.000000   0.000000   0.000000   0.000000
      6       0.000000   0.000000   0.000000   0.000000   0.000000   0.000000
      7       0.000000   0.000000   0.000000   0.000000   0.000000   0.000000
      8       0.000000   0.000000   0.000000   0.000000   0.000000   0.000000
      9       0.000000   0.000000   0.000000   0.000000   0.000000   0.000000
     10       0.000000   0.000000   0.000000   0.000000   0.000000   0.000000
     11       0.000000   0.000000   0.000000   0.000000   0.000000   0.000000
     12       0.000000   0.000000   0.000000   0.000000   0.000000   0.000000
     13       0.000000   0.000000   0.000000   0.000000   0.000000   0.000000
     14       0.000000   0.000000   0.000000   0.000000   0.000000   0.000000
     15       0.000000   0.000000   0.000000   0.000000   0.000000   0.000000
     16       0.000000   0.000000   0.000000   0.000000   0.000000   0.000000
     17       0.000000   0.000000   0.000000   0.000000   0.000000   0.000000
     18       0.000000   0.000000   0.000000   0.000000   0.000000   0.000000
     19       0.000000   0.000000   0.000000   0.000000   0.000000   0.000000
     20       0.000000   0.000000   0.000000   0.000000   0.000000   0.000000
     21       0.000000   0.000000   0.000000   0.000000   0.000000   0.000000
     22       0.000000   0.000000   0.000000   0.000000   0.000000   0.000000
     23       0.000000   0.000000   0.000000   0.000000   0.000000   0.000000
     24       0.000000   0.000000   0.000000   0.000000   0.000000   0.000000
     25       0.000000   0.000000   0.000000   0.000000   0.000000   0.000000
     26       0.000000   0.000000   0.000000   0.000000   0.000000   0.000000
     27       0.000000   0.000000   0.000000   0.000000   0.000000   0.000000
     28       0.000000   0.000000   0.000000   0.000000   0.000000   0.000000
     29       0.000000   0.000000   0.000000   0.000000   0.000000   0.000000
     30       0.000000   0.000000   0.000000   0.000000   0.000000   0.000000
     31       0.000000   0.000000   0.000000   0.000000   0.000000   0.000000
     32       0.000000   0.000000   0.000000   0.000000   0.000000   0.000000
     33       0.000000   0.000000   0.000000   0.000000   0.000000   0.000000
     34       0.000000   0.000000   0.000000   0.000000   0.000000   0.000000
     35       0.000000   0.000000   0.000000   0.000000   0.000000   0.000000
                  6          7          8          9         10         11    
      0       0.126843   0.065262   0.136972  -0.048728  -0.056836   0.025637
      1       0.028339   0.001135  -0.059637   0.008973   0.016729   0.007334
      2       0.082288   0.023761  -0.009216   0.025511   0.052034   0.026444
      3      -0.022424  -0.001184   0.049871  -0.016108   0.122678   0.090645
      4      -0.018570  -0.031594   0.091297  -0.056416  -0.105021   0.015486
      5      -0.085402  -0.053319   0.007043   0.000253   0.108760   0.088406
      6       0.033842   0.014120  -0.054641   0.054490   0.095079   0.007181
      7       0.087913  -0.001430  -0.064894   0.059739  -0.061586   0.030040
      8      -0.054751  -0.019466  -0.019899  -0.016330  -0.133475   0.012621
      9      -0.125716  -0.080340  -0.099272   0.048509  -0.130584  -0.053795
     10      -0.078528   0.036033   0.015293  -0.068911   0.087924   0.004620
     11       0.054313   0.038478  -0.007204  -0.012746  -0.029365  -0.048072
     12       0.376149  -0.371613   0.283636  -0.217871  -0.172878   0.043685
     13      -0.079914   0.131139  -0.067301   0.043533   0.012912   0.077404
     14       0.373883  -0.226054  -0.085721   0.008949   0.156584  -0.317151
     15       0.118903   0.379634   0.138085  -0.044853  -0.279105  -0.340299
     16       0.413322  -0.425594  -0.087553  -0.072990   0.116412  -0.265725
     17       0.061140  -0.074162  -0.006722   0.032105   0.131408   0.181784
     18       0.004874   0.245910   0.066026   0.032372   0.013775   0.023363
     19      -0.203962   0.342462  -0.197487   0.163869   0.155943   0.006010
     20      -0.056480   0.457657   0.066446   0.064935  -0.237423  -0.242180
     21      -0.130225   0.003116   0.156507  -0.107708   0.365275  -0.122847
     22       0.033508  -0.024053   0.041473  -0.021606  -0.201264   0.155743
     23      -0.242924  -0.090521   0.150697  -0.086274   0.380868  -0.411832
     24      -0.075968  -0.040610  -0.019023  -0.014586   0.005042  -0.007307
     25      -0.216964  -0.069369   0.247586  -0.163844   0.290585  -0.541918
     26      -0.054235  -0.033559   0.035695   0.003734   0.149141   0.143589
     27       0.131508   0.076302  -0.215847   0.150573   0.312702  -0.169217
     28       0.125801  -0.005710  -0.084778   0.085040  -0.061811   0.033686
     29      -0.249496  -0.029542   0.129963  -0.176805  -0.240021   0.063116
     30       0.093982   0.041935   0.025462   0.028320   0.044134  -0.001425
     31       0.254956   0.027674  -0.258695   0.228171   0.146266  -0.099383
     32       0.095480   0.021042  -0.070182   0.065483  -0.052375  -0.075877
     33      -0.171328   0.008700  -0.434470  -0.472898  -0.133791  -0.043263
     34      -0.244288  -0.168480   0.560022   0.685070  -0.068669  -0.069023
     35      -0.099929  -0.051427   0.157162   0.177764  -0.147636  -0.097360
                 12         13         14         15         16         17    
      0       0.135659  -0.013475   0.144710  -0.100759  -0.034828   0.022915
      1       0.043384   0.074542   0.023139  -0.064077   0.080603   0.043449
      2      -0.134347   0.009624  -0.051488   0.075303  -0.093615   0.069908
      3       0.045651  -0.039293  -0.078124   0.203641  -0.024116  -0.015490
      4      -0.140680   0.021440  -0.062788  -0.005213  -0.066902  -0.099257
      5       0.091561   0.007106   0.040583  -0.065637   0.135648  -0.109763
      6      -0.171459  -0.022204  -0.141775  -0.197987   0.042720  -0.011172
      7       0.035193  -0.104185   0.008859   0.060451   0.022747   0.122973
      8       0.164771  -0.010460  -0.191527  -0.107425  -0.054650   0.086722
      9      -0.045982   0.014745   0.113535   0.052320   0.014288   0.008205
     10      -0.004250   0.014349   0.008645   0.013984   0.004104  -0.031397
     11      -0.093150   0.017443   0.178953   0.093253   0.031634  -0.028235
     12       0.008132   0.342462  -0.089805  -0.043193   0.270505   0.106174
     13       0.028759   0.086747   0.089007  -0.093752   0.015987   0.089824
     14       0.039579  -0.343164  -0.165525   0.165440  -0.042177  -0.244436
     15       0.176044  -0.007489  -0.233522   0.045859   0.347436  -0.193731
     16       0.182058  -0.219225  -0.005334  -0.042803   0.071038  -0.215449
     17      -0.156546   0.021131   0.086638   0.018118  -0.233900   0.162315
     18       0.223729  -0.197429   0.261390  -0.112378  -0.149038  -0.061382
     19       0.205109  -0.282469   0.253867  -0.095053  -0.155447  -0.118453
     20      -0.181104   0.128169  -0.488617   0.207413   0.314583  -0.106509
     21       0.059031   0.302676  -0.053050   0.396176  -0.083391   0.426815
     22      -0.153185   0.015708  -0.074443   0.003655  -0.031567  -0.200674
     23       0.151640  -0.211128   0.067155  -0.252639   0.014896   0.077988
     24       0.288464  -0.135001  -0.509261   0.544215   0.192823  -0.103784
     25      -0.087102  -0.036892   0.029952  -0.104996  -0.166179   0.279377
     26      -0.018494   0.051125   0.228550  -0.224445   0.036470  -0.071557
     27       0.052161   0.360486  -0.081879  -0.236054  -0.003481   0.144916
     28       0.091739  -0.076427  -0.024969   0.088920  -0.042806   0.004986
     29      -0.190453  -0.287497  -0.015290  -0.146455   0.216139   0.461074
     30      -0.383901  -0.118177  -0.128003  -0.258041  -0.234671  -0.178757
     31       0.434141   0.321317  -0.003168   0.134728  -0.087590  -0.059029
     32       0.230444   0.168071  -0.169752  -0.106455  -0.342701  -0.160409
     33       0.188793   0.111800  -0.071968  -0.033769  -0.373642  -0.225839
     34       0.105944   0.061247  -0.035254  -0.007335  -0.102866  -0.082568
     35       0.149871   0.121727   0.028608   0.023782  -0.315071  -0.228783
                 18         19         20         21         22         23    
      0      -0.032441  -0.050022  -0.004364   0.029471   0.077678  -0.044171
      1       0.085359  -0.047114   0.036245  -0.020153   0.036707  -0.039574
      2       0.007657  -0.066526  -0.036583  -0.014375  -0.070444   0.049199
      3       0.025878   0.047677   0.113331  -0.109448  -0.038745  -0.004209
      4      -0.124735   0.008616  -0.015345  -0.007691   0.001319   0.002853
      5       0.002486   0.032794  -0.073739   0.026897   0.019220  -0.022890
      6       0.002431  -0.016855   0.007988   0.047803   0.061132   0.105939
      7       0.075574   0.061488  -0.046821  -0.016886   0.018559  -0.006559
      8      -0.050619   0.006644   0.077252   0.037694  -0.031055   0.018573
      9      -0.022308  -0.010947   0.028604   0.027530  -0.033825  -0.030693
     10      -0.007926  -0.019655   0.027744   0.033187  -0.023264  -0.014395
     11       0.001774  -0.015288   0.005324   0.000131   0.012617   0.019638
     12       0.245966  -0.014151  -0.037680  -0.114226  -0.333404   0.154401
     13       0.065049  -0.107689  -0.022030   0.003209  -0.004576  -0.001773
     14      -0.154035   0.199238   0.195713  -0.011426   0.367175  -0.238089
     15       0.113187   0.169927  -0.107555  -0.056499  -0.375738   0.233978
     16      -0.160056   0.158792  -0.145274   0.096094  -0.185761   0.155559
     17      -0.039068  -0.159919   0.027011   0.011564   0.131475  -0.081011
     18      -0.148987   0.023216  -0.111269   0.036571  -0.115800   0.089556
     19      -0.153242   0.085037  -0.160547   0.000422  -0.300848   0.203241
     20       0.061906   0.133646   0.207452  -0.000237   0.274324  -0.213318
     21      -0.075991   0.457292  -0.284020   0.567042   0.130206   0.065465
     22      -0.151737   0.017848  -0.010909  -0.078094   0.003704   0.008126
     23       0.191635  -0.286340   0.173250  -0.132155  -0.100005  -0.062532
     24      -0.069516  -0.570529  -0.506028   0.107562   0.086785  -0.114254
     25       0.047361  -0.090826   0.042679  -0.085075   0.025823   0.079124
     26       0.042380   0.320338   0.210720  -0.065545  -0.040044   0.020746
     27      -0.435501   0.111733  -0.335417  -0.545654  -0.083765  -0.316358
     28       0.141963   0.000078   0.085951   0.138605   0.010081   0.079335
     29      -0.118513   0.210774  -0.273752  -0.321476   0.105726  -0.108374
     30       0.437581   0.128173  -0.234077   0.170582  -0.244762  -0.521782
     31      -0.207841  -0.053908   0.165807   0.001777   0.066265   0.142372
     32       0.136764   0.055918   0.018907   0.158153  -0.257734  -0.411404
     33       0.336556   0.096870  -0.231564  -0.218952   0.281004   0.210293
     34       0.112965   0.028680  -0.087175  -0.070691   0.080307   0.078204
     35       0.333067   0.091765  -0.249766  -0.239311   0.299243   0.247490
                 24         25         26         27         28         29    
      0       0.002997   0.016523  -0.031160  -0.007423  -0.000304   0.021808
      1       0.000431   0.000935   0.012481   0.039845  -0.000965   0.028846
      2       0.004650   0.031226  -0.016447   0.018439   0.001612  -0.032651
      3      -0.003953   0.022497  -0.023890  -0.013451  -0.003200   0.003603
      4       0.061257  -0.002681   0.019642   0.023411  -0.008126  -0.015145
      5      -0.049018   0.007124  -0.014923   0.008777  -0.008767   0.010634
      6      -0.001798   0.015623   0.024913  -0.002107  -0.005285   0.000509
      7       0.010252  -0.027248  -0.026709   0.004195   0.064931   0.003903
      8      -0.006652  -0.046389  -0.041324   0.019406   0.031210  -0.000956
      9      -0.004321  -0.001187  -0.001866   0.001148   0.001234   0.000049
     10      -0.006007  -0.001492  -0.001045   0.001099  -0.000051  -0.000027
     11       0.003647  -0.009201  -0.005076   0.001499   0.002098   0.000242
     12      -0.090608  -0.384896   0.407983  -0.172152  -0.000205  -0.096949
     13       0.042120   0.112939  -0.137713  -0.027850   0.017468  -0.596471
     14      -0.105779  -0.197455   0.311211   0.355574   0.007073  -0.144875
     15       0.005885   0.227656  -0.068810   0.428366  -0.011457   0.223606
     16       0.117389   0.189641  -0.378042  -0.471797  -0.001936   0.040610
     17      -0.006543  -0.079842   0.035859  -0.134675  -0.028056   0.541310
     18      -0.047269  -0.165072   0.152893  -0.111727   0.012698  -0.381505
     19      -0.078981  -0.329089   0.333715  -0.183656  -0.009033   0.209859
     20       0.031740  -0.168940  -0.041278  -0.550821   0.001309  -0.009061
     21       0.207352  -0.059554   0.058818   0.082911   0.016161   0.032436
     22      -0.142369   0.019676  -0.027285   0.016172   0.105972   0.191345
     23       0.633460  -0.031473   0.124855  -0.011883   0.021483   0.045393
     24      -0.052254  -0.028353   0.054844  -0.002749   0.029397  -0.077069
     25      -0.678074   0.027157  -0.130637  -0.054519   0.003647  -0.008884
     26       0.017234   0.027010  -0.047455   0.010468   0.077854  -0.171046
     27       0.076219  -0.233297  -0.217723   0.084657  -0.118902  -0.001274
     28      -0.002683  -0.099129  -0.086734   0.029775  -0.914070  -0.034833
     29       0.003926   0.439323   0.368628  -0.139930  -0.214901  -0.009020
     30      -0.047311   0.027129  -0.000041  -0.018912   0.155487  -0.009767
     31      -0.035668   0.445175   0.388761  -0.136161   0.136715  -0.010982
     32      -0.080486   0.270007   0.205948  -0.086635  -0.188327   0.015388
     33       0.049382  -0.015875   0.000765  -0.034780   0.001955   0.000894
     34       0.016395   0.002789  -0.009980   0.006860  -0.003323   0.000015
     35       0.056499  -0.016808  -0.010997  -0.021431   0.003637   0.001806
                 30         31         32         33         34         35    
      0       0.013000  -0.011946   0.003941   0.038480  -0.062403   0.000088
      1       0.003204  -0.024625   0.021123   0.036257   0.064573   0.000049
      2      -0.006823  -0.030015   0.017445   0.058742  -0.008585  -0.000146
      3      -0.017397   0.027495   0.002747   0.014095   0.000526  -0.000049
      4       0.045745   0.053511  -0.003856   0.028302   0.012057  -0.000059
      5      -0.042508   0.054090   0.007203   0.027643   0.000565  -0.000225
      6      -0.005080  -0.005309  -0.046559   0.012747   0.005728  -0.002013
      7      -0.004992   0.003788  -0.052763   0.018233   0.007100  -0.001506
      8       0.005108   0.010900   0.048108  -0.010172  -0.005300   0.000952
      9       0.000106   0.000050   0.001525  -0.000251  -0.000119  -0.029213
     10      -0.000012  -0.000213   0.000917  -0.000391  -0.000141  -0.031804
     11       0.000261  -0.000182  -0.000522  -0.000345   0.000103   0.044835
     12      -0.021008   0.041678  -0.033714  -0.074489  -0.082725  -0.000446
     13      -0.150369   0.281417  -0.216141  -0.496355  -0.406895  -0.001338
     14      -0.035656   0.061711  -0.048220  -0.102576  -0.100160  -0.000501
     15       0.052468   0.128346  -0.069958  -0.243608   0.069140  -0.001684
     16       0.007505   0.014084  -0.006380  -0.031357   0.028490   0.001367
     17       0.121962   0.309611  -0.172539  -0.613104   0.203729   0.000819
     18      -0.185694  -0.022479   0.061420  -0.145334   0.756076   0.000566
     19       0.104573   0.002412  -0.027132   0.091937  -0.397627  -0.000197
     20      -0.005310  -0.010232   0.006201   0.013682   0.002740   0.000610
     21      -0.096130  -0.093346   0.004723  -0.050297  -0.021229   0.000081
     22      -0.581842  -0.639532   0.039787  -0.325831  -0.133445   0.000209
     23      -0.147699  -0.140854   0.010389  -0.071951  -0.030032   0.000456
     24       0.303235  -0.241114  -0.043736  -0.116548   0.009080  -0.001710
     25       0.036527  -0.009812  -0.002464  -0.006470   0.001148   0.000195
     26       0.658426  -0.519412  -0.092090  -0.258437   0.019662  -0.000471
     27      -0.000468  -0.012595   0.020992  -0.009776  -0.001896  -0.001033
     28       0.012478  -0.093690   0.236767  -0.116053  -0.043137   0.002035
     29       0.005125  -0.020282   0.063712  -0.029503  -0.011340  -0.003153
     30       0.058574   0.077775   0.525900  -0.135271  -0.060604   0.009308
     31       0.048344   0.060286   0.391826  -0.100275  -0.044599   0.008173
     32      -0.075386  -0.095637  -0.631963   0.160847   0.070744  -0.008583
     33       0.000264  -0.001069  -0.014739   0.000932   0.003104   0.482107
     34      -0.000805  -0.001108  -0.007869   0.004089   0.000606   0.512407
     35       0.001336   0.001224   0.005863  -0.001602   0.001744  -0.707725


-----------
IR SPECTRUM
-----------

 Mode   freq       eps      Int      T**2         TX        TY        TZ
       cm**-1   L/(mol*cm) km/mol    a.u.
----------------------------------------------------------------------------
  6:    156.39   0.000477    2.41  0.000951  ( 0.007161 -0.006974 -0.029174)
  7:    258.79   0.001488    7.52  0.001794  ( 0.024664 -0.030799 -0.015406)
  8:    316.13   0.004922   24.87  0.004858  (-0.040038  0.056363  0.008851)
  9:    356.36   0.018552   93.75  0.016246  (-0.078492  0.100031  0.008861)
 10:    481.53   0.000760    3.84  0.000493  ( 0.015333 -0.013316 -0.008961)
 11:    768.74   0.000271    1.37  0.000110  ( 0.001453 -0.010102 -0.002429)
 12:    853.19   0.002879   14.55  0.001053  ( 0.011178  0.011984  0.028009)
 13:    908.00   0.000319    1.61  0.000110  ( 0.007941 -0.006783 -0.000741)
 14:    955.77   0.013424   67.84  0.004383  (-0.046920  0.005166 -0.046421)
 15:   1065.21   0.005625   28.43  0.001648  (-0.026871  0.002675 -0.030310)
 16:   1080.43   0.003947   19.95  0.001140  (-0.017393 -0.003661 -0.028708)
 17:   1135.44   0.000800    4.04  0.000220  (-0.012395  0.007495 -0.003153)
 18:   1233.58   0.002848   14.39  0.000721  ( 0.018818 -0.000495  0.019135)
 19:   1292.91   0.000324    1.64  0.000078  ( 0.003471  0.002527  0.007729)
 20:   1362.67   0.000158    0.80  0.000036  (-0.004174 -0.001846 -0.003919)
 21:   1373.58   0.000265    1.34  0.000060  (-0.006721 -0.003431  0.001829)
 22:   1399.69   0.003155   15.94  0.000703  ( 0.012136 -0.005207  0.023000)
 23:   1409.27   0.004938   24.96  0.001093  ( 0.028791  0.004574  0.015609)
 24:   1466.81   0.000923    4.67  0.000196  ( 0.007460 -0.009767  0.006737)
 25:   1486.83   0.001115    5.63  0.000234  (-0.012798  0.002586 -0.007972)
 26:   1494.95   0.000668    3.38  0.000140  ( 0.008814 -0.000124  0.007864)
 27:   1505.42   0.001814    9.17  0.000376  ( 0.003942 -0.014958 -0.011692)
 28:   2976.11   0.011110   56.15  0.001165  (-0.002930  0.026340  0.021508)
 29:   2999.88   0.003543   17.91  0.000369  ( 0.013254  0.008592 -0.010913)
 30:   3003.32   0.006991   35.33  0.000726  (-0.001334  0.017862 -0.020140)
 31:   3044.89   0.001917    9.69  0.000197  ( 0.001842  0.008961  0.010622)
 32:   3069.87   0.007480   37.80  0.000760  (-0.012377 -0.009536  0.022720)
 33:   3075.86   0.011689   59.07  0.001186  ( 0.017565  0.021910  0.019934)
 34:   3083.16   0.006454   32.61  0.000653  (-0.014279  0.020945 -0.003265)
 35:   3777.58   0.002961   14.96  0.000245  ( 0.001758  0.006706 -0.014018)

* The epsilon (eps) is given for a Dirac delta lineshape.
** The dipole moment derivative (T) already includes vibrational overlap.

The first frequency considered to be a vibration is 6
The total number of vibrations considered is 30


--------------------------
THERMOCHEMISTRY AT 298.15K
--------------------------

Temperature         ...   298.15 K
Pressure            ...     1.00 atm
Total Mass          ...    60.10 AMU
Quasi RRHO          ...     True
Cut-Off Frequency   ...     1.00 cm^-1

Throughout the following assumptions are being made:
  (1) The electronic state is orbitally nondegenerate
  (2) There are no thermally accessible electronically excited states
  (3) Hindered rotations indicated by low frequency modes are not
      treated as such but are treated as vibrations and this may
      cause some error
  (4) All equations used are the standard statistical mechanics
      equations for an ideal gas
  (5) All vibrations are strictly harmonic

freq.     156.39  E(vib)   ...       0.40 
freq.     258.79  E(vib)   ...       0.30 
freq.     316.13  E(vib)   ...       0.25 
freq.     356.36  E(vib)   ...       0.22 
freq.     481.53  E(vib)   ...       0.15 
freq.     768.74  E(vib)   ...       0.06 
freq.     853.19  E(vib)   ...       0.04 
freq.     908.00  E(vib)   ...       0.03 
freq.     955.77  E(vib)   ...       0.03 
freq.    1065.21  E(vib)   ...       0.02 
freq.    1080.43  E(vib)   ...       0.02 
freq.    1135.44  E(vib)   ...       0.01 
freq.    1233.58  E(vib)   ...       0.01 
freq.    1292.91  E(vib)   ...       0.01 
freq.    1362.67  E(vib)   ...       0.01 
freq.    1373.58  E(vib)   ...       0.01 
freq.    1399.69  E(vib)   ...       0.00 
freq.    1409.27  E(vib)   ...       0.00 
freq.    1466.81  E(vib)   ...       0.00 
freq.    1486.83  E(vib)   ...       0.00 
freq.    1494.95  E(vib)   ...       0.00 
freq.    1505.42  E(vib)   ...       0.00 
freq.    2976.11  E(vib)   ...       0.00 
freq.    2999.88  E(vib)   ...       0.00 
freq.    3003.32  E(vib)   ...       0.00 
freq.    3044.89  E(vib)   ...       0.00 
freq.    3069.87  E(vib)   ...       0.00 
freq.    3075.86  E(vib)   ...       0.00 
freq.    3083.16  E(vib)   ...       0.00 
freq.    3777.58  E(vib)   ...       0.00 

------------
INNER ENERGY
------------

The inner energy is: U= E(el) + E(ZPE) + E(vib) + E(rot) + E(trans)
    E(el)   - is the total energy from the electronic structure calculation
              = E(kin-el) + E(nuc-el) + E(el-el) + E(nuc-nuc)
    E(ZPE)  - the the zero temperature vibrational energy from the frequency calculation
    E(vib)  - the the finite temperature correction to E(ZPE) due to population
              of excited vibrational states
    E(rot)  - is the rotational thermal energy
    E(trans)- is the translational thermal energy

Summary of contributions to the inner energy U:
Electronic energy                ...   -194.31092907 Eh
Zero point energy                ...      0.10796774 Eh      67.75 kcal/mol
Thermal vibrational correction   ...      0.00250346 Eh       1.57 kcal/mol
Thermal rotational correction    ...      0.00141627 Eh       0.89 kcal/mol
Thermal translational correction ...      0.00141627 Eh       0.89 kcal/mol
-----------------------------------------------------------------------
Total thermal energy                   -194.19762532 Eh


Summary of corrections to the electronic energy:
(perhaps to be used in another calculation)
Total thermal correction                  0.00533600 Eh       3.35 kcal/mol
Non-thermal (ZPE) correction              0.10796774 Eh      67.75 kcal/mol
-----------------------------------------------------------------------
Total correction                          0.11330375 Eh      71.10 kcal/mol


--------
ENTHALPY
--------

The enthalpy is H = U + kB*T
                kB is Boltzmann's constant
Total thermal energy              ...   -194.19762532 Eh 
Thermal Enthalpy correction       ...      0.00094421 Eh       0.59 kcal/mol
-----------------------------------------------------------------------
Total Enthalpy                    ...   -194.19668111 Eh


Note: Only C1 symmetry has been detected, increase convergence thresholds 
      if your molecule has a higher symmetry. Symmetry factor of 1.0 is   
      used for the rotational entropy correction. 
 

Note: Rotational entropy computed according to Herzberg 
Infrared and Raman Spectra, Chapter V,1, Van Nostrand Reinhold, 1945 
Point Group:  C1, Symmetry Number:   1  
Rotational constants in cm-1:     0.472789     0.168183     0.141330 

Vibrational entropy computed according to the QRRHO of S. Grimme
Chem.Eur.J. 2012 18 9955 using a reference frequency of 100.0 cm-1


-------
ENTROPY
-------

The entropy contributions are T*S = T*(S(el)+S(vib)+S(rot)+S(trans))
     S(el)   - electronic entropy
     S(vib)  - vibrational entropy
     S(rot)  - rotational entropy
     S(trans)- translational entropy
The entropies will be listed as multiplied by the temperature to get
units of energy

Electronic entropy                ...      0.00000000 Eh      0.00 kcal/mol
Vibrational entropy               ...      0.00401825 Eh      2.52 kcal/mol
Rotational entropy                ...      0.01162977 Eh      7.30 kcal/mol
Translational entropy             ...      0.01815004 Eh     11.39 kcal/mol
-----------------------------------------------------------------------
Final entropy term                ...      0.03379806 Eh     21.21 kcal/mol

In case the symmetry of your molecule has not been determined correctly
or in case you have a reason to use a different symmetry number we print 
out the resulting rotational entropy values for sn=1,12:

 non-linear molecules -----------------------------------
|  sn= 1 | S(rot)=       0.01162977 Eh      7.30 kcal/mol|
|  sn= 2 | S(rot)=       0.01097532 Eh      6.89 kcal/mol|
|  sn= 3 | S(rot)=       0.01059248 Eh      6.65 kcal/mol|
|  sn= 4 | S(rot)=       0.01032086 Eh      6.48 kcal/mol|
|  sn= 5 | S(rot)=       0.01011017 Eh      6.34 kcal/mol|
|  sn= 6 | S(rot)=       0.00993803 Eh      6.24 kcal/mol|
|  sn= 7 | S(rot)=       0.00979248 Eh      6.14 kcal/mol|
|  sn= 8 | S(rot)=       0.00966640 Eh      6.07 kcal/mol|
|  sn= 9 | S(rot)=       0.00955519 Eh      6.00 kcal/mol|
|  sn=10 | S(rot)=       0.00945572 Eh      5.93 kcal/mol|
|  sn=11 | S(rot)=       0.00936573 Eh      5.88 kcal/mol|
|  sn=12 | S(rot)=       0.00928357 Eh      5.83 kcal/mol|
 linear molecules ---------------------------------------
|  Dinfh | S(rot)=       0.00717324 Eh      4.50 kcal/mol|
|  Cinfv | S(rot)=       0.00782770 Eh      4.91 kcal/mol|
 --------------------------------------------------------


-------------------
GIBBS FREE ENERGY
-------------------

The Gibbs free energy is G = H - T*S

Total enthalpy                    ...   -194.19668111 Eh 
Total entropy correction          ...     -0.03379806 Eh    -21.21 kcal/mol
-----------------------------------------------------------------------
Final Gibbs free energy         ...   -194.23047918 Eh

For completeness - the Gibbs free energy minus the electronic energy
G-E(el)                           ...      0.08044989 Eh     50.48 kcal/mol


Maximum memory used throughout the entire PROP-calculation: 33.7 MB

--------------------------------
SUGGESTED CITATIONS FOR THIS RUN
--------------------------------

Below you find a list of papers that are relevant to this ORCA run
We neither can nor want to force you to cite these papers, but we appreciate if you do
You receive ORCA, which is the product of decades of hard work by many enthusiastic individuals, for free
The only thing we kindly ask in return is that you cite our papers,
We deeply appreciate it, if you show your appreciation for ORCA by not just citing the generic ORCA reference.

Please note that relegating all ORCA citations to the supporting information does *not* help us.
SI sections are not indexed - citations you put there will not count into any citation statistics
But we need these citations in order to attract the funding resources that allow us to do what we are doing

Therefore, if you are a happy ORCA user, please consider citing a few of the papers listed below in the main body of your paper

In addition to the list printed below, the program has created the file censo.bibtex that contains the list in bibtex format
You can import this file easily into all common literature databanks and citation aid programs


List of essential papers. We consider these as the minimum necessary citations

  1. Neese,F.
     Software update: the ORCA program system, version 5.0
     WIRES Comput. Molec. Sci., 2022 12(1)e1606
     doi.org/10.1002/wcms.1606
  2. Grimme,S.; Hansen,A.; Ehlert,S.; Mewes,J.
     r2SCAN-3c: A 'Swiss army knife' composite electronic-structure method
     J. Chem. Phys., 2021 154 064103
     doi.org/10.1063/5.0040021

List of papers to cite with high priority. The work reported in these papers was absolutely
necessary for this run to complete.
Our perspective: the developers of density functionals and basis sets usually get cited in chemistry papers
Good! But without the algorithms to do something with them, the functionals or basis sets would not do anything.
Hence, in our opinion, the algorithm design and method developments papers are equally worthy of getting cited

  1. Neese,F.
     An improvement of the resolution of the identity approximation for the formation of the Coulomb matrix
     J. Comp. Chem., 2003 24(14)1740-1747
     doi.org/10.1002/jcc.10318
  2. Bykov,D.; Petrenko,T.; Izsak,R.; Kossmann,S.; Becker,U.; Valeev,E.; Neese,F.
     Efficient implementation of the analytic second derivatives of Hartree-Fock and hybrid DFT energies: a detailed analysis of different approximations
     Molec. Phys., 2015 113 1961-1977
     doi.org/10.1080/00268976.2015.1025114
  3. Neese,F.
     The SHARK Integral Generation and Digestion System
     J. Comp. Chem., 2022  1-16
     doi.org/10.1002/jcc.26942
  4. Lehtola,S.; Steigemann,C.; Oliveira,M.; Marques,M.
     Recent developments in Libxc - A comprehensive library of functionals for density functional theory
     Software X, 2018 7 
     doi.org/10.1016/j.softx.2017.11.002
  5. Caldeweyher,E.; Bannwarth,C.; Grimme,S.
     Extension of the D3 dispersion coefficient model
     J. Chem. Phys., 2017 147 034112-XXXX
     doi.org/10.1063/1.4993215
  6. Caldeweyher,E.; Ehlert,S.; Hansen,A.; Neugebauer,H.; Spicher,S.; Bannwarth,C.; Grimme,S.
     A generally applicable atomic-charge dependent London dispersion correction
     J. Chem. Phys., 2019 150 154122-XXXX
     doi.org/10.1063/1.5090222
  7. Caldeweyher,E.; Mewes,J.; Ehlert,S.; Grimme,S.
     Extension and evaluation of the D4 London-dispersion model for periodic systems
     Phys. Chem. Chem. Phys., 2020 22(16)8499-8512
     doi.org/10.1039/D0CP00502A

List of suggested additional citations. These are papers that are important in the 'surrounding' of 
of this run, or papers that preceded the highly important papers. If you like your results we are grateful for a citation.

  1. Neese,F.
     The ORCA program system
     WIRES Comput. Molec. Sci., 2012 2(1)73-78
     doi.org/10.1002/wcms.81
  2. Neese,F.
     Software update: the ORCA program system, version 4.0
     WIRES Comput. Molec. Sci., 2018 8(1)1-6
     doi.org/10.1002/wcms.1327
  3. Neese,F.; Wennmohs,F.; Becker,U.; Riplinger,C.
     The ORCA quantum chemistry program package
     J. Chem. Phys., 2020 152 Art. No. L224108
     doi.org/10.1063/5.0004608

List of optional additional citations

  1. Neese,F.
     Approximate second-order SCF convergence for spin unrestricted wavefunctions
     Chem. Phys. Lett., 2000 325(1-3)93-98
     doi.org/10.1016/s0009-2614(00)00662-x

Timings for individual modules:

Sum of individual times          ...      226.787 sec (=   3.780 min)
Startup calculation              ...        0.760 sec (=   0.013 min)   0.3 %
SCF iterations                   ...       16.311 sec (=   0.272 min)   7.2 %
Property integrals               ...      118.303 sec (=   1.972 min)  52.2 %
SCF Response                     ...       43.888 sec (=   0.731 min)  19.4 %
Property calculations            ...       47.525 sec (=   0.792 min)  21.0 %
                             ****ORCA TERMINATED NORMALLY****
TOTAL RUN TIME: 0 days 0 hours 3 minutes 47 seconds 510 msec
