
                                 *****************
                                 * O   R   C   A *
                                 *****************

                                            #,                                       
                                            ###                                      
                                            ####                                     
                                            #####                                    
                                            ######                                   
                                           ########,                                 
                                     ,,################,,,,,                         
                               ,,#################################,,                 
                          ,,##########################################,,             
                       ,#########################################, ''#####,          
                    ,#############################################,,   '####,        
                  ,##################################################,,,,####,       
                ,###########''''           ''''###############################       
              ,#####''   ,,,,##########,,,,          '''####'''          '####       
            ,##' ,,,,###########################,,,                        '##       
           ' ,,###''''                  '''############,,,                           
         ,,##''                                '''############,,,,        ,,,,,,###''
      ,#''                                            '''#######################'''  
     '                                                          ''''####''''         
             ,#######,   #######,   ,#######,      ##                                
            ,#'     '#,  ##    ##  ,#'     '#,    #''#        ,####,   ,####,        
            ##       ##  ##   ,#'  ##            #'  '#       #'       #'  '#        
            ##       ##  #######   ##           ,######,      #####,   #    #        
            '#,     ,#'  ##    ##  '#,     ,#' ,#      #,     #,   #   #,  ,#        
             '#######'   ##     ##  '#######'  #'      '#     '####' # '####'        



                #########################################################
                #                        -***-                          #
                #          Department of theory and spectroscopy        #
                #                                                       #
                #                      Frank Neese                      #
                #                                                       #
                #     Directorship, Architecture, Infrastructure        #
                #                    SHARK, DRIVERS                     #
                #        Core code/Algorithms in most modules           #
                #                                                       #
                #        Max Planck Institute fuer Kohlenforschung      #
                #                Kaiser Wilhelm Platz 1                 #
                #                 D-45470 Muelheim/Ruhr                 #
                #                      Germany                          #
                #                                                       #
                #                  All rights reserved                  #
                #                        -***-                          #
                #########################################################


                         Program Version 6.0.1  -  RELEASE   -


 With contributions from (in alphabetic order):
[Max-Planck-Institut fuer Kohlenforschung]                               
  Daniel Aravena         : Magnetic Suceptibility                        
  Michael Atanasov       : Ab Initio Ligand Field Theory (pilot matlab implementation)
  Alexander A. Auer      : GIAO ZORA, VPT2 properties, NMR spectrum      
  Ute Becker             : All parallelization in ORCA, NUMFREQ, NUMCALC 
  Giovanni Bistoni       : ED, misc. LED, open-shell LED, HFLD           
  Martin Brehm           : Molecular dynamics                            
  Dmytro Bykov           : pre 5.0 version of the SCF Hessian            
  Marcos Casanova-Páez   : Triplet and SCS-CIS(D). UHF-(DLPNO)-IP/EA/STEOM-CCSD. UHF-CVS-IP/STEOM-CCSD   
  Vijay G. Chilkuri      : MRCI spin determinant printing, contributions to CSF-ICE 
  Pauline Colinet        : FMM embedding                                 
  Dipayan Datta          : RHF DLPNO-CCSD density                        
  Achintya Kumar Dutta   : EOM-CC, STEOM-CC                              
  Nicolas Foglia         : Exact transition moments, OPA infrastructure, MCD improvements    
  Dmitry Ganyushin       : Spin-Orbit,Spin-Spin,Magnetic field MRCI      
  Miquel Garcia-Rates    : C-PCM and meta-GGA Hessian, CCSD/C-PCM, Gaussian charge scheme 
  Tiago L. C. Gouveia    : GS-ROHF, GS-ROCIS                             
  Yang Guo               : DLPNO-NEVPT2, F12-NEVPT2, CIM, IAO-localization        
  Andreas Hansen         : Spin unrestricted coupled pair/coupled cluster methods 
  Ingolf Harden          : AUTO-CI MPn and infrastructure                
  Benjamin Helmich-Paris : MC-RPA, TRAH-(SCF,CASSCF), AVAS, COSX integrals, SCF dyn. polar. 
  Lee Huntington         : MR-EOM, pCC                                   
  Robert Izsak           : Overlap fitted RIJCOSX, COSX-SCS-MP3, EOM     
  Riya Kayal             : Wick's Theorem for AUTO-CI, AUTO-CI UHF-CCSDT 
  Emily Kempfer          : AUTO-CI, RHF CISDT and CCSDT                  
  Christian Kollmar      : KDIIS, OOCD, Brueckner-CCSD(T), CCSD density, CASPT2, CASPT2-K, improved NEVPT2 
  Axel Koslowski         : Symmetry handling                             
  Simone Kossmann        : meta-GGA functionals, TD-DFT gradient, OOMP2, (MP2 Hessian; deprecated post 5.0) 
  Lucas Lang             : DCDCAS                                        
  Marvin Lechner         : AUTO-CI (C++ implementation), FIC-MRCC        
  Spencer Leger          : CASSCF response                               
  Dagmar Lenk            : GEPOL surface, SMD, ORCA-2-JSON               
  Dimitrios Liakos       : Extrapolation schemes; Compound Job, initial MDCI parallelization 
  Dimitrios Manganas     : Further ROCIS development; embedding schemes. LFT, Crystal Embedding 
  Dimitrios Pantazis     : SARC Basis sets                               
  Anastasios Papadopoulos: AUTO-CI, single reference methods and gradients 
  Taras Petrenko         : pre 6.0 DFT Hessian and TD-DFT gradient, (ASA, deprecated), ECA, 1-Electron XAS/XES, NRVS 
  Peter Pinski           : DLPNO-MP2, DLPNO-MP2 Gradient                 
  Christoph Reimann      : Effective Core Potentials                     
  Marius Retegan         : Local ZFS, SOC                                
  Christoph Riplinger    : Optimizer, TS searches, QM/MM, DLPNO-CCSD(T), (RO)-DLPNO pert. Triples 
  Michael Roemelt        : Original ROCIS implementation                 
  Masaaki Saitow         : Open-shell DLPNO-CCSD energy and density      
  Barbara Sandhoefer     : DKH picture change effects                    
  Kantharuban Sivalingam : CASSCF convergence/infrastructure, NEVPT2 and variants, FIC-MRCI 
  Bernardo de Souza      : ESD, SOC TD-DFT                               
  Georgi L. Stoychev     : AutoAux, RI-MP2 NMR, DLPNO-MP2 response, X2C  
  Van Anh Tran           : RI-MP2 g-tensors                              
  Willem Van den Heuvel  : Paramagnetic NMR                              
  Zikuan Wang            : NOTCH, Electric field optimization            
  Frank Wennmohs         : Technical directorship and infrastructure     
  Hang Xu                : AUTO-CI-Response properties                   
                                                                         
[FACCTs GmbH]                                                            
  Markus Bursch, Miquel Garcia-Rates, Christoph Riplinger, Bernardo de Souza, Georgi L. Stoychev 
                                                                 
  APM, Basis sets (HGBS, AHGBS, def-TZVP (Ac-Lr), def2-XVPD (La-Lu)), CI-OPT, improved COSX, DLPNO-Multilevel,           
  DOCKER, DRACO, updates on ESD, GOAT, IRC, LR-CPCM, MBIS, meta-GGA TD-DFT gradient, ML-optimized integration grids, 
  MM, NACMEs, nearIR, NEB, NEB-TS, NL-DFT gradient (VV10), 2- and 3-layer-ONIOM, interface openCOSMO-RS, QMMM,   
  Crystal-QMMM, SF, symmetry and pop. for TD-DFT, r2SCAN hybrids, SOLVATOR                                   
                                                                         
[Other institutions]                                                     
  V. Asgeirsson          : NEB                                           
  Christoph Bannwarth    : sTDA-DFT, sTD-DFT, PBEh-3c, B97-3c, D3        
  Sebastian Ehlert       : rSCAN, r2SCAN, r2SCAN-3c, D4, dhf basis sets  
  Marvin Friede          : D4 for Fr, Ra, Ac-Lr                          
  Lars Goerigk           : TD-DFT with DH, B97 family of functionals     
  Stefan Grimme          : VdW corrections, initial TS optimization, DFT functionals, gCP, sTDA/sTD-DF 
  Waldemar Hujo          : DFT-NL                                        
  H. Jonsson             : NEB                                           
  Holger Kruse           : gCP                                           
  Marcel Mueller         : wB97X-3c, vDZP basis set                      
  Hagen Neugebauer       : wr2SCAN                                       
  Tobias Risthaus        : range-separated hybrid DFT                    
  Lukas Wittmann         : regularized MP2, r2SCAN double-hybrids, wr2SCAN        
                                                                         
We gratefully acknowledge several colleagues who have allowed us to      
interface, adapt or use parts of their codes:                            
  Ed Valeev, F. Pavosevic, A. Kumar             : LibInt (2-el integral package), F12 methods 
  Garnet Chan, S. Sharma, J. Yang, R. Olivares  : DMRG                   
  Ulf Ekstrom                                   : XCFun DFT Library      
  Mihaly Kallay                                 : mrcc  (arbitrary order and MRCC methods)
  Frank Weinhold                                : gennbo (NPA and NBO analysis)           
  Simon Mueller                                 : openCOSMO-RS                            
  Christopher J. Cramer and Donald G. Truhlar   : smd solvation model                     
  S Lehtola, MJT Oliveira, MAL Marques          : LibXC Library                           
  Liviu Ungur et al                             : ANISO software                          


 Your calculation uses the libint2 library for the computation of 2-el integrals
 For citations please refer to: http://libint.valeyev.net

 Your ORCA version has been built with support for libXC version: 6.2.2
 For citations please refer to: https://libxc.gitlab.io

 This ORCA versions uses:
   CBLAS   interface :  Fast vector & matrix operations
   LAPACKE interface :  Fast linear algebra routines
   SCALAPACK package :  Parallel linear algebra routines
   Shared memory     :  Shared parallel matrices
   BLAS/LAPACK       :  OpenBLAS 0.3.27  USE64BITINT DYNAMIC_ARCH NO_AFFINITY Zen SINGLE_THREADED
        Core in use  :  Zen
   Copyright (c) 2011-2014, The OpenBLAS Project


Your calculation utilizes the geometrical counterpoise correction gCP
Please cite in your paper:
H.Kruse, S. Grimme J.Chem.Phys., 136, (2012), 154101 
   

Your calculation utilizes the atom-pairwise dispersion correction
based on EEQ partial charges (D4)


================================================================================

----- Orbital basis set information -----
Your calculation utilizes the basis: def2-SV(P)
   F. Weigend and R. Ahlrichs, Phys. Chem. Chem. Phys. 7, 3297 (2005).

----- AuxJ basis set information -----
Your calculation utilizes the auxiliary basis: def2/J
   F. Weigend, Phys. Chem. Chem. Phys. 8, 1057 (2006).

================================================================================
                                        WARNINGS
                       Please study these warnings very carefully!
================================================================================


================================================================================
                                       INPUT FILE
================================================================================
NAME = sp.inp
|  1> ! pbe def2-sv(p) def2/J RI DEFGRID1 loosescf d4 GCP(DFT/SV(P)) printgap
|  2> %output
|  3>     printlevel normal
|  4> end
|  5> * xyz 0 1
|  6> C 1.083789825 1.4959372756 -0.032899676
|  7> C 0.4572036684 0.1317064098 -0.0268776331
|  8> C 1.1875174028 -0.9729887146 0.0979156511
|  9> C -0.9958048442 0.1211808319 -0.1926145899
| 10> C -1.8135548921 -0.8684429531 0.1418665628
| 11> H 2.1569879989 1.4349893603 0.1268656826
| 12> H 0.6466180089 2.1147097453 0.7503069561
| 13> H 0.900145816 1.9886911805 -0.9875540309
| 14> H 0.7497076829 -1.9552986787 0.074074683
| 15> H 2.2569228306 -0.9317883609 0.2168303853
| 16> H -1.4123703884 1.0315080421 -0.6070557658
| 17> H -2.8771486813 -0.7973516783 -0.0100370385
| 18> H -1.4573992165 -1.7818734567 0.5868369402
| 19> *
| 20> 
| 21>                          ****END OF INPUT****
================================================================================

                       ****************************
                       * Single Point Calculation *
                       ****************************

---------------------------------
CARTESIAN COORDINATES (ANGSTROEM)
---------------------------------
  C      1.083790    1.495937   -0.032900
  C      0.457204    0.131706   -0.026878
  C      1.187517   -0.972989    0.097916
  C     -0.995805    0.121181   -0.192615
  C     -1.813555   -0.868443    0.141867
  H      2.156988    1.434989    0.126866
  H      0.646618    2.114710    0.750307
  H      0.900146    1.988691   -0.987554
  H      0.749708   -1.955299    0.074075
  H      2.256923   -0.931788    0.216830
  H     -1.412370    1.031508   -0.607056
  H     -2.877149   -0.797352   -0.010037
  H     -1.457399   -1.781873    0.586837

----------------------------
CARTESIAN COORDINATES (A.U.)
----------------------------
  NO LB      ZA    FRAG     MASS         X           Y           Z
   0 C     6.0000    0    12.011    2.048066    2.826912   -0.062171
   1 C     6.0000    0    12.011    0.863990    0.248889   -0.050791
   2 C     6.0000    0    12.011    2.244083   -1.838682    0.185034
   3 C     6.0000    0    12.011   -1.881798    0.228999   -0.363989
   4 C     6.0000    0    12.011   -3.427122   -1.641119    0.268089
   5 H     1.0000    0     1.008    4.076117    2.711737    0.239741
   6 H     1.0000    0     1.008    1.221931    3.996222    1.417875
   7 H     1.0000    0     1.008    1.701029    3.758082   -1.866207
   8 H     1.0000    0     1.008    1.416742   -3.694979    0.139981
   9 H     1.0000    0     1.008    4.264966   -1.760825    0.409750
  10 H     1.0000    0     1.008   -2.668993    1.949268   -1.147169
  11 H     1.0000    0     1.008   -5.437023   -1.506776   -0.018967
  12 H     1.0000    0     1.008   -2.754085   -3.367253    1.108961

--------------------------------
INTERNAL COORDINATES (ANGSTROEM)
--------------------------------
 C      0   0   0     0.000000000000     0.00000000     0.00000000
 C      1   0   0     1.501256917335     0.00000000     0.00000000
 C      2   1   0     1.330143914134   121.73029955     0.00000000
 C      2   1   3     1.462468209681   114.88259703   181.09376850
 C      4   2   1     1.326630324616   126.10168813   200.11869996
 H      1   2   3     1.086735450167   111.13833697   357.03122462
 H      1   2   3     1.089683988419   110.22367644   236.31572217
 H      1   2   3     1.089906633692   110.12252371   117.53843172
 H      3   2   1     1.075722365747   122.19834726   181.84451445
 H      3   2   1     1.076785100270   121.59217160     1.07558626
 H      4   2   1     1.083505408628   114.78881889    18.51256162
 H      5   4   2     1.076736003794   121.60536149   179.79041478
 H      5   4   2     1.076661872146   122.21972475     0.34541970

---------------------------
INTERNAL COORDINATES (A.U.)
---------------------------
 C      0   0   0     0.000000000000     0.00000000     0.00000000
 C      1   0   0     2.836964430417     0.00000000     0.00000000
 C      2   1   0     2.513607716415   121.73029955     0.00000000
 C      2   1   3     2.763664395863   114.88259703   181.09376850
 C      4   2   1     2.506967994479   126.10168813   200.11869996
 H      1   2   3     2.053632380840   111.13833697   357.03122462
 H      1   2   3     2.059204310630   110.22367644   236.31572217
 H      1   2   3     2.059625049221   110.12252371   117.53843172
 H      3   2   1     2.032820667396   122.19834726   181.84451445
 H      3   2   1     2.034828944597   121.59217160     1.07558626
 H      4   2   1     2.047528486930   114.78881889    18.51256162
 H      5   4   2     2.034736165703   121.60536149   179.79041478
 H      5   4   2     2.034596077191   122.21972475     0.34541970

---------------------
BASIS SET INFORMATION
---------------------
There are 2 groups of distinct atoms

 Group   1 Type C   : 7s4p1d contracted to 3s2p1d pattern {511/31/1}
 Group   2 Type H   : 4s contracted to 2s pattern {31}

Atom   0C    basis set group =>   1
Atom   1C    basis set group =>   1
Atom   2C    basis set group =>   1
Atom   3C    basis set group =>   1
Atom   4C    basis set group =>   1
Atom   5H    basis set group =>   2
Atom   6H    basis set group =>   2
Atom   7H    basis set group =>   2
Atom   8H    basis set group =>   2
Atom   9H    basis set group =>   2
Atom  10H    basis set group =>   2
Atom  11H    basis set group =>   2
Atom  12H    basis set group =>   2
---------------------------------
AUXILIARY/J BASIS SET INFORMATION
---------------------------------
There are 2 groups of distinct atoms

 Group   1 Type C   : 12s5p4d2f1g contracted to 6s4p3d1f1g pattern {711111/2111/211/2/1}
 Group   2 Type H   : 5s2p1d contracted to 3s1p1d pattern {311/2/1}

Atom   0C    basis set group =>   1
Atom   1C    basis set group =>   1
Atom   2C    basis set group =>   1
Atom   3C    basis set group =>   1
Atom   4C    basis set group =>   1
Atom   5H    basis set group =>   2
Atom   6H    basis set group =>   2
Atom   7H    basis set group =>   2
Atom   8H    basis set group =>   2
Atom   9H    basis set group =>   2
Atom  10H    basis set group =>   2
Atom  11H    basis set group =>   2
Atom  12H    basis set group =>   2
------------------------------------------------------------------------------
                             ORCA STARTUP CALCULATIONS
                           -- RI-GTO INTEGRALS CHOSEN --
------------------------------------------------------------------------------
------------------------------------------------------------------------------
                   ___                                                        
                  /   \      - P O W E R E D   B Y -                         
                 /     \                                                     
                 |  |  |   _    _      __       _____    __    __             
                 |  |  |  | |  | |    /  \     |  _  \  |  |  /  |          
                  \  \/   | |  | |   /    \    | | | |  |  | /  /          
                 / \  \   | |__| |  /  /\  \   | |_| |  |  |/  /          
                |  |  |   |  __  | /  /__\  \  |    /   |      \           
                |  |  |   | |  | | |   __   |  |    \   |  |\   \          
                \     /   | |  | | |  |  |  |  | |\  \  |  | \   \       
                 \___/    |_|  |_| |__|  |__|  |_| \__\ |__|  \__/        
                                                                              
                      - O R C A' S   B I G   F R I E N D -                    
                                      &                                       
                       - I N T E G R A L  F E E D E R -                       
                                                                              
 v1 FN, 2020, v2 2021, v3 2022-2024                                           
------------------------------------------------------------------------------


----------------------
SHARK INTEGRAL PACKAGE
----------------------

Number of atoms                             ...     13
Number of basis functions                   ...     86
Number of shells                            ...     46
Maximum angular momentum                    ...      2
Integral batch strategy                     ... SHARK/LIBINT Hybrid
RI-J (if used) integral strategy            ... SPLIT-RIJ (Revised 2003 algorithm where possible)
Printlevel                                  ...      1
Contraction scheme used                     ... SEGMENTED contraction
Prescreening option                         ... SCHWARTZ
   Thresh                                   ... 1.000e-09
   Tcut                                     ... 1.000e-10
   Tpresel                                  ... 1.000e-10 
Coulomb Range Separation                    ... NOT USED
Exchange Range Separation                   ... NOT USED
Multipole approximations                    ... NOT USED
Finite Nucleus Model                        ... NOT USED
CABS basis                                  ... NOT available
Auxiliary Coulomb fitting basis             ... AVAILABLE
   # of basis functions in Aux-J            ...    333
   # of shells in Aux-J                     ...    115
   Maximum angular momentum in Aux-J        ...      4
Auxiliary J/K fitting basis                 ... NOT available
Auxiliary Correlation fitting basis         ... NOT available
Auxiliary 'external' fitting basis          ... NOT available

Checking pre-screening integrals            ... done (  0.0 sec) Dimension = 46
Check shell pair data                       ... done (  0.0 sec)
Shell pair information
Shell pair cut-off parameter TPreSel        ...   1.0e-10
Total number of shell pairs                 ...      1081
Shell pairs after pre-screening             ...      1063
Total number of primitive shell pairs       ...      4367
Primitive shell pairs kept                  ...      3266
          la=0 lb=0:    482 shell pairs
          la=1 lb=0:    308 shell pairs
          la=1 lb=1:     55 shell pairs
          la=2 lb=0:    153 shell pairs
          la=2 lb=1:     50 shell pairs
          la=2 lb=2:     15 shell pairs

Calculating one electron integrals          ... done (  0.0 sec)
Calculating RI/J V-Matrix + Cholesky decomp.... done (  0.0 sec)
Calculating Nuclear repulsion               ... done (  0.0 sec) ENN=    160.807189346322 Eh

Diagonalization of the overlap matrix:
Smallest eigenvalue                        ... 1.589e-03
Time for diagonalization                   ...    0.003 sec
Threshold for overlap eigenvalues          ... 1.000e-07
Number of eigenvalues below threshold      ... 0
Time for construction of square roots      ...    0.003 sec
Total time needed                          ...    0.008 sec

-------------------
DFT GRID GENERATION
-------------------

General Integration Accuracy     IntAcc      ... 4.159
Radial Grid Type                 RadialGrid  ... OptM3 with GC (2021)
Angular Grid (max. ang.)         AngularGrid ... 3 (Lebedev-194)
Angular grid pruning method      GridPruning ... 4 (adaptive)
Weight generation scheme         WeightScheme... mBecke (2022)
Basis function cutoff            BFCut       ... 1.0000e-10
Integration weight cutoff        WCut        ... 1.0000e-14
Partially contracted basis set               ... off
Rotationally invariant grid construction     ... off
Angular grids for H and He will be reduced by one unit

Total number of grid points                  ...    27811
Total number of batches                      ...      442
Average number of points per batch           ...       62
Average number of grid points per atom       ...     2139
Initializing property integral containers    ... done (  0.0 sec)

SHARK setup successfully completed in   0.3 seconds

Maximum memory used throughout the entire STARTUP-calculation: 13.7 MB
-------------------------------------------------------------------------------
                                 ORCA GUESS
                   Start orbitals & Density for SCF / CASSCF
-------------------------------------------------------------------------------

------------
SCF SETTINGS
------------
Hamiltonian:
 Density Functional     Method          .... DFT(GTOs)
 Exchange Functional    Exchange        .... PBE
   PBE kappa parameter   XKappa         ....  0.804000
   PBE mue parameter    XMuePBE         ....  0.219520
 Correlation Functional Correlation     .... PBE
   PBE beta parameter  CBetaPBE         ....  0.066725
 LDA part of GGA corr.  LDAOpt          .... PW91-LDA
 Gradients option       PostSCFGGA      .... off
   NL short-range parameter             ....  6.400000
 RI-approximation to the Coulomb term is turned on
   Number of AuxJ basis functions       .... 333


General Settings:
 Integral files         IntName         .... sp
 Hartree-Fock type      HFTyp           .... RHF
 Total Charge           Charge          ....    0
 Multiplicity           Mult            ....    1
 Number of Electrons    NEL             ....   38
 Basis Dimension        Dim             ....   86
 Nuclear Repulsion      ENuc            ....    160.8071893463 Eh

Convergence Acceleration:
 AO-DIIS                CNVDIIS         .... on
   Start iteration      DIISMaxIt       ....    12
   Startup error        DIISStart       ....  0.200000
   # of expansion vecs  DIISMaxEq       ....     5
   Bias factor          DIISBfac        ....   1.050
   Max. coefficient     DIISMaxC        ....  10.000
 MO-DIIS                CNVKDIIS        .... off
 Trust-Rad. Augm. Hess. CNVTRAH         .... auto
   Auto Start mean grad. ratio tolernc. ....  1.125000
   Auto Start start iteration           ....    50
   Auto Start num. interpolation iter.  ....    10
   Max. Number of Micro iterations      ....    24
   Max. Number of Macro iterations      .... Maxiter - #DIIS iter
   Number of Davidson start vectors     ....     2
   Converg. threshold    (grad. norm)   ....   1.000e-04
   Grad. Scal. Fac. for Micro threshold ....   0.100
   Minimum threshold for Micro iter.    ....   1.000e-02
   NR start threshold (gradient norm)   ....   1.000e-04
   Initial trust radius                 ....   0.400
   Minimum AH scaling param. (alpha)    ....   1.000
   Maximum AH scaling param. (alpha)    .... 1000.000
   Quad. conv. algorithm                .... NR
   White noise on init. David. guess    .... on
   Maximum white noise                  ....   0.010
   Pseudo random numbers                .... off
   Inactive MOs                         .... canonical
   Orbital update algorithm             .... Taylor
   Preconditioner                       .... Diag
   Full preconditioner red. dimension   ....   250
 SOSCF                  CNVSOSCF        .... on
   Start iteration      SOSCFMaxIt      ....   150
   Startup grad/error   SOSCFStart      ....  0.003300
   Hessian update       SOSCFHessUp     .... L-BFGS
 Level Shifting         CNVShift        .... on
   Level shift para.    LevelShift      ....    0.2500
   Turn off err/grad.   ShiftErr        ....    0.0010
 Zerner damping         CNVZerner       .... off
 Static damping         CNVDamp         .... on
   Fraction old density DampFac         ....    0.7000
   Max. Damping (<1)    DampMax         ....    0.9800
   Min. Damping (>=0)   DampMin         ....    0.0000
   Turn off err/grad.   DampErr         ....    0.1000

SCF Procedure:
 Maximum # iterations   MaxIter         ....   125
 SCF integral mode      SCFMode         .... Direct
   Integral package                     .... SHARK and LIBINT hybrid scheme
 Reset frequency        DirectResetFreq ....    20
 Integral Threshold     Thresh          ....  1.000e-09 Eh
 Primitive CutOff       TCut            ....  1.000e-10 Eh

Convergence Tolerance:
 Convergence Check Mode ConvCheckMode   .... Total+1el-Energy
 Convergence forced     ConvForced      .... 0
 Energy Change          TolE            ....  1.000e-05 Eh
 1-El. energy change                    ....  1.000e-02 Eh
 Orbital Gradient       TolG            ....  1.000e-04
 Orbital Rotation angle TolX            ....  1.000e-04
 DIIS Error             TolErr          ....  5.000e-04

------------------------------
INITIAL GUESS: MODEL POTENTIAL
------------------------------
Loading Hartree-Fock densities                     ... done
Calculating cut-offs                               ... done
Initializing the effective Hamiltonian             ... done
Setting up the integral package (SHARK)            ... done
Starting the Coulomb interaction                   ... done (   0.0 sec)
Making the grid                                    ... done (   0.1 sec)
Mapping shells                                     ... done
Starting the XC term evaluation                    ... done (   0.1 sec)
  promolecular density results
     # of electrons  =     37.996210471
     EX              =    -27.891043722
     EC              =     -1.212484241
     EX+EC           =    -29.103527963
Transforming the Hamiltonian                       ... done (   0.0 sec)
Diagonalizing the Hamiltonian                      ... done (   0.0 sec)
Back transforming the eigenvectors                 ... done (   0.0 sec)
Now organizing SCF variables                       ... done
                      ------------------
                      INITIAL GUESS DONE (   0.2 sec)
                      ------------------
             **** ENERGY FILE WAS UPDATED (sp.en.tmp) ****
Finished Guess after   0.2 sec
Maximum memory used throughout the entire GUESS-calculation: 10.7 MB

-------------------------------------------------------------------------------------------
                                      ORCA LEAN-SCF
                              memory conserving SCF solver
-------------------------------------------------------------------------------------------

----------------------------------------D-I-I-S--------------------------------------------
Iteration    Energy (Eh)           Delta-E    RMSDP     MaxDP     DIISErr   Damp  Time(sec)
-------------------------------------------------------------------------------------------
               ***  Starting incremental Fock matrix formation  ***
    1    -194.7226016634234043     0.00e+00  5.10e-03  7.83e-02  1.57e-01  0.700   0.2
    2    -194.7898269186743505    -6.72e-02  3.82e-03  4.59e-02  7.69e-02  0.700   0.2
                               ***Turning on AO-DIIS***
    3    -194.8153811084309268    -2.56e-02  1.45e-03  1.32e-02  2.40e-02  0.700   0.2
    4    -194.8297685234946357    -1.44e-02  2.11e-03  2.29e-02  9.93e-03  0.000   0.2
    5    -194.8614260282952841    -3.17e-02  5.60e-04  4.77e-03  5.54e-03  0.000   0.2
                              *** Initializing SOSCF ***
---------------------------------------S-O-S-C-F--------------------------------------
Iteration    Energy (Eh)           Delta-E    RMSDP     MaxDP     MaxGrad    Time(sec)
--------------------------------------------------------------------------------------
    6    -194.8616635008447702    -2.37e-04  2.09e-04  1.80e-03  1.42e-03     0.2
               *** Restarting incremental Fock matrix formation ***
    7    -194.8616789764193982    -1.55e-05  1.30e-04  1.83e-03  3.93e-04     0.2
    8    -194.8616726047839052     6.37e-06  7.47e-05  1.36e-03  1.02e-03     0.2
                 **** Energy Check signals convergence ****

               *****************************************************
               *                     SUCCESS                       *
               *           SCF CONVERGED AFTER   8 CYCLES          *
               *****************************************************

             **** ENERGY FILE WAS UPDATED (sp.en.tmp) ****

----------------
TOTAL SCF ENERGY
----------------

Total Energy       :       -194.86167260478391 Eh           -5302.45568 eV

Components:
Nuclear Repulsion  :        160.80718934632188 Eh            4375.78608 eV
Electronic Energy  :       -355.66886195110578 Eh           -9678.24177 eV
One Electron Energy:       -579.10935684967296 Eh          -15758.36674 eV
Two Electron Energy:        223.44049489856718 Eh            6080.12497 eV

Virial components:
Potential Energy   :       -388.00089832549259 Eh          -10558.04120 eV
Kinetic Energy     :        193.13922572070868 Eh            5255.58552 eV
Virial Ratio       :          2.00891816189926

DFT components:
N(Alpha)           :       18.999898306365 electrons
N(Beta)            :       18.999898306365 electrons
N(Total)           :       37.999796612729 electrons
E(X)               :      -28.558599911682 Eh       
E(C)               :       -1.227691326269 Eh       
E(XC)              :      -29.786291237951 Eh       

---------------
SCF CONVERGENCE
---------------

  Last Energy change         ...   -6.3716e-06  Tolerance :   1.0000e-05
  Last MAX-Density change    ...    1.3579e-03  Tolerance :   1.0000e-03
  Last RMS-Density change    ...    7.4666e-05  Tolerance :   1.0000e-04
  Last DIIS Error            ...    1.4182e-03  Tolerance :   5.0000e-04
  Last Orbital Gradient      ...    1.0180e-03  Tolerance :   1.0000e-04
  Last Orbital Rotation      ...    1.3183e-03  Tolerance :   1.0000e-04


----------------
ORBITAL ENERGIES
----------------

  NO   OCC          E(Eh)            E(eV) 
   0   2.0000      -9.903149      -269.4784 
   1   2.0000      -9.894832      -269.2521 
   2   2.0000      -9.883269      -268.9374 
   3   2.0000      -9.881021      -268.8762 
   4   2.0000      -9.874793      -268.7068 
   5   2.0000      -0.739963       -20.1354 
   6   2.0000      -0.665029       -18.0964 
   7   2.0000      -0.613954       -16.7065 
   8   2.0000      -0.542462       -14.7611 
   9   2.0000      -0.460448       -12.5294 
  10   2.0000      -0.428323       -11.6553 
  11   2.0000      -0.404124       -10.9968 
  12   2.0000      -0.377701       -10.2778 
  13   2.0000      -0.365188        -9.9373 
  14   2.0000      -0.337941        -9.1958 
  15   2.0000      -0.314714        -8.5638 
  16   2.0000      -0.300176        -8.1682 
  17   2.0000      -0.272031        -7.4023 
  18   2.0000      -0.202897        -5.5211 
  19   0.0000      -0.057950        -1.5769 
  20   0.0000       0.035739         0.9725 
  21   0.0000       0.051399         1.3986 
  22   0.0000       0.074196         2.0190 
  23   0.0000       0.079479         2.1627 
  24   0.0000       0.089747         2.4421 
  25   0.0000       0.128030         3.4839 
  26   0.0000       0.130627         3.5546 
  27   0.0000       0.149491         4.0679 
  28   0.0000       0.153188         4.1685 
  29   0.0000       0.205808         5.6003 
*Only the first 10 virtual orbitals were printed.

                    ********************************
                    * MULLIKEN POPULATION ANALYSIS *
                    ********************************

-----------------------
MULLIKEN ATOMIC CHARGES
-----------------------
   0 C :   -0.238056
   1 C :   -0.020669
   2 C :   -0.235938
   3 C :   -0.077157
   4 C :   -0.195803
   5 H :    0.100555
   6 H :    0.114622
   7 H :    0.114491
   8 H :    0.089838
   9 H :    0.086908
  10 H :    0.058791
  11 H :    0.101118
  12 H :    0.101301
Sum of atomic charges:   -0.0000000

--------------------------------
MULLIKEN REDUCED ORBITAL CHARGES
--------------------------------
  0 C s       :     3.044627  s :     3.044627
      pz      :     1.065820  p :     3.164529
      px      :     1.057502
      py      :     1.041207
      dz2     :     0.005085  d :     0.028899
      dxz     :     0.002562
      dyz     :     0.009004
      dx2y2   :     0.007729
      dxy     :     0.004519

  1 C s       :     3.043362  s :     3.043362
      pz      :     0.961884  p :     2.934673
      px      :     0.982119
      py      :     0.990670
      dz2     :     0.002719  d :     0.042635
      dxz     :     0.005860
      dyz     :     0.007527
      dx2y2   :     0.014391
      dxy     :     0.012139

  2 C s       :     3.194991  s :     3.194991
      pz      :     1.039222  p :     3.014466
      px      :     0.965375
      py      :     1.009869
      dz2     :     0.003345  d :     0.026481
      dxz     :     0.001562
      dyz     :     0.002867
      dx2y2   :     0.011689
      dxy     :     0.007017

  3 C s       :     3.152477  s :     3.152477
      pz      :     0.978888  p :     2.889783
      px      :     0.982380
      py      :     0.928515
      dz2     :     0.002718  d :     0.034897
      dxz     :     0.006508
      dyz     :     0.004488
      dx2y2   :     0.011223
      dxy     :     0.009960

  4 C s       :     3.169508  s :     3.169508
      pz      :     1.005777  p :     2.999333
      px      :     0.994702
      py      :     0.998855
      dz2     :     0.002781  d :     0.026962
      dxz     :     0.002599
      dyz     :     0.004657
      dx2y2   :     0.011374
      dxy     :     0.005552

  5 H s       :     0.899445  s :     0.899445

  6 H s       :     0.885378  s :     0.885378

  7 H s       :     0.885509  s :     0.885509

  8 H s       :     0.910162  s :     0.910162

  9 H s       :     0.913092  s :     0.913092

 10 H s       :     0.941209  s :     0.941209

 11 H s       :     0.898882  s :     0.898882

 12 H s       :     0.898699  s :     0.898699


------------------------
MULLIKEN OVERLAP CHARGES
------------------------
B(  0-C ,  1-C ) :   0.8590 B(  0-C ,  2-C ) :  -0.1812 B(  0-C ,  3-C ) :  -0.2063 
B(  0-C ,  5-H ) :   0.7121 B(  0-C ,  6-H ) :   0.7153 B(  0-C ,  7-H ) :   0.7096 
B(  0-C ,  9-H ) :  -0.0551 B(  1-C ,  2-C ) :   1.3894 B(  1-C ,  3-C ) :   0.6367 
B(  1-C , 10-H ) :  -0.1368 B(  1-C , 12-H ) :  -0.0737 B(  2-C ,  3-C ) :  -0.1034 
B(  2-C ,  4-C ) :  -0.0684 B(  2-C ,  8-H ) :   0.6808 B(  2-C ,  9-H ) :   0.6731 
B(  3-C ,  4-C ) :   1.3230 B(  3-C ,  8-H ) :  -0.0734 B(  3-C , 10-H ) :   0.7779 
B(  4-C , 10-H ) :  -0.1266 B(  4-C , 11-H ) :   0.7135 B(  4-C , 12-H ) :   0.6914 
B(  6-H ,  7-H ) :  -0.0513 B(  8-H ,  9-H ) :  -0.1115 B( 11-H , 12-H ) :  -0.1072 



                     *******************************
                     * LOEWDIN POPULATION ANALYSIS *
                     *******************************

----------------------
LOEWDIN ATOMIC CHARGES
----------------------
   0 C :   -0.321937
   1 C :   -0.063701
   2 C :   -0.246180
   3 C :   -0.127128
   4 C :   -0.231547
   5 H :    0.124085
   6 H :    0.129476
   7 H :    0.130215
   8 H :    0.119260
   9 H :    0.119968
  10 H :    0.121343
  11 H :    0.124092
  12 H :    0.122055

-------------------------------
LOEWDIN REDUCED ORBITAL CHARGES
-------------------------------
  0 C s       :     2.939972  s :     2.939972
      pz      :     1.121468  p :     3.311328
      px      :     1.112608
      py      :     1.077253
      dz2     :     0.013255  d :     0.070636
      dxz     :     0.005682
      dyz     :     0.020979
      dx2y2   :     0.019092
      dxy     :     0.011628

  1 C s       :     2.860632  s :     2.860632
      pz      :     0.944293  p :     3.091938
      px      :     1.061417
      py      :     1.086228
      dz2     :     0.007136  d :     0.111131
      dxz     :     0.012387
      dyz     :     0.014850
      dx2y2   :     0.041431
      dxy     :     0.035328

  2 C s       :     2.953011  s :     2.953011
      pz      :     1.042741  p :     3.224899
      px      :     1.084334
      py      :     1.097824
      dz2     :     0.006639  d :     0.068270
      dxz     :     0.003147
      dyz     :     0.005794
      dx2y2   :     0.031677
      dxy     :     0.021013

  3 C s       :     2.902256  s :     2.902256
      pz      :     0.991946  p :     3.132664
      px      :     1.062738
      py      :     1.077981
      dz2     :     0.006615  d :     0.092208
      dxz     :     0.014750
      dyz     :     0.010169
      dx2y2   :     0.032282
      dxy     :     0.028392

  4 C s       :     2.955521  s :     2.955521
      pz      :     1.025258  p :     3.206992
      px      :     1.091678
      py      :     1.090056
      dz2     :     0.005902  d :     0.069034
      dxz     :     0.006017
      dyz     :     0.010522
      dx2y2   :     0.029247
      dxy     :     0.017347

  5 H s       :     0.875915  s :     0.875915

  6 H s       :     0.870524  s :     0.870524

  7 H s       :     0.869785  s :     0.869785

  8 H s       :     0.880740  s :     0.880740

  9 H s       :     0.880032  s :     0.880032

 10 H s       :     0.878657  s :     0.878657

 11 H s       :     0.875908  s :     0.875908

 12 H s       :     0.877945  s :     0.877945


---------------------------------
LOEWDIN BOND ORDERS (THRESH 0.050000)
---------------------------------
B(  0-C ,  1-C ) :   1.0976 B(  0-C ,  2-C ) :   0.0858 B(  0-C ,  3-C ) :   0.0668 
B(  0-C ,  5-H ) :   0.9327 B(  0-C ,  6-H ) :   0.9250 B(  0-C ,  7-H ) :   0.9229 
B(  1-C ,  2-C ) :   1.9244 B(  1-C ,  3-C ) :   1.1248 B(  1-C ,  4-C ) :   0.0850 
B(  2-C ,  3-C ) :   0.0825 B(  2-C ,  4-C ) :   0.1186 B(  2-C ,  8-H ) :   0.9168 
B(  2-C ,  9-H ) :   0.9191 B(  3-C ,  4-C ) :   2.0193 B(  3-C , 10-H ) :   0.8809 
B(  3-C , 11-H ) :   0.0502 B(  4-C , 11-H ) :   0.9222 B(  4-C , 12-H ) :   0.9184 


------------------------------------------
LOEWDIN REDUCED ORBITAL POPULATIONS PER MO
-------------------------------------------
THRESHOLD FOR PRINTING IS 0.1%%
                      0         1         2         3         4         5   
                  -9.90315  -9.89483  -9.88327  -9.88102  -9.87479  -0.73996
                   2.00000   2.00000   2.00000   2.00000   2.00000   2.00000
                  --------  --------  --------  --------  --------  --------
 0 C  s               0.0       0.0      99.7       0.0       0.0      10.1
 0 C  px              0.0       0.0       0.0       0.0       0.0       0.7
 0 C  py              0.1       0.0       0.0       0.0       0.0       2.3
 1 C  s              99.5       0.0       0.0       0.0       0.0      26.8
 1 C  px              0.0       0.1       0.0       0.0       0.1       0.2
 1 C  py              0.0       0.0       0.1       0.0       0.1       0.0
 1 C  dz2             0.0       0.0       0.0       0.0       0.0       0.3
 2 C  s               0.0       0.0       0.0       0.0      99.6      10.8
 2 C  px              0.1       0.0       0.0       0.0       0.0       1.4
 2 C  py              0.1       0.0       0.0       0.0       0.0       2.7
 3 C  s               0.0      99.5       0.0       0.1       0.0      18.0
 3 C  pz              0.0       0.0       0.0       0.0       0.0       0.2
 3 C  px              0.1       0.0       0.0       0.1       0.0       1.8
 3 C  py              0.0       0.0       0.0       0.1       0.0       0.3
 3 C  dz2             0.0       0.0       0.0       0.0       0.0       0.1
 4 C  s               0.0       0.1       0.0      99.6       0.0       7.0
 4 C  pz              0.0       0.0       0.0       0.0       0.0       0.1
 4 C  px              0.0       0.1       0.0       0.0       0.0       1.4
 4 C  py              0.0       0.1       0.0       0.0       0.0       1.2
 5 H  s               0.0       0.0       0.1       0.0       0.0       1.8
 6 H  s               0.0       0.0       0.1       0.0       0.0       1.8
 7 H  s               0.0       0.0       0.1       0.0       0.0       1.8
 8 H  s               0.0       0.0       0.0       0.0       0.1       1.8
 9 H  s               0.0       0.0       0.0       0.0       0.1       1.6
10 H  s               0.0       0.1       0.0       0.0       0.0       3.1
11 H  s               0.0       0.0       0.0       0.1       0.0       0.9
12 H  s               0.0       0.0       0.0       0.1       0.0       1.3

                      6         7         8         9        10        11   
                  -0.66503  -0.61395  -0.54246  -0.46045  -0.42832  -0.40412
                   2.00000   2.00000   2.00000   2.00000   2.00000   2.00000
                  --------  --------  --------  --------  --------  --------
 0 C  s              11.3      19.2       4.4       0.3       0.9       0.2
 0 C  pz              0.0       0.0       0.0       0.1       0.0       1.1
 0 C  px              0.0       0.1       3.0       0.4       0.1      14.3
 0 C  py              0.3       1.3       1.2       3.7      13.6       0.1
 0 C  dz2             0.0       0.0       0.0       0.0       0.1       0.0
 1 C  s               3.4       1.1       3.4       6.3       1.5       0.1
 1 C  pz              0.0       0.1       0.4       0.1       0.0       0.8
 1 C  px              8.7       1.1      11.8       0.0      10.6       2.2
 1 C  py              0.7      20.9       0.3       0.1       1.7       5.9
 1 C  dx2y2           0.2       0.0       0.2       0.0       0.0       0.0
 1 C  dxy             0.0       0.4       0.0       0.0       0.0       0.0
 2 C  s               4.1      23.4       3.1       5.0       0.2       0.5
 2 C  px              0.0       0.2       1.7       7.5       4.3       1.1
 2 C  py              0.9       0.2       0.5       9.1      16.1       6.9
 2 C  dz2             0.0       0.2       0.0       0.0       0.0       0.0
 2 C  dxy             0.0       0.0       0.1       0.2       0.1       0.1
 3 C  s              14.0       0.7       6.6       3.7       0.1       0.9
 3 C  pz              0.2       0.0       0.6       1.9       1.0       0.9
 3 C  px              6.2       0.5       8.4       8.9       4.8       4.0
 3 C  py              2.8       0.7       6.7       5.8       3.9      10.9
 3 C  dx2y2           0.0       0.0       0.1       0.1       0.0       0.0
 3 C  dxy             0.1       0.0       0.1       0.0       0.0       0.0
 4 C  s              23.6       0.5      14.0       1.7       0.2       0.6
 4 C  pz              0.2       0.0       0.3       2.1       0.7       1.2
 4 C  px              0.6       0.1       2.5       0.0      11.4      12.7
 4 C  py              1.4       0.2       3.0      10.6       2.0      11.2
 4 C  dz2             0.1       0.0       0.0       0.0       0.0       0.0
 4 C  dxy             0.1       0.0       0.1       0.1       0.0       0.3
 5 H  s               2.8       4.2       3.6       0.6       0.0       6.9
 6 H  s               2.3       6.0       1.3       0.6       3.6       0.0
 7 H  s               2.3       6.0       1.3       0.9       2.6       0.4
 8 H  s               0.4       6.5       1.3       4.7       9.5       3.1
 9 H  s               1.2       5.2       2.5       8.0       0.8       0.9
10 H  s               2.6       0.8       3.7      10.4       2.4       1.4
11 H  s               4.8       0.2       7.1       0.3       5.6       6.7
12 H  s               4.3       0.0       6.6       6.4       2.0       4.0

                     12        13        14        15        16        17   
                  -0.37770  -0.36519  -0.33794  -0.31471  -0.30018  -0.27203
                   2.00000   2.00000   2.00000   2.00000   2.00000   2.00000
                  --------  --------  --------  --------  --------  --------
 0 C  s               0.0       0.0       0.0       0.5       0.3       0.1
 0 C  pz             39.9       6.3       2.9       0.1       0.0       5.1
 0 C  px              2.7       0.2      28.8       0.5       4.2       0.8
 0 C  py              0.3       5.0       2.3      17.0       6.3       0.3
 0 C  dz2             0.1       0.0       0.3       0.1       0.0       0.0
 0 C  dxz             0.2       0.0       0.0       0.0       0.0       0.0
 0 C  dyz             0.2       0.1       0.0       0.0       0.0       0.4
 0 C  dx2y2           0.0       0.0       0.5       0.0       0.2       0.0
 0 C  dxy             0.0       0.1       0.0       0.2       0.0       0.0
 1 C  s               0.0       0.2       0.1       0.4       0.1       0.0
 1 C  pz             11.1       0.8       0.1       0.0       0.3      17.3
 1 C  px              0.2       0.1       0.9       0.6      15.9       0.4
 1 C  py              2.9       7.1       0.0      11.9       2.1       0.3
 1 C  dyz             0.1       0.0       0.0       0.0       0.0       0.2
 1 C  dx2y2           0.0       0.4       0.2       0.1       1.0       0.0
 1 C  dxy             0.0       0.1       0.0       0.9       0.0       0.1
 2 C  s               0.0       0.2       0.2       0.4       0.0       0.1
 2 C  pz              2.7       0.1       0.0       0.0       0.0      11.0
 2 C  px              4.0      23.3       1.0       0.6       8.1       0.6
 2 C  py              0.1       0.1       1.5      15.9       0.7       0.1
 2 C  dx2y2           0.0       0.2       0.0       0.2       1.0       0.0
 2 C  dxy             0.0       0.0       0.0       0.2       0.1       0.0
 3 C  s               0.0       0.4       0.5       0.1       0.5       0.0
 3 C  pz              3.5       0.4       2.2       2.3       0.2      26.2
 3 C  px              0.0       0.6       1.5       0.1      15.6       0.2
 3 C  py              0.1       1.0       7.7       4.4       1.6       6.8
 3 C  dyz             0.0       0.0       0.0       0.1       0.1       0.1
 3 C  dx2y2           0.0       0.2       0.1       0.3       0.6       0.0
 3 C  dxy             0.0       0.1       0.3       0.6       0.0       0.1
 4 C  s               0.0       0.1       0.3       0.1       0.0       0.1
 4 C  pz              0.8       1.5       0.9       1.2       0.5      18.2
 4 C  px              0.7      15.3       0.3       1.1       7.4       0.9
 4 C  py              0.0       2.1       7.8       7.4       0.3       2.7
 4 C  dxz             0.0       0.0       0.0       0.0       0.0       0.1
 4 C  dyz             0.0       0.0       0.0       0.1       0.1       0.1
 4 C  dx2y2           0.0       0.2       0.0       0.3       0.8       0.0
 5 H  s               0.2       0.0      19.8       0.8       2.8       0.1
 6 H  s              10.9       6.1       2.1       4.4       0.0       3.1
 7 H  s              15.7       0.4       5.8       1.4       0.0       3.5
 8 H  s               0.1       1.7       1.3       8.9       4.7       0.0
 9 H  s               2.4      11.8       0.7       1.0       7.7       0.1
10 H  s               0.1       0.4       5.6       7.8       5.1       0.3
11 H  s               0.4       8.6       0.0       1.8       7.3       0.1
12 H  s               0.1       4.7       4.3       6.0       4.1       0.0

                     18        19        20        21        22        23   
                  -0.20290  -0.05795   0.03574   0.05140   0.07420   0.07948
                   2.00000   0.00000   0.00000   0.00000   0.00000   0.00000
                  --------  --------  --------  --------  --------  --------
 0 C  s               0.0       0.1       0.0      12.5       1.0       6.6
 0 C  pz              0.6       0.2       2.6       0.0       0.1       0.1
 0 C  px              0.0       0.0       0.0       0.8       0.4       1.7
 0 C  py              0.0       0.0       0.3       4.3       1.5       0.1
 0 C  dz2             0.0       0.0       0.1       0.0       0.0       0.0
 0 C  dyz             0.3       0.3       1.3       0.0       0.0       0.1
 0 C  dxy             0.0       0.0       0.0       0.1       0.0       0.0
 1 C  s               0.0       0.0       0.0       0.5       0.2       0.2
 1 C  pz             16.1      13.4      24.5       0.7       0.2       0.7
 1 C  px              0.2       0.1       0.3       0.0       0.0       0.6
 1 C  py              0.1       0.1       0.1       0.3       0.4       0.5
 1 C  dz2             0.0       0.1       0.0       0.1       0.0       0.2
 1 C  dxz             0.4       0.8       0.1       0.0       0.0       0.1
 1 C  dyz             0.3       0.4       0.6       0.0       0.0       0.0
 1 C  dxy             0.1       0.1       0.3       0.2       0.0       0.5
 2 C  s               0.0       0.0       0.1       4.0       6.4       0.7
 2 C  pz             38.1      28.5      13.7       0.2       0.4       0.3
 2 C  px              0.3       0.3       0.2       1.0       0.1       1.1
 2 C  py              0.0       0.0       0.3       0.2       4.8       0.3
 2 C  dz2             0.0       0.0       0.0       0.0       0.2       0.0
 2 C  dxz             0.0       0.2       0.2       0.0       0.0       0.0
 2 C  dyz             0.1       0.3       0.9       0.0       0.0       0.1
 3 C  s               0.0       0.0       0.2       3.1       0.6       1.6
 3 C  pz             10.1      15.4      17.8       1.3       0.4       2.4
 3 C  px              0.1       0.2       0.4       0.2       0.3       1.4
 3 C  py              1.4       2.4       5.8       2.4       0.2       2.7
 3 C  dz2             0.0       0.1       0.3       0.0       0.0       0.0
 3 C  dxz             0.6       0.9       0.2       0.0       0.0       0.0
 3 C  dyz             0.1       0.3       0.3       0.0       0.1       0.1
 3 C  dx2y2           0.1       0.2       0.0       0.1       0.4       0.4
 3 C  dxy             0.0       0.0       0.1       0.0       0.1       0.5
 4 C  s               0.0       0.0       0.1       1.3      10.5       4.4
 4 C  pz             23.4      26.7      11.5       0.1       0.3       0.1
 4 C  px              0.2       0.3       0.1       1.0       0.0       7.5
 4 C  py              4.4       6.3       1.2       0.1       5.7       0.4
 4 C  dz2             0.0       0.1       0.1       0.0       0.1       0.2
 4 C  dxz             0.0       0.2       0.3       0.0       0.0       0.1
 4 C  dyz             0.0       0.2       0.3       0.0       0.3       0.0
 4 C  dx2y2           0.0       0.1       0.3       0.3       0.0       0.7
 5 H  s               0.0       0.0       0.3      11.5       0.1      12.0
 6 H  s               1.3       0.6       4.1      13.3       2.4       0.9
 7 H  s               1.3       0.5       7.4      11.3       3.1       3.4
 8 H  s               0.0       0.1       0.1       1.8      20.2       0.8
 9 H  s               0.0       0.0       0.1       7.7       3.1       3.5
10 H  s               0.1       0.1       2.5      14.0       3.3      15.5
11 H  s               0.0       0.0       0.5       4.2       4.5      27.5
12 H  s               0.0       0.0       0.2       0.6      28.4       0.2

                     24        25        26        27        28        29   
                   0.08975   0.12803   0.13063   0.14949   0.15319   0.20581
                   0.00000   0.00000   0.00000   0.00000   0.00000   0.00000
                  --------  --------  --------  --------  --------  --------
 0 C  s               4.5       0.1       2.5       0.2       0.2       1.4
 0 C  pz              0.2      20.3       0.4       4.2       0.2       0.0
 0 C  px             10.4       0.3       7.5       2.6       0.1       6.3
 0 C  py              0.8       1.2       1.4       4.1       0.2      20.9
 0 C  dz2             0.1       0.0       0.3       1.1       0.0       1.2
 0 C  dxz             0.1       0.7       0.1       0.0       0.0       0.0
 0 C  dyz             0.0       0.1       0.0       0.0       0.0       0.0
 0 C  dx2y2           0.7       0.0       0.2       0.1       0.3       2.8
 0 C  dxy             0.1       0.0       0.2       0.0       0.1       4.7
 1 C  s               0.9       0.2       0.1       0.5       0.9      25.3
 1 C  pz              0.0       4.9       0.0       0.9       0.1       0.0
 1 C  px              1.2       0.2       0.0       0.5       4.1       0.3
 1 C  py              0.7       0.1       1.6       0.7       0.4       6.1
 1 C  dz2             0.2       0.0       0.0       0.0       0.1       3.5
 1 C  dxz             0.0       0.1       0.0       0.0       0.2       0.2
 1 C  dyz             0.0       0.1       0.0       0.1       0.0       0.0
 1 C  dx2y2           2.4       0.0       0.1       0.4       0.8       0.0
 1 C  dxy             0.0       0.1       1.1       0.4       0.1       0.1
 2 C  s               0.6       0.1       8.5       0.1       2.5       1.0
 2 C  pz              0.1       1.5       0.0       0.2       0.2       0.0
 2 C  px              9.0       0.3       1.2       5.9       0.3       0.2
 2 C  py              0.3       1.1       1.4       4.2       2.6       2.1
 2 C  dz2             0.0       0.0       0.4       0.0       0.1       0.0
 2 C  dxz             0.0       0.2       0.0       0.0       0.0       0.0
 2 C  dyz             0.0       0.1       0.0       0.1       0.0       0.0
 2 C  dx2y2           0.8       0.0       0.0       0.5       0.7       0.6
 2 C  dxy             0.0       0.0       0.1       0.1       0.2       1.2
 3 C  s               1.5       0.7       0.6       1.3       4.3       2.6
 3 C  pz              0.1       5.2       0.2       0.2       0.1       0.1
 3 C  px              0.3       0.2       0.9       2.4       1.5       2.3
 3 C  py              0.1       0.2       1.0       2.3       2.2       0.3
 3 C  dz2             0.3       0.2       0.0       0.0       0.4       0.1
 3 C  dxz             0.0       0.3       0.0       0.0       0.1       0.1
 3 C  dx2y2           0.0       0.0       0.0       0.1       2.0       1.2
 3 C  dxy             0.0       0.1       0.2       0.3       0.0       0.2
 4 C  s               0.4       0.9       2.9       2.6       0.8       0.2
 4 C  pz              0.1       1.0       0.1       0.5       2.7       0.1
 4 C  px              0.2       0.1       3.4       0.3       5.5       1.1
 4 C  py              0.3       0.1       0.4       0.2       4.8       0.9
 4 C  dz2             0.0       0.0       0.0       0.1       0.0       0.1
 4 C  dyz             0.0       0.3       0.1       0.1       0.2       0.0
 4 C  dx2y2           0.0       0.0       0.1       0.4       0.3       0.4
 4 C  dxy             0.0       0.0       0.0       0.1       0.1       0.2
 5 H  s               8.8       0.2      22.0       9.3       0.6       1.2
 6 H  s              13.2      30.6       2.8       0.2       0.3       0.8
 7 H  s              11.7      18.3       0.6      12.3       0.5       1.1
 8 H  s               3.6       3.5       7.4      14.1       8.9       0.2
 9 H  s              22.1       0.6      10.6      11.8       1.9       3.2
10 H  s               1.6       3.2       4.4       9.2      11.6       1.0
11 H  s               0.0       2.2      12.6       3.4      12.3       1.9
12 H  s               2.2       0.1       2.4       1.9      24.5       2.4

                     30        31        32        33        34        35   
                   0.27810   0.28834   0.33320   0.36711   0.39597   0.40415
                   0.00000   0.00000   0.00000   0.00000   0.00000   0.00000
                  --------  --------  --------  --------  --------  --------
 0 C  s               0.4       0.1       0.4       0.1       0.1       3.7
 0 C  pz              0.0       0.2       0.1       0.4       0.7       2.1
 0 C  px              0.5       2.1       8.9       1.3       6.1       2.1
 0 C  py              5.6       5.0       1.4       0.1       1.0      22.6
 0 C  dz2             1.1       0.9       0.5       0.0       1.0       0.7
 0 C  dxz             0.0       0.0       0.2       0.1       0.0       0.1
 0 C  dyz             0.0       0.0       0.1       0.1       0.0       0.2
 0 C  dx2y2           1.3       0.0       0.6       0.0       3.3       0.1
 0 C  dxy             0.1       0.5       0.1       0.3       0.1       0.3
 1 C  s               1.3       5.6       8.8      12.0       0.6       7.2
 1 C  pz              0.2       0.1       0.2       0.5       2.5       1.3
 1 C  px             10.9       1.0       0.4       4.2       3.7       1.9
 1 C  py              0.5       7.6       3.2       1.8       1.9       1.2
 1 C  dz2             0.6       0.6       0.3       1.4       0.2       1.7
 1 C  dxz             0.0       0.1       0.2       0.0       0.0       0.0
 1 C  dyz             0.0       0.1       0.0       0.1       0.1       0.1
 1 C  dx2y2           1.9       0.0       0.1       0.0       1.5       1.5
 1 C  dxy             0.1       1.5       0.3       0.7       2.9       1.4
 2 C  s               2.1       2.9      13.4       0.7       1.0       4.6
 2 C  pz              0.0       0.3       1.5       0.3       6.4       5.3
 2 C  px              2.0       7.4       4.8       1.3       1.2       2.5
 2 C  py              0.4       7.3      12.1       5.8       1.8       0.5
 2 C  dz2             0.3       0.6       1.6       0.0       0.5       1.2
 2 C  dxz             0.0       0.1       0.0       0.0       0.0       0.1
 2 C  dyz             0.0       0.2       0.0       0.1       0.2       0.0
 2 C  dx2y2           2.1       0.3       0.3       0.0       0.4       2.5
 2 C  dxy             0.0       4.9       3.9       1.9       0.2       0.1
 3 C  s              13.1       1.9       4.0      23.6       6.5       1.0
 3 C  pz              0.5       0.3       1.9       0.7       1.5       0.4
 3 C  px              5.6       5.0       3.4       0.3       5.3       0.9
 3 C  py              3.0       2.4       4.0       1.1       1.1       2.8
 3 C  dz2             1.9       0.0       0.9       2.3       0.2       0.1
 3 C  dxz             0.1       0.3       0.3       0.1       0.1       0.1
 3 C  dyz             0.4       0.1       0.5       0.8       0.7       0.0
 3 C  dx2y2           1.5       1.3       0.1       0.5       0.4       0.0
 3 C  dxy             0.0       3.0       2.0       0.6       1.9       1.8
 4 C  s               0.9       4.8       1.9      17.6       0.4       3.2
 4 C  pz              1.4       0.3       0.6       0.4       1.0       4.3
 4 C  px              4.5       8.4       2.2       2.2       5.2       1.1
 4 C  py              7.9       5.1       3.9       4.3       4.6       0.7
 4 C  dz2             0.1       0.8       0.3       1.3       0.3       0.0
 4 C  dxz             0.7       0.3       0.2       0.1       0.5       0.0
 4 C  dyz             0.0       0.8       0.0       1.3       0.0       0.3
 4 C  dx2y2           0.2       1.0       0.0       0.1       1.8       0.0
 4 C  dxy             4.9       3.0       1.8       0.6       0.6       0.1
 5 H  s               0.2       2.3       4.1       0.6      10.4       0.3
 6 H  s               0.5       0.8       1.1       1.0       0.8       0.1
 7 H  s               0.6       0.9       0.3       0.1       1.9       3.1
 8 H  s               6.7       2.0       0.3       2.7       1.5       0.3
 9 H  s               3.7       2.8       0.1       0.4       0.1      11.7
10 H  s               2.2       0.2       1.0       1.0       7.7       1.2
11 H  s               1.0       1.2       0.6       0.3       7.6       0.1
12 H  s               6.9       1.6       1.2       2.7       0.7       1.0

                     36        37        38        39        40        41   
                   0.41232   0.41920   0.46969   0.48178   0.50397   0.53561
                   0.00000   0.00000   0.00000   0.00000   0.00000   0.00000
                  --------  --------  --------  --------  --------  --------
 0 C  s               0.3       0.4       0.0       4.8       0.1       0.4
 0 C  pz             13.7      11.4       6.2       0.6       0.1       6.8
 0 C  px              0.0       0.8       0.2       1.8       2.1       0.2
 0 C  py              0.1       5.5       0.1       9.1       1.6       0.2
 0 C  dz2             0.4       0.1       0.2       0.4       0.3       0.2
 0 C  dxz             1.2       1.9       0.5       0.0       0.0       1.0
 0 C  dyz             1.9       1.5       0.5       0.0       0.0       2.1
 0 C  dx2y2           0.1       0.3       0.0       0.2       0.1       0.2
 0 C  dxy             0.0       1.1       0.0       0.0       0.0       0.0
 1 C  s               5.4       0.5       0.9       2.6       1.4       0.2
 1 C  pz              3.1       4.6       2.4       0.0       0.5       1.0
 1 C  px              0.2       1.9       0.8       0.1       3.3       0.6
 1 C  py              0.5       0.5       0.1       0.0       0.1       0.5
 1 C  dz2             1.1       0.0       0.0       3.3       1.2       0.0
 1 C  dxz             0.3       0.0       0.1       0.0       0.1       0.5
 1 C  dyz             0.4       0.4       0.1       0.0       0.1       0.0
 1 C  dx2y2           0.1       2.1       0.1       0.1       0.0       0.0
 1 C  dxy             0.2       0.0       0.0       0.2       0.1       0.2
 2 C  s               4.7       2.3       0.4       7.1       5.7       0.2
 2 C  pz              4.2      11.2       0.4       0.0       1.8      61.0
 2 C  px              0.2       2.0       0.3       1.9       2.6       0.7
 2 C  py              2.7       0.4       1.8       6.4       2.2       0.1
 2 C  dz2             0.7       0.8       0.3       3.5       2.1       0.1
 2 C  dxz             0.4       0.2       0.0       0.2       0.1       0.0
 2 C  dyz             0.0       0.1       0.0       0.0       0.0       0.1
 2 C  dx2y2           0.0       1.6       0.1       0.0       0.1       0.0
 2 C  dxy             1.2       0.0       0.6       0.1       0.3       0.0
 3 C  s               1.5       0.0       0.2       4.2       3.9       0.5
 3 C  pz              0.3       0.9      20.2       0.8       0.5       3.1
 3 C  px              9.7       7.5       1.1       4.7       3.9       0.3
 3 C  py              0.2       0.8       1.8       0.0       1.7       0.9
 3 C  dz2             0.2       0.2       0.3       0.6       1.1       0.7
 3 C  dxz             0.0       0.0       0.3       0.0       0.0       0.1
 3 C  dyz             1.6       0.1       0.1       1.4       1.1       0.0
 3 C  dx2y2           1.5       0.4       0.0       0.1       0.0       0.1
 3 C  dxy             0.0       0.1       0.0       0.0       0.4       0.0
 4 C  s               1.6       2.3       1.3       3.7      13.1       0.3
 4 C  pz              2.1       1.8      38.0       2.1       0.2       2.9
 4 C  px              1.0       0.0       1.3       0.3       3.1       0.2
 4 C  py              2.4       5.3       5.1      10.5       5.7       0.1
 4 C  dz2             0.5       0.5       0.6       0.4       3.0       0.0
 4 C  dxz             0.0       0.2       0.7       0.0       0.3       0.0
 4 C  dyz             0.0       0.0       0.0       1.2       2.4       0.0
 4 C  dx2y2           1.7       0.5       0.0       0.1       0.1       0.0
 4 C  dxy             0.1       1.3       0.3       0.1       0.1       0.1
 5 H  s               0.1       1.2       0.1       0.4       0.8       0.5
 6 H  s               3.3      12.0       1.0       0.4       0.4       4.7
 7 H  s               7.7       0.9       1.9       1.4       0.2       6.6
 8 H  s               5.1       4.5       2.3       6.5       3.9       0.3
 9 H  s               0.9       1.2       1.6       6.0       5.5       0.3
10 H  s               7.7       2.8       0.4       6.8       2.3       1.4
11 H  s               6.6       2.0       2.3       0.5      10.2       0.1
12 H  s               0.8       1.7       2.9       5.6      10.3       0.1

                     42        43        44        45        46        47   
                   0.54835   0.59229   0.62251   0.63230   0.63725   0.65015
                   0.00000   0.00000   0.00000   0.00000   0.00000   0.00000
                  --------  --------  --------  --------  --------  --------
 0 C  s               1.3       1.4       3.5       7.3      27.4       0.8
 0 C  pz              4.5       0.4       0.1       1.1       1.1       4.5
 0 C  px              3.6      15.6       1.1       1.7       4.3       4.2
 0 C  py              0.7       9.4       3.5       0.3      12.4       1.4
 0 C  dz2             1.6       1.3       0.4       0.0       0.2       0.0
 0 C  dxz             0.1       0.6       0.0       0.4       0.1       0.2
 0 C  dx2y2           0.0       0.4       0.6       0.0       0.1       0.1
 0 C  dxy             0.4       2.8       0.0       0.3       0.1       0.0
 1 C  s               0.7       1.8      11.2       1.4       2.1       0.3
 1 C  pz              3.7       7.6       8.7      39.5      12.0       3.3
 1 C  px              1.6      13.2       2.2       0.3       0.3       4.9
 1 C  py              2.2       5.0       7.4       4.9       2.5       0.4
 1 C  dz2             0.0       0.1       0.2       0.1       0.0       0.0
 1 C  dx2y2           0.3       0.7       0.0       0.1       0.0       0.2
 1 C  dxy             0.5       3.1       0.2       0.1       0.0       0.2
 2 C  s               1.6       6.2       0.5       0.5       2.6      17.9
 2 C  pz              0.2       0.9       0.2       2.1       0.1       0.1
 2 C  px              0.4       2.1       1.6       2.7      11.2       0.6
 2 C  py              1.4       3.0       1.9       0.9       1.6       4.3
 2 C  dz2             0.4       0.0       0.0       0.2       0.2       1.1
 2 C  dyz             0.0       0.0       0.0       0.2       0.1       0.0
 2 C  dx2y2           0.1       0.1       0.2       0.2       0.1       0.0
 2 C  dxy             0.0       0.0       0.0       0.0       0.1       0.2
 3 C  s               0.3       0.2       0.1       1.5       0.7       9.5
 3 C  pz             30.4       4.0       8.1       2.0       4.5       5.5
 3 C  px              1.3       2.8       1.8       2.8       0.6       0.8
 3 C  py              5.2       0.6       4.1       3.1       0.8       3.2
 3 C  dz2             0.1       0.5       0.0       0.0       0.2       0.0
 3 C  dxz             0.0       0.0       1.0       0.1       0.1       0.2
 3 C  dyz             0.1       0.1       0.0       0.1       0.0       0.1
 3 C  dx2y2           0.2       0.6       0.1       0.3       0.0       0.0
 3 C  dxy             1.1       0.5       1.0       0.5       0.1       0.0
 4 C  s               0.9       0.4       8.6       0.1       0.3       0.7
 4 C  pz             26.0       5.1       1.2       0.3       0.3       0.2
 4 C  px              1.2       0.6       0.0       3.6       0.2       4.5
 4 C  py              2.9       0.9       0.4       4.0       1.5       3.0
 4 C  dz2             0.1       0.0       0.2       0.1       0.0       0.0
 4 C  dyz             0.0       0.1       0.2       0.3       0.1       0.0
 4 C  dx2y2           0.1       0.9       0.4       0.4       0.0       0.2
 4 C  dxy             0.0       0.0       0.1       0.0       0.0       0.0
 5 H  s               0.7       0.5      14.8       2.7       3.7       4.1
 6 H  s               0.2       0.8       3.2       0.8       0.8       0.1
 7 H  s               0.2       0.3       3.0       2.7       1.2       0.6
 8 H  s               0.2       0.3       0.3       3.7       0.3       4.6
 9 H  s               2.2       0.6       1.9       0.5       5.6       9.1
10 H  s               0.3       0.3       0.9       1.1       0.1       6.2
11 H  s               0.0       1.5       4.0       2.1       0.1       1.6
12 H  s               0.6       2.2       0.5       2.4       0.2       0.8

                     48        49        50        51        52        53   
                   0.65598   0.66017   0.66620   0.67520   0.69714   0.70285
                   0.00000   0.00000   0.00000   0.00000   0.00000   0.00000
                  --------  --------  --------  --------  --------  --------
 0 C  s               1.4       0.6       6.5       0.2       1.9       2.6
 0 C  pz              0.1      30.2       7.7      15.3       0.0       0.6
 0 C  px             11.3       0.1       3.0       1.6       2.2       6.9
 0 C  py              0.3       0.5       7.2       0.1       7.2       0.5
 0 C  dz2             0.3       0.6       1.7       0.7       0.4       0.3
 0 C  dxz             0.3       0.0       0.3       0.1       0.0       0.3
 0 C  dyz             0.1       1.0       0.8       0.3       0.0       0.1
 0 C  dx2y2           0.7       0.0       0.0       0.6       0.4       0.1
 0 C  dxy             0.1       0.1       0.2       0.0       0.1       0.0
 1 C  s               0.6       0.0       2.3       0.1       1.8       2.0
 1 C  pz              2.8       2.1       0.2       0.1       0.5       0.2
 1 C  px              2.5       1.4       2.2       0.3       3.9       1.0
 1 C  py              2.9       0.2       1.7       0.1       3.7       0.0
 1 C  dz2             0.1       0.0       0.1       0.0       0.4       0.2
 1 C  dx2y2           0.0       0.0       0.1       0.1       0.0       0.1
 1 C  dxy             0.0       0.1       0.9       0.1       0.1       0.2
 2 C  s               0.6       0.4       4.2       0.4       0.4      20.0
 2 C  pz              0.4       0.3       0.0       1.7       0.4       0.0
 2 C  px              1.4       4.7       4.2       3.1      10.3       0.8
 2 C  py              2.6       5.4       5.0       0.0       2.5      14.5
 2 C  dz2             0.1       0.0       0.1       0.0       0.0       0.0
 2 C  dyz             0.0       0.2       0.0       0.0       0.0       0.0
 2 C  dx2y2           1.3       0.0       0.0       0.5       0.6       0.0
 2 C  dxy             0.5       0.0       0.1       0.0       0.1       0.1
 3 C  s               1.5       0.5       1.2       0.6       1.4       9.3
 3 C  pz              1.4       0.3       0.9       0.2       4.3       0.1
 3 C  px              1.2       0.5       0.4       2.0       3.8       1.0
 3 C  py              6.8       0.2       3.9       1.0       7.8       1.6
 3 C  dz2             0.1       0.0       0.0       0.0       0.0       0.1
 3 C  dyz             0.2       0.0       0.1       0.1       0.0       0.0
 3 C  dxy             0.4       0.0       0.2       0.6       0.0       0.2
 4 C  s               8.4       7.5       2.0      17.0       0.1       2.7
 4 C  pz              0.3       0.2       2.0       0.7       1.7       1.5
 4 C  px              0.3       8.7       2.3       5.6       8.2       5.5
 4 C  py              2.0       0.4       9.2       4.8       1.5       0.7
 4 C  dz2             0.0       0.0       0.1       0.2       0.0       0.0
 4 C  dyz             0.1       0.0       0.2       0.2       0.2       0.0
 4 C  dx2y2           0.1       0.1       0.2       0.0       0.5       0.3
 4 C  dxy             0.1       0.0       0.0       0.0       0.0       0.2
 5 H  s               2.9       0.3       1.2       7.5       2.5       5.1
 6 H  s              11.3       3.2      16.1       1.3       0.5       2.6
 7 H  s               4.0      19.9       0.3       6.3       1.5       0.1
 8 H  s              10.6       1.7       0.0       0.8       6.0      10.0
 9 H  s               1.4       0.4       1.5       3.1       5.9       3.4
10 H  s               9.1       0.3       0.3       5.4       4.9       1.6
11 H  s               0.9       7.6       0.2       9.7       6.2       1.9
12 H  s               6.2       0.2       8.9       7.5       5.7       1.4

                     54        55        56        57        58        59   
                   0.75842   0.80143   0.83978   0.91100   0.97654   1.09671
                   0.00000   0.00000   0.00000   0.00000   0.00000   0.00000
                  --------  --------  --------  --------  --------  --------
 0 C  s               1.8       8.6       0.4      28.0       4.1       0.9
 0 C  pz              0.4       0.1       0.0       0.2       0.1       0.0
 0 C  px             14.2       1.4       0.3       0.3       7.7       0.5
 0 C  py              1.2       1.6       0.0       3.4       0.3       0.2
 0 C  dz2             0.0       0.4       0.3       0.3       0.0       0.0
 0 C  dxz             0.3       0.0       0.1       0.2       0.6       0.2
 0 C  dyz             0.0       0.0       0.0       0.0       0.1       0.0
 0 C  dx2y2           0.4       0.0       0.4       0.1       1.2       0.2
 0 C  dxy             0.0       0.7       1.0       0.2       0.3       0.2
 1 C  s              21.0       1.0       7.0       0.3       0.3       2.1
 1 C  pz              0.3       0.1       0.1       0.8       1.7       0.3
 1 C  px              3.6       2.0      16.0       0.9       1.2       1.0
 1 C  py              0.7       1.2      17.4       5.5      10.6       2.1
 1 C  dz2             0.9       0.4       0.2       0.4       0.4       0.5
 1 C  dxz             0.0       0.0       0.0       0.3       1.4       4.6
 1 C  dyz             0.1       0.2       0.0       0.1       0.1       1.7
 1 C  dx2y2           0.1       0.4       0.0       0.1       0.0       0.2
 1 C  dxy             0.2       0.4       0.4       0.3       1.4       0.0
 2 C  s               0.6       0.5       8.4       1.2       1.2       0.6
 2 C  pz              0.0       0.0       0.1       0.0       0.1       0.2
 2 C  px              1.7       0.4      16.5      10.6       4.2       0.3
 2 C  py              1.3       6.5       9.0       6.7       1.5       0.1
 2 C  dz2             0.1       0.0       0.0       0.1       0.2       0.0
 2 C  dxz             0.0       0.1       0.0       0.1       0.0       1.2
 2 C  dyz             0.0       0.0       0.0       0.0       0.8       2.2
 2 C  dx2y2           0.2       0.0       0.0       1.8       1.3       0.0
 2 C  dxy             0.4       0.1       2.9       0.0       0.3       0.3
 3 C  s              19.7       4.7       1.3       0.9       0.0       0.5
 3 C  pz              0.7       0.9       0.8       0.5       0.0       4.0
 3 C  px              7.2      14.0       0.1       6.1      15.6      10.9
 3 C  py              1.7       7.1       6.3       3.0       7.2      22.2
 3 C  dz2             0.2       0.2       0.1       1.6       0.0       0.0
 3 C  dxz             0.2       0.2       0.0       0.1       3.7       3.9
 3 C  dyz             0.7       0.3       0.0       0.1       0.0       0.0
 3 C  dx2y2           0.0       0.1       0.3       0.0       0.1       2.8
 3 C  dxy             0.4       1.2       0.3       0.0       0.3       0.4
 4 C  s               3.6       3.9       1.4       2.3       2.2       0.9
 4 C  pz              0.9       2.2       0.3       0.2       2.0       1.4
 4 C  px              5.6       8.9       2.9       5.9      10.5      11.0
 4 C  py              2.4      14.9       1.2       0.4       4.7       5.2
 4 C  dz2             0.0       0.1       0.0       0.2       0.1       1.4
 4 C  dxz             0.0       0.4       0.3       0.0       0.0       0.3
 4 C  dyz             0.0       0.0       0.2       0.2       0.0       1.1
 4 C  dx2y2           0.1       0.0       0.2       0.0       3.9       0.3
 4 C  dxy             0.3       2.3       0.1       0.5       0.1       0.7
 5 H  s               0.9       6.3       0.8       1.9       1.5       0.2
 6 H  s               0.0       1.3       0.0       5.1       2.1       0.2
 7 H  s               0.0       1.1       0.1       6.7       1.3       0.0
 8 H  s               0.9       0.7       0.7       0.9       0.2       0.0
 9 H  s               2.6       0.2       0.9       0.4       0.4       0.2
10 H  s               1.1       0.3       0.7       0.7       0.1       6.3
11 H  s               0.9       0.3       0.2       0.3       1.3       2.8
[...]
 4 C  px              0.1       0.0       1.4       0.1       0.7       0.4
 4 C  py              0.4       0.1       0.9       0.2       0.0       0.1
 4 C  dz2             7.0       0.9       0.0       7.1       0.3       0.0
 4 C  dxz             2.5       2.8       6.3       3.1       7.9       1.4
 4 C  dyz            11.9       1.4       0.1       8.1       9.5       1.1
 4 C  dx2y2           2.8       0.3       4.3       0.0       0.4       8.1
 4 C  dxy             6.5       2.2      17.3       1.8       0.4       1.5
 5 H  s               0.0       0.2       3.8       0.3       3.2       1.2
 6 H  s               0.1       2.7       1.1       2.4       0.4       1.2
 7 H  s               0.0       4.9       0.6       0.2       2.0       0.8
 8 H  s               4.2       0.2       0.5       0.1       0.1       0.6
 9 H  s               0.4       0.9       0.0       3.9       0.0       0.8
10 H  s               1.0       0.1       0.0       0.6       0.0       0.7
11 H  s               0.0       0.1       1.5       0.3       0.4       0.9
12 H  s               4.3       0.1       0.2       2.2       0.2       0.0

                     78        79        80        81        82        83   
                   2.22286   2.28563   2.41775   2.44043   2.54525   2.58419
                   0.00000   0.00000   0.00000   0.00000   0.00000   0.00000
                  --------  --------  --------  --------  --------  --------
 0 C  s               0.3       0.0       0.1       0.3       0.8       0.0
 0 C  px              0.1       0.1       0.0       0.1       0.3       0.0
 0 C  py              1.2       0.0       0.2       0.7       1.5       0.0
 0 C  dz2             5.9       0.2       0.7       2.7       2.7       0.3
 0 C  dxz             1.1       0.9       0.7       0.4       0.1       0.1
 0 C  dyz             3.6      18.7       0.3       0.1       0.1       0.0
 0 C  dx2y2           2.1       2.1       2.1       3.4       2.9       0.5
 0 C  dxy             7.0       0.3       0.0       0.4       6.8       0.6
 1 C  s               0.2       0.3       3.9       1.6       2.6       3.6
 1 C  pz              0.1       0.2       0.1       0.0       0.0       0.0
 1 C  px              0.7       0.9       0.8       0.0       1.0       0.1
 1 C  py              3.3       0.1       1.0       0.4       1.4       1.7
 1 C  dz2             0.3       0.3       7.5      15.6       4.3       5.3
 1 C  dxz             6.5       3.9       7.2       6.7       3.3       1.6
 1 C  dyz             0.6      30.8      11.1       2.6       0.2       1.1
 1 C  dx2y2           0.4       0.0       1.6       2.5       3.6       2.6
 1 C  dxy             0.1       0.0       0.3       1.4      10.5       3.8
 2 C  s               0.2       0.3       1.7       0.0       0.1       2.0
 2 C  pz              0.1       0.4       0.2       0.2       0.1       0.2
 2 C  px              0.1       0.2       0.7       0.0       0.2       0.7
 2 C  py              0.9       0.0       0.8       0.1       0.2       1.5
 2 C  dz2             0.6       0.4      10.4       0.6       0.2       2.3
 2 C  dxz             1.5       9.0       1.5       0.8       0.0       1.3
 2 C  dyz             5.7       5.6       3.9       5.1       0.8       2.7
 2 C  dx2y2           5.1       3.9       6.4       1.4       9.1       0.1
 2 C  dxy             8.2       0.1       3.5       1.2       0.0       7.4
 3 C  s               1.3       0.1       0.1       2.5       1.5       2.9
 3 C  pz              0.5       0.0       0.0       0.1       0.0       0.4
 3 C  px              0.5       0.1       1.4       0.1       0.6       1.4
 3 C  py              0.9       0.0       0.4       0.8       0.4       2.4
 3 C  dz2             0.1       1.1       0.0       7.2       5.1       0.3
 3 C  dxz             0.4      10.8       1.5      14.5       1.6       6.4
 3 C  dyz            10.5       0.0       7.5       0.0       0.1       7.8
 3 C  dx2y2           3.5       0.0       0.0       2.7      15.8       3.9
 3 C  dxy             3.5       0.7       6.2       0.2       0.3       3.6
 4 C  s               0.2       0.0       0.1       0.7       0.4       3.4
 4 C  pz              0.2       0.1       0.2       0.6       0.0       0.1
 4 C  px              0.0       0.0       0.5       0.3       0.3       1.6
 4 C  py              0.2       0.1       0.1       0.1       0.5       2.4
 4 C  dz2             9.8       1.4       1.9       0.3       0.9       6.6
 4 C  dxz             3.6       0.2       2.5       3.3       0.0       0.1
 4 C  dyz             0.0       2.9       4.8       5.3       2.9       0.1
 4 C  dx2y2           1.1       0.2       3.5       8.6      13.5       1.1
 4 C  dxy             3.6       1.2       0.2       2.0       0.1      14.8
 5 H  s               0.0       0.3       0.0       0.0       0.0       0.0
 6 H  s               1.0       0.3       0.0       0.0       0.3       0.0
 7 H  s               0.0       0.8       0.0       0.2       0.1       0.0
 8 H  s               1.2       0.3       0.5       0.4       0.2       0.1
 9 H  s               0.8       0.1       0.1       0.0       0.8       0.1
10 H  s               0.7       0.1       0.9       0.6       0.2       0.1
11 H  s               0.1       0.0       0.8       0.6       0.6       0.2
12 H  s               0.2       0.1       0.2       0.1       1.0       0.4

                     84        85   
                   2.84644   3.00225
                   0.00000   0.00000
                  --------  --------
 0 C  s               0.1       0.4
 0 C  px              0.2       0.2
 0 C  py              0.0       0.7
 0 C  dz2             0.3       0.2
 0 C  dx2y2           2.2       2.0
 0 C  dxy             3.8       1.3
 1 C  s               0.4       1.1
 1 C  px              2.5       0.2
 1 C  py              0.9       0.6
 1 C  dz2             0.6       0.7
 1 C  dxz             0.0       1.5
 1 C  dyz             0.8       0.2
 1 C  dx2y2          27.7      11.8
 1 C  dxy             8.9      21.2
 2 C  s               1.9       0.8
 2 C  px              1.3       0.1
 2 C  py              1.9       1.2
 2 C  dz2             0.8       0.4
 2 C  dx2y2           1.3      10.5
 2 C  dxy             9.6       0.0
 3 C  s               0.1       2.5
 3 C  px              3.5       0.1
 3 C  py              0.6       0.1
 3 C  dz2             0.0       3.0
 3 C  dxz             1.1       0.2
 3 C  dyz             0.6       0.3
 3 C  dx2y2          10.2       8.9
 3 C  dxy             8.1      15.9
 4 C  s               1.7       1.0
 4 C  pz              0.2       0.2
 4 C  px              0.9       0.3
 4 C  py              1.0       1.1
 4 C  dz2             0.3       0.0
 4 C  dxz             0.8       0.2
 4 C  dyz             0.1       2.4
 4 C  dx2y2           0.6       6.2
 4 C  dxy             3.9       0.3
 5 H  s               0.1       0.1
 8 H  s               0.4       0.3
 9 H  s               0.1       0.5
10 H  s               0.0       0.7
11 H  s               0.0       0.4
12 H  s               0.2       0.3


                      *****************************
                      * MAYER POPULATION ANALYSIS *
                      *****************************

  NA   - Mulliken gross atomic population
  ZA   - Total nuclear charge
  QA   - Mulliken gross atomic charge
  VA   - Mayer's total valence
  BVA  - Mayer's bonded valence
  FA   - Mayer's free valence

  ATOM       NA         ZA         QA         VA         BVA        FA
  0 C      6.2381     6.0000    -0.2381     3.9133     3.9133    -0.0000
  1 C      6.0207     6.0000    -0.0207     4.2625     4.2625    -0.0000
  2 C      6.2359     6.0000    -0.2359     3.9444     3.9444    -0.0000
  3 C      6.0772     6.0000    -0.0772     4.0424     4.0424    -0.0000
  4 C      6.1958     6.0000    -0.1958     3.9478     3.9478    -0.0000
  5 H      0.8994     1.0000     0.1006     0.9681     0.9681    -0.0000
  6 H      0.8854     1.0000     0.1146     0.9511     0.9511    -0.0000
  7 H      0.8855     1.0000     0.1145     0.9511     0.9511    -0.0000
  8 H      0.9102     1.0000     0.0898     0.9494     0.9494     0.0000
  9 H      0.9131     1.0000     0.0869     0.9500     0.9500    -0.0000
 10 H      0.9412     1.0000     0.0588     0.9560     0.9560     0.0000
 11 H      0.8989     1.0000     0.1011     0.9407     0.9407     0.0000
 12 H      0.8987     1.0000     0.1013     0.9487     0.9487     0.0000

  Mayer bond orders larger than 0.100000
B(  0-C ,  1-C ) :   1.0948 B(  0-C ,  5-H ) :   0.9445 B(  0-C ,  6-H ) :   0.9372 
B(  0-C ,  7-H ) :   0.9325 B(  1-C ,  2-C ) :   1.9895 B(  1-C ,  3-C ) :   1.0854 
B(  2-C ,  4-C ) :   0.1075 B(  2-C ,  8-H ) :   0.9057 B(  2-C ,  9-H ) :   0.9054 
B(  3-C ,  4-C ) :   1.9985 B(  3-C , 10-H ) :   0.9296 B(  4-C , 11-H ) :   0.9208 
B(  4-C , 12-H ) :   0.9126 

-------
TIMINGS
-------

Total SCF time: 0 days 0 hours 0 min 1 sec 

Total time                  ....       1.894 sec
Sum of individual times     ....       1.867 sec  ( 98.6%)

SCF preparation             ....       0.393 sec  ( 20.7%)
Fock matrix formation       ....       1.358 sec  ( 71.7%)
  Startup                   ....       0.006 sec  (  0.5% of F)
  Split-RI-J                ....       0.462 sec  ( 34.0% of F)
  XC integration            ....       0.812 sec  ( 59.8% of F)
    Basis function eval.    ....       0.331 sec  ( 40.8% of XC)
    Density eval.           ....       0.138 sec  ( 17.0% of XC)
    XC-Functional eval.     ....       0.080 sec  (  9.8% of XC)
    XC-Potential eval.      ....       0.149 sec  ( 18.4% of XC)
Diagonalization             ....       0.000 sec  (  0.0%)
Density matrix formation    ....       0.024 sec  (  1.3%)
Total Energy calculation    ....       0.001 sec  (  0.1%)
Population analysis         ....       0.023 sec  (  1.2%)
Orbital Transformation      ....       0.009 sec  (  0.5%)
Orbital Orthonormalization  ....       0.000 sec  (  0.0%)
DIIS solution               ....       0.046 sec  (  2.4%)
  MO trafo                  ....       0.000 sec  (  0.0 % of DIIS)
  Orb grad                  ....       0.000 sec  (  0.0 % of DIIS)
  Energy W gradient         ....       0.000 sec  (  0.0 % of DIIS)
  DIIS error                ....       0.001 sec  (  2.0 % of DIIS)
  DIIS work                 ....       0.039 sec  ( 86.2 % of DIIS)
  Form Q                    ....       0.000 sec  (  0.0 % of DIIS)
  Form QpQm                 ....       0.000 sec  (  0.0 % of DIIS)
  Exp/Cayley                ....       0.000 sec  (  0.0 % of DIIS)
  Orb update                ....       0.000 sec  (  0.0 % of DIIS)
  Wake-sleep                ....       0.001 sec  (  1.5 % of DIIS)
SOSCF solution              ....       0.014 sec  (  0.7%)
  MO trafo                  ....       0.008 sec  ( 58.5 % of SOSCF)
  Orb grad                  ....       0.000 sec  (  0.9 % of SOSCF)
  Rot update                ....       0.002 sec  ( 11.1 % of SOSCF)
  Step                      ....       0.004 sec  ( 29.0 % of SOSCF)
Finished LeanSCF after   1.9 sec

Maximum memory used throughout the entire LEANSCF-calculation: 8.6 MB


-------------------------------------------------------------------------------
                          DFT DISPERSION CORRECTION                            
                                                                               
                                DFTD4 V3.4.0                                   
-------------------------------------------------------------------------------
The PBE functional is recognized
Active option DFTDOPT                   ...         5   

-------------------------   ----------------
Dispersion correction           -0.009121078
-------------------------   ----------------

------------------   -----------------
gCP correction             0.047368190
------------------   -----------------

-------------------------   --------------------
FINAL SINGLE POINT ENERGY      -194.823425492869
-------------------------   --------------------


------------------------------------------------------------------------------
                              ORCA PROPERTY CALCULATIONS
------------------------------------------------------------------------------

GBWName                                 ... sp.gbw
Number of atoms                         ...     13
Number of basis functions               ...     86
Max core memory                         ...   1024 MB

Electric properties:
Dipole moment                           ... YES
Quadrupole moment                       ...  NO
Static polarizability (Dipole/Dipole)   ...  NO
Static polarizability (Dipole/Quad.)    ...  NO
Static polarizability (Quad./Quad.)     ...  NO
Static polarizability (Velocity)        ...  NO

Atomic electric properties:
Dipole moment                           ...  NO
Quadrupole moment                       ...  NO
Static polarizability                   ...  NO

Choice of electric origin               ... Center of mass
Position of electric origin             ...     0.000003     0.000003     0.000000

General magnetic properties:
Magnetizability                         ...  NO

EPR properties:
g-Tensor (aka g-matrix)                 ...  NO
Zero-Field splitting spin-orbit         ...  NO
Zero-field splitting spin-spin          ...  NO
Hyperfine couplings                     ...  NO (   0 nuclei)
Quadrupole couplings                    ...  NO (   0 nuclei)
Contact density                         ...  NO (   0 nuclei)

NMR properties:
Chemical shifts                         ...  NO (   0 nuclei)
Spin-rotation constants                 ...  NO (   0 nuclei)
Spin-spin couplings                     ...  NO (   0 nuclei,    0 pairs)

Choice of magnetic origin               ... GIAO
Position of magnetic origin             ...     0.000000     0.000000     0.000000

Properties with geometric perturbations:
SCF Hessian                             ...  NO
IR spectrum                             ...  NO
VCD spectrum                            ...  NO
X-ray spectroscopy properties:
SCF XES/XAS/RIXS spectra                ...  NO


-------------
DIPOLE MOMENT
-------------

Method             : SCF
Type of density    : Electron Density
Multiplicity       :   1
Irrep              :   0
Energy             :  -194.8616726047839052 Eh
Relativity type    : 
Basis              : AO
                                X                 Y                 Z
Electronic contribution:     -0.916040321      -0.880744323      -0.154202950
Nuclear contribution   :      0.903888635       1.035346343       0.140976062
                        -----------------------------------------
Total Dipole Moment    :     -0.012151686       0.154602021      -0.013226888
                        -----------------------------------------
Magnitude (a.u.)       :      0.155641893
Magnitude (Debye)      :      0.395610252



--------------------
Rotational spectrum 
--------------------
 
Rotational constants in cm-1:             0.304999             0.132276             0.094911 
Rotational constants in MHz :          9143.634634          3965.548483          2845.368292 

Dipole components along the rotational axes: 
x,y,z [a.u.] :     0.061645     0.142878     0.003178 
x,y,z [Debye]:     0.156689     0.363168     0.008077 

 

Dipole moment calculation done in   0.0 sec 

Maximum memory used throughout the entire PROP-calculation: 5.6 MB

--------------------------------
SUGGESTED CITATIONS FOR THIS RUN
--------------------------------

Below you find a list of papers that are relevant to this ORCA run
We neither can nor want to force you to cite these papers, but we appreciate if you do
You receive ORCA, which is the product of decades of hard work by many enthusiastic individuals, for free
The only thing we kindly ask in return is that you cite our papers,
We deeply appreciate it, if you show your appreciation for ORCA by not just citing the generic ORCA reference.

Please note that relegating all ORCA citations to the supporting information does *not* help us.
SI sections are not indexed - citations you put there will not count into any citation statistics
But we need these citations in order to attract the funding resources that allow us to do what we are doing

Therefore, if you are a happy ORCA user, please consider citing a few of the papers listed below in the main body of your paper

In addition to the list printed below, the program has created the file sp.bibtex that contains the list in bibtex format
You can import this file easily into all common literature databanks and citation aid programs


List of essential papers. We consider these as the minimum necessary citations

  1. Neese,F.
     Software update: the ORCA program system, version 5.0
     WIRES Comput. Molec. Sci., 2022 12(1)e1606
     doi.org/10.1002/wcms.1606

List of papers to cite with high priority. The work reported in these papers was absolutely
necessary for this run to complete.
Our perspective: the developers of density functionals and basis sets usually get cited in chemistry papers
Good! But without the algorithms to do something with them, the functionals or basis sets would not do anything.
Hence, in our opinion, the algorithm design and method developments papers are equally worthy of getting cited

  1. Neese,F.
     An improvement of the resolution of the identity approximation for the formation of the Coulomb matrix
     J. Comp. Chem., 2003 24(14)1740-1747
     doi.org/10.1002/jcc.10318
  2. Neese,F.
     The SHARK Integral Generation and Digestion System
     J. Comp. Chem., 2022  1-16
     doi.org/10.1002/jcc.26942
  3. Caldeweyher,E.; Bannwarth,C.; Grimme,S.
     Extension of the D3 dispersion coefficient model
     J. Chem. Phys., 2017 147 034112
     doi.org/10.1063/1.4993215
  4. Caldeweyher,E.; Ehlert,S.; Hansen,A.; Neugebauer,H.; Spicher,S.; Bannwarth,C.; Grimme,S.
     A generally applicable atomic-charge dependent London dispersion correction
     J. Chem. Phys., 2019 150 154122
     doi.org/10.1063/1.5090222
  5. Caldeweyher,E.; Mewes,J.; Ehlert,S.; Grimme,S.
     Extension and evaluation of the D4 London-dispersion model for periodic systems
     Phys. Chem. Chem. Phys., 2020 22(16)8499-8512
     doi.org/10.1039/D0CP00502A
  6. Wittmann,L.; Gordiy,I.; Friede,M.; Helmich-Paris,B.; Grimme,S.; Hansen,A.; Bursch,M.
     Extension of the D3 and D4 London Dispersion Corrections to the full Actinides Series
     Phys. Chem. Chem. Phys., 2024 26(32)21379-21394
     doi.org/https://doi.org/10.1039/D4CP01514B 

List of suggested additional citations. These are papers that are important in the 'surrounding' of 
of this run, or papers that preceded the highly important papers. If you like your results we are grateful for a citation.

  1. Neese,F.
     The ORCA program system
     WIRES Comput. Molec. Sci., 2012 2(1)73-78
     doi.org/10.1002/wcms.81
  2. Neese,F.
     Software update: the ORCA program system, version 4.0
     WIRES Comput. Molec. Sci., 2018 8(1)1-6
     doi.org/10.1002/wcms.1327
  3. Neese,F.; Wennmohs,F.; Becker,U.; Riplinger,C.
     The ORCA quantum chemistry program package
     J. Chem. Phys., 2020 152 Art. No. L224108
     doi.org/10.1063/5.0004608

List of optional additional citations

  1. Neese,F.
     Approximate second-order SCF convergence for spin unrestricted wavefunctions
     Chem. Phys. Lett., 2000 325(1-3)93-98
     doi.org/10.1016/s0009-2614(00)00662-x

Timings for individual modules:

Sum of individual times          ...        2.625 sec (=   0.044 min)
Startup calculation              ...        0.329 sec (=   0.005 min)  12.5 %
SCF iterations                   ...        2.219 sec (=   0.037 min)  84.6 %
Property calculations            ...        0.076 sec (=   0.001 min)   2.9 %
                             ****ORCA TERMINATED NORMALLY****
TOTAL RUN TIME: 0 days 0 hours 0 minutes 3 seconds 151 msec
