
                                 *****************
                                 * O   R   C   A *
                                 *****************

                                            #,                                       
                                            ###                                      
                                            ####                                     
                                            #####                                    
                                            ######                                   
                                           ########,                                 
                                     ,,################,,,,,                         
                               ,,#################################,,                 
                          ,,##########################################,,             
                       ,#########################################, ''#####,          
                    ,#############################################,,   '####,        
                  ,##################################################,,,,####,       
                ,###########''''           ''''###############################       
              ,#####''   ,,,,##########,,,,          '''####'''          '####       
            ,##' ,,,,###########################,,,                        '##       
           ' ,,###''''                  '''############,,,                           
         ,,##''                                '''############,,,,        ,,,,,,###''
      ,#''                                            '''#######################'''  
     '                                                          ''''####''''         
             ,#######,   #######,   ,#######,      ##                                
            ,#'     '#,  ##    ##  ,#'     '#,    #''#        ,####,   ,####,        
            ##       ##  ##   ,#'  ##            #'  '#       #'       #'  '#        
            ##       ##  #######   ##           ,######,      #####,   #    #        
            '#,     ,#'  ##    ##  '#,     ,#' ,#      #,     #,   #   #,  ,#        
             '#######'   ##     ##  '#######'  #'      '#     '####' # '####'        



                #########################################################
                #                        -***-                          #
                #          Department of theory and spectroscopy        #
                #                                                       #
                #                      Frank Neese                      #
                #                                                       #
                #     Directorship, Architecture, Infrastructure        #
                #                    SHARK, DRIVERS                     #
                #        Core code/Algorithms in most modules           #
                #                                                       #
                #        Max Planck Institute fuer Kohlenforschung      #
                #                Kaiser Wilhelm Platz 1                 #
                #                 D-45470 Muelheim/Ruhr                 #
                #                      Germany                          #
                #                                                       #
                #                  All rights reserved                  #
                #                        -***-                          #
                #########################################################


                         Program Version 6.0.1  -  RELEASE   -


 With contributions from (in alphabetic order):
[Max-Planck-Institut fuer Kohlenforschung]                               
  Daniel Aravena         : Magnetic Suceptibility                        
  Michael Atanasov       : Ab Initio Ligand Field Theory (pilot matlab implementation)
  Alexander A. Auer      : GIAO ZORA, VPT2 properties, NMR spectrum      
  Ute Becker             : All parallelization in ORCA, NUMFREQ, NUMCALC 
  Giovanni Bistoni       : ED, misc. LED, open-shell LED, HFLD           
  Martin Brehm           : Molecular dynamics                            
  Dmytro Bykov           : pre 5.0 version of the SCF Hessian            
  Marcos Casanova-Páez   : Triplet and SCS-CIS(D). UHF-(DLPNO)-IP/EA/STEOM-CCSD. UHF-CVS-IP/STEOM-CCSD   
  Vijay G. Chilkuri      : MRCI spin determinant printing, contributions to CSF-ICE 
  Pauline Colinet        : FMM embedding                                 
  Dipayan Datta          : RHF DLPNO-CCSD density                        
  Achintya Kumar Dutta   : EOM-CC, STEOM-CC                              
  Nicolas Foglia         : Exact transition moments, OPA infrastructure, MCD improvements    
  Dmitry Ganyushin       : Spin-Orbit,Spin-Spin,Magnetic field MRCI      
  Miquel Garcia-Rates    : C-PCM and meta-GGA Hessian, CCSD/C-PCM, Gaussian charge scheme 
  Tiago L. C. Gouveia    : GS-ROHF, GS-ROCIS                             
  Yang Guo               : DLPNO-NEVPT2, F12-NEVPT2, CIM, IAO-localization        
  Andreas Hansen         : Spin unrestricted coupled pair/coupled cluster methods 
  Ingolf Harden          : AUTO-CI MPn and infrastructure                
  Benjamin Helmich-Paris : MC-RPA, TRAH-(SCF,CASSCF), AVAS, COSX integrals, SCF dyn. polar. 
  Lee Huntington         : MR-EOM, pCC                                   
  Robert Izsak           : Overlap fitted RIJCOSX, COSX-SCS-MP3, EOM     
  Riya Kayal             : Wick's Theorem for AUTO-CI, AUTO-CI UHF-CCSDT 
  Emily Kempfer          : AUTO-CI, RHF CISDT and CCSDT                  
  Christian Kollmar      : KDIIS, OOCD, Brueckner-CCSD(T), CCSD density, CASPT2, CASPT2-K, improved NEVPT2 
  Axel Koslowski         : Symmetry handling                             
  Simone Kossmann        : meta-GGA functionals, TD-DFT gradient, OOMP2, (MP2 Hessian; deprecated post 5.0) 
  Lucas Lang             : DCDCAS                                        
  Marvin Lechner         : AUTO-CI (C++ implementation), FIC-MRCC        
  Spencer Leger          : CASSCF response                               
  Dagmar Lenk            : GEPOL surface, SMD, ORCA-2-JSON               
  Dimitrios Liakos       : Extrapolation schemes; Compound Job, initial MDCI parallelization 
  Dimitrios Manganas     : Further ROCIS development; embedding schemes. LFT, Crystal Embedding 
  Dimitrios Pantazis     : SARC Basis sets                               
  Anastasios Papadopoulos: AUTO-CI, single reference methods and gradients 
  Taras Petrenko         : pre 6.0 DFT Hessian and TD-DFT gradient, (ASA, deprecated), ECA, 1-Electron XAS/XES, NRVS 
  Peter Pinski           : DLPNO-MP2, DLPNO-MP2 Gradient                 
  Christoph Reimann      : Effective Core Potentials                     
  Marius Retegan         : Local ZFS, SOC                                
  Christoph Riplinger    : Optimizer, TS searches, QM/MM, DLPNO-CCSD(T), (RO)-DLPNO pert. Triples 
  Michael Roemelt        : Original ROCIS implementation                 
  Masaaki Saitow         : Open-shell DLPNO-CCSD energy and density      
  Barbara Sandhoefer     : DKH picture change effects                    
  Kantharuban Sivalingam : CASSCF convergence/infrastructure, NEVPT2 and variants, FIC-MRCI 
  Bernardo de Souza      : ESD, SOC TD-DFT                               
  Georgi L. Stoychev     : AutoAux, RI-MP2 NMR, DLPNO-MP2 response, X2C  
  Van Anh Tran           : RI-MP2 g-tensors                              
  Willem Van den Heuvel  : Paramagnetic NMR                              
  Zikuan Wang            : NOTCH, Electric field optimization            
  Frank Wennmohs         : Technical directorship and infrastructure     
  Hang Xu                : AUTO-CI-Response properties                   
                                                                         
[FACCTs GmbH]                                                            
  Markus Bursch, Miquel Garcia-Rates, Christoph Riplinger, Bernardo de Souza, Georgi L. Stoychev 
                                                                 
  APM, Basis sets (HGBS, AHGBS, def-TZVP (Ac-Lr), def2-XVPD (La-Lu)), CI-OPT, improved COSX, DLPNO-Multilevel,           
  DOCKER, DRACO, updates on ESD, GOAT, IRC, LR-CPCM, MBIS, meta-GGA TD-DFT gradient, ML-optimized integration grids, 
  MM, NACMEs, nearIR, NEB, NEB-TS, NL-DFT gradient (VV10), 2- and 3-layer-ONIOM, interface openCOSMO-RS, QMMM,   
  Crystal-QMMM, SF, symmetry and pop. for TD-DFT, r2SCAN hybrids, SOLVATOR                                   
                                                                         
[Other institutions]                                                     
  V. Asgeirsson          : NEB                                           
  Christoph Bannwarth    : sTDA-DFT, sTD-DFT, PBEh-3c, B97-3c, D3        
  Sebastian Ehlert       : rSCAN, r2SCAN, r2SCAN-3c, D4, dhf basis sets  
  Marvin Friede          : D4 for Fr, Ra, Ac-Lr                          
  Lars Goerigk           : TD-DFT with DH, B97 family of functionals     
  Stefan Grimme          : VdW corrections, initial TS optimization, DFT functionals, gCP, sTDA/sTD-DF 
  Waldemar Hujo          : DFT-NL                                        
  H. Jonsson             : NEB                                           
  Holger Kruse           : gCP                                           
  Marcel Mueller         : wB97X-3c, vDZP basis set                      
  Hagen Neugebauer       : wr2SCAN                                       
  Tobias Risthaus        : range-separated hybrid DFT                    
  Lukas Wittmann         : regularized MP2, r2SCAN double-hybrids, wr2SCAN        
                                                                         
We gratefully acknowledge several colleagues who have allowed us to      
interface, adapt or use parts of their codes:                            
  Ed Valeev, F. Pavosevic, A. Kumar             : LibInt (2-el integral package), F12 methods 
  Garnet Chan, S. Sharma, J. Yang, R. Olivares  : DMRG                   
  Ulf Ekstrom                                   : XCFun DFT Library      
  Mihaly Kallay                                 : mrcc  (arbitrary order and MRCC methods)
  Frank Weinhold                                : gennbo (NPA and NBO analysis)           
  Simon Mueller                                 : openCOSMO-RS                            
  Christopher J. Cramer and Donald G. Truhlar   : smd solvation model                     
  S Lehtola, MJT Oliveira, MAL Marques          : LibXC Library                           
  Liviu Ungur et al                             : ANISO software                          


 Your calculation uses the libint2 library for the computation of 2-el integrals
 For citations please refer to: http://libint.valeyev.net

 Your ORCA version has been built with support for libXC version: 6.2.2
 For citations please refer to: https://libxc.gitlab.io

 This ORCA versions uses:
   CBLAS   interface :  Fast vector & matrix operations
   LAPACKE interface :  Fast linear algebra routines
   SCALAPACK package :  Parallel linear algebra routines
   Shared memory     :  Shared parallel matrices
   BLAS/LAPACK       :  OpenBLAS 0.3.27  USE64BITINT DYNAMIC_ARCH NO_AFFINITY Zen SINGLE_THREADED
        Core in use  :  Zen
   Copyright (c) 2011-2014, The OpenBLAS Project


Your calculation utilizes the geometrical counterpoise correction gCP
Please cite in your paper:
H.Kruse, S. Grimme J.Chem.Phys., 136, (2012), 154101 
   

Your calculation utilizes the atom-pairwise dispersion correction
based on EEQ partial charges (D4)


================================================================================

----- Orbital basis set information -----
Your calculation utilizes the basis: def2-mTZVPP
   Stefan Grimme, Andreas Hansen, Sebastian Ehlert, and Jan-Michael Mewes 
   J. Chem. Phys. 154, 064103 (2021). DOI: 10.1063/5.0040021

----- AuxJ basis set information -----
Your calculation utilizes the auxiliary basis: def2/J
   F. Weigend, Phys. Chem. Chem. Phys. 8, 1057 (2006).

================================================================================
                                        WARNINGS
                       Please study these warnings very carefully!
================================================================================



WARNING: SCAN, rSCAN, or r2SCAN functional requested.
  ===> : libXC variant has now been activated.



================================================================================
                                       INPUT FILE
================================================================================
NAME = sp.inp
|  1> ! r2scan-3c def2/J RI DEFGRID2 scfconv6 printgap
|  2> %output
|  3>     printlevel normal
|  4> end
|  5> * xyz 0 1
|  6> C -2.6703761668 0.9512460234 -0.4845424201
|  7> C -1.7631779716 -0.1458652776 0.0219365487
|  8> O -2.1733670057 -1.0424214193 0.7147519488
|  9> C -0.3037497275 -0.0213575401 -0.3805230691
| 10> C 0.4830428716 -1.2726905396 0.0093787736
| 11> C 1.9499655874 -1.1359977297 -0.3817637518
| 12> C 2.5656095118 0.0926126543 0.2800801359
| 13> C 1.789042461 1.3465129509 -0.1080750465
| 14> C 0.3192689401 1.2158557848 0.282462978
| 15> H -3.6886866988 0.5782718578 -0.5599877028
| 16> H -2.6660773481 1.7637011367 0.2408650052
| 17> H -2.3400787451 1.3387102501 -1.4435276734
| 18> H -0.2616967157 0.110216969 -1.4680602196
| 19> H 0.398293576 -1.4202571289 1.0875302022
| 20> H 0.0408376553 -2.1446148809 -0.4762084077
| 21> H 2.4955684362 -2.0330574844 -0.083310443
| 22> H 2.0311371739 -1.0418919263 -1.4677025239
| 23> H 2.5378705585 -0.028811439 1.3651710451
| 24> H 3.6106304494 0.1953929012 -0.01935239
| 25> H 2.2203517186 2.2206518436 0.3843918613
| 26> H 1.8643178816 1.4995188032 -1.1874857618
| 27> H 0.2386421791 1.1146520571 1.3672016573
| 28> H -0.2195800895 2.1167777417 -0.0162193714
| 29> *
| 30> 
| 31>                          ****END OF INPUT****
================================================================================

                       ****************************
                       * Single Point Calculation *
                       ****************************

---------------------------------
CARTESIAN COORDINATES (ANGSTROEM)
---------------------------------
  C     -2.670376    0.951246   -0.484542
  C     -1.763178   -0.145865    0.021937
  O     -2.173367   -1.042421    0.714752
  C     -0.303750   -0.021358   -0.380523
  C      0.483043   -1.272691    0.009379
  C      1.949966   -1.135998   -0.381764
  C      2.565610    0.092613    0.280080
  C      1.789042    1.346513   -0.108075
  C      0.319269    1.215856    0.282463
  H     -3.688687    0.578272   -0.559988
  H     -2.666077    1.763701    0.240865
  H     -2.340079    1.338710   -1.443528
  H     -0.261697    0.110217   -1.468060
  H      0.398294   -1.420257    1.087530
  H      0.040838   -2.144615   -0.476208
  H      2.495568   -2.033057   -0.083310
  H      2.031137   -1.041892   -1.467703
  H      2.537871   -0.028811    1.365171
  H      3.610630    0.195393   -0.019352
  H      2.220352    2.220652    0.384392
  H      1.864318    1.499519   -1.187486
  H      0.238642    1.114652    1.367202
  H     -0.219580    2.116778   -0.016219

----------------------------
CARTESIAN COORDINATES (A.U.)
----------------------------
  NO LB      ZA    FRAG     MASS         X           Y           Z
   0 C     6.0000    0    12.011   -5.046280    1.797594   -0.915652
   1 C     6.0000    0    12.011   -3.331923   -0.275645    0.041454
   2 O     8.0000    0    15.999   -4.107068   -1.969891    1.350685
   3 C     6.0000    0    12.011   -0.574004   -0.040360   -0.719084
   4 C     6.0000    0    12.011    0.912819   -2.405037    0.017723
   5 C     6.0000    0    12.011    3.684901   -2.146725   -0.721429
   6 C     6.0000    0    12.011    4.848299    0.175013    0.529275
   7 C     6.0000    0    12.011    3.380800    2.544541   -0.204232
   8 C     6.0000    0    12.011    0.603331    2.297634    0.533778
   9 H     1.0000    0     1.008   -6.970608    1.092775   -1.058223
  10 H     1.0000    0     1.008   -5.038156    3.332912    0.455169
  11 H     1.0000    0     1.008   -4.422108    2.529796   -2.727872
  12 H     1.0000    0     1.008   -0.494535    0.208280   -2.774232
  13 H     1.0000    0     1.008    0.752666   -2.683897    2.055134
  14 H     1.0000    0     1.008    0.077172   -4.052735   -0.899903
  15 H     1.0000    0     1.008    4.715941   -3.841922   -0.157434
  16 H     1.0000    0     1.008    3.838293   -1.968890   -2.773556
  17 H     1.0000    0     1.008    4.795880   -0.054446    2.579799
  18 H     1.0000    0     1.008    6.823103    0.369239   -0.036571
  19 H     1.0000    0     1.008    4.195857    4.196424    0.726395
  20 H     1.0000    0     1.008    3.523050    2.833680   -2.244023
  21 H     1.0000    0     1.008    0.450968    2.106387    2.583637
  22 H     1.0000    0     1.008   -0.414946    4.000130   -0.030650

--------------------------------
INTERNAL COORDINATES (ANGSTROEM)
--------------------------------
 C      0   0   0     0.000000000000     0.00000000     0.00000000
 C      1   0   0     1.511020422758     0.00000000     0.00000000
 O      2   1   0     1.205014994733   121.90792620     0.00000000
 C      2   1   3     1.519015049410   115.37335430   181.14150076
 C      4   2   1     1.528692355112   111.08931455   188.07895955
 C      5   4   2     1.524316126525   110.88246985   180.66809627
 C      6   5   4     1.525299396515   110.44537482    57.88207226
 C      7   6   5     1.525118613035   110.26073435   302.47223302
 C      8   7   6     1.526376574235   110.78162071    57.64012469
 H      1   2   3     1.087086959939   109.66704830   332.97954860
 H      1   2   3     1.089182135205   108.42063725    90.45490179
 H      1   2   3     1.085761313457   111.87084945   210.32921863
 H      4   2   1     1.096274309178   108.03084075   308.02671198
 H      5   4   2     1.091498439932   108.82273382   301.65621335
 H      5   4   2     1.091600852380   109.38282012    58.77713651
 H      6   5   4     1.091546173854   109.70431651   179.26342911
 H      6   5   4     1.093026873155   109.51937581   297.36301753
 H      7   6   5     1.092215885799   109.34657894    62.73137044
 H      7   6   5     1.091921415095   110.06675693   181.08368158
 H      8   7   6     1.092094379942   110.01205176   178.82272706
 H      8   7   6     1.092796720387   109.35561223   297.06958523
 H      9   8   7     1.092428886225   109.45440134    62.32299599
 H      9   8   7     1.091434741507   109.55564844   180.77045888

---------------------------
INTERNAL COORDINATES (A.U.)
---------------------------
 C      0   0   0     0.000000000000     0.00000000     0.00000000
 C      1   0   0     2.855414781775     0.00000000     0.00000000
 O      2   1   0     2.277148327314   121.90792620     0.00000000
 C      2   1   3     2.870522436690   115.37335430   181.14150076
 C      4   2   1     2.888809894180   111.08931455   188.07895955
 C      5   4   2     2.880540020652   110.88246985   180.66809627
 C      6   5   4     2.882398131649   110.44537482    57.88207226
 C      7   6   5     2.882056500382   110.26073435   302.47223302
 C      8   7   6     2.884433702536   110.78162071    57.64012469
 H      1   2   3     2.054296638041   109.66704830   332.97954860
 H      1   2   3     2.058255945497   108.42063725    90.45490179
 H      1   2   3     2.051791529241   111.87084945   210.32921863
 H      4   2   1     2.071658212000   108.03084075   308.02671198
 H      5   4   2     2.062633127074   108.82273382   301.65621335
 H      5   4   2     2.062826658554   109.38282012    58.77713651
 H      6   5   4     2.062723331113   109.70431651   179.26342911
 H      6   5   4     2.065521447279   109.51937581   297.36301753
 H      7   6   5     2.063988903279   109.34657894    62.73137044
 H      7   6   5     2.063432434292   110.06675693   181.08368158
 H      8   7   6     2.063759290484   110.01205176   178.82272706
 H      8   7   6     2.065086521579   109.35561223   297.06958523
 H      9   8   7     2.064391415750   109.45440134    62.32299599
 H      9   8   7     2.062512754495   109.55564844   180.77045888

---------------------
BASIS SET INFORMATION
---------------------
There are 3 groups of distinct atoms

 Group   1 Type C   : 11s6p1d contracted to 5s3p1d pattern {62111/411/1}
 Group   2 Type O   : 11s6p2d contracted to 5s3p2d pattern {62111/411/11}
 Group   3 Type H   : 4s1p contracted to 2s1p pattern {31/1}

Atom   0C    basis set group =>   1
Atom   1C    basis set group =>   1
Atom   2O    basis set group =>   2
Atom   3C    basis set group =>   1
Atom   4C    basis set group =>   1
Atom   5C    basis set group =>   1
Atom   6C    basis set group =>   1
Atom   7C    basis set group =>   1
Atom   8C    basis set group =>   1
Atom   9H    basis set group =>   3
Atom  10H    basis set group =>   3
Atom  11H    basis set group =>   3
Atom  12H    basis set group =>   3
Atom  13H    basis set group =>   3
Atom  14H    basis set group =>   3
Atom  15H    basis set group =>   3
Atom  16H    basis set group =>   3
Atom  17H    basis set group =>   3
Atom  18H    basis set group =>   3
Atom  19H    basis set group =>   3
Atom  20H    basis set group =>   3
Atom  21H    basis set group =>   3
Atom  22H    basis set group =>   3
---------------------------------
AUXILIARY/J BASIS SET INFORMATION
---------------------------------
There are 3 groups of distinct atoms

 Group   1 Type C   : 12s5p4d2f1g contracted to 6s4p3d1f1g pattern {711111/2111/211/2/1}
 Group   2 Type O   : 12s5p4d2f1g contracted to 6s4p3d1f1g pattern {711111/2111/211/2/1}
 Group   3 Type H   : 5s2p1d contracted to 3s1p1d pattern {311/2/1}

Atom   0C    basis set group =>   1
Atom   1C    basis set group =>   1
Atom   2O    basis set group =>   2
Atom   3C    basis set group =>   1
Atom   4C    basis set group =>   1
Atom   5C    basis set group =>   1
Atom   6C    basis set group =>   1
Atom   7C    basis set group =>   1
Atom   8C    basis set group =>   1
Atom   9H    basis set group =>   3
Atom  10H    basis set group =>   3
Atom  11H    basis set group =>   3
Atom  12H    basis set group =>   3
Atom  13H    basis set group =>   3
Atom  14H    basis set group =>   3
Atom  15H    basis set group =>   3
Atom  16H    basis set group =>   3
Atom  17H    basis set group =>   3
Atom  18H    basis set group =>   3
Atom  19H    basis set group =>   3
Atom  20H    basis set group =>   3
Atom  21H    basis set group =>   3
Atom  22H    basis set group =>   3

Checking for AutoStart:
The File: sp.gbw exists
Trying to determine its content:
     ... Fine, the file contains calculation information
     ... Fine, the calculation information was read
     ... Fine, the file contains a basis set
     ... Fine, the basis set was read
     ... Fine, the file contains a geometry
     ... Fine, the geometry was read
     ... Fine, the file contains a set of orbitals
     ... Fine, the orbitals can be read
     => possible old guess file was deleted
     => GBW file was renamed to GES file
     => GES file is set as startup file
     => Guess is set to MORead
     ... now leaving AutoStart

------------------------------------------------------------------------------
                             ORCA STARTUP CALCULATIONS
                           -- RI-GTO INTEGRALS CHOSEN --
------------------------------------------------------------------------------
------------------------------------------------------------------------------
                   ___                                                        
                  /   \      - P O W E R E D   B Y -                         
                 /     \                                                     
                 |  |  |   _    _      __       _____    __    __             
                 |  |  |  | |  | |    /  \     |  _  \  |  |  /  |          
                  \  \/   | |  | |   /    \    | | | |  |  | /  /          
                 / \  \   | |__| |  /  /\  \   | |_| |  |  |/  /          
                |  |  |   |  __  | /  /__\  \  |    /   |      \           
                |  |  |   | |  | | |   __   |  |    \   |  |\   \          
                \     /   | |  | | |  |  |  |  | |\  \  |  | \   \       
                 \___/    |_|  |_| |__|  |__|  |_| \__\ |__|  \__/        
                                                                              
                      - O R C A' S   B I G   F R I E N D -                    
                                      &                                       
                       - I N T E G R A L  F E E D E R -                       
                                                                              
 v1 FN, 2020, v2 2021, v3 2022-2024                                           
------------------------------------------------------------------------------


----------------------
SHARK INTEGRAL PACKAGE
----------------------

Number of atoms                             ...     23
Number of basis functions                   ...    246
Number of shells                            ...    124
Maximum angular momentum                    ...      2
Integral batch strategy                     ... SHARK/LIBINT Hybrid
RI-J (if used) integral strategy            ... SPLIT-RIJ (Revised 2003 algorithm where possible)
Printlevel                                  ...      1
Contraction scheme used                     ... SEGMENTED contraction
Prescreening option                         ... SCHWARTZ
   Thresh                                   ... 1.000e-10
   Tcut                                     ... 1.000e-11
   Tpresel                                  ... 1.000e-11 
Coulomb Range Separation                    ... NOT USED
Exchange Range Separation                   ... NOT USED
Multipole approximations                    ... NOT USED
Finite Nucleus Model                        ... NOT USED
CABS basis                                  ... NOT available
Auxiliary Coulomb fitting basis             ... AVAILABLE
   # of basis functions in Aux-J            ...    595
   # of shells in Aux-J                     ...    205
   Maximum angular momentum in Aux-J        ...      4
Auxiliary J/K fitting basis                 ... NOT available
Auxiliary Correlation fitting basis         ... NOT available
Auxiliary 'external' fitting basis          ... NOT available

Checking pre-screening integrals            ... done (  0.0 sec) Dimension = 124
Check shell pair data                       ... done (  0.0 sec)
Shell pair information
Shell pair cut-off parameter TPreSel        ...   1.0e-11
Total number of shell pairs                 ...      7750
Shell pairs after pre-screening             ...      6943
Total number of primitive shell pairs       ...     27501
Primitive shell pairs kept                  ...     17431
          la=0 lb=0:   2387 shell pairs
          la=1 lb=0:   2689 shell pairs
          la=1 lb=1:    784 shell pairs
          la=2 lb=0:    657 shell pairs
          la=2 lb=1:    375 shell pairs
          la=2 lb=2:     51 shell pairs

Calculating one electron integrals          ... done (  0.0 sec)
Calculating RI/J V-Matrix + Cholesky decomp.... done (  0.0 sec)
Calculating Nuclear repulsion               ... done (  0.0 sec) ENN=    473.584382287034 Eh

Diagonalization of the overlap matrix:
Smallest eigenvalue                        ... 7.200e-05
Time for diagonalization                   ...    0.005 sec
Threshold for overlap eigenvalues          ... 1.000e-07
Number of eigenvalues below threshold      ... 0
Time for construction of square roots      ...    0.005 sec
Total time needed                          ...    0.011 sec

-------------------
DFT GRID GENERATION
-------------------

General Integration Accuracy     IntAcc      ... 4.388
Radial Grid Type                 RadialGrid  ... OptM3 with GC (2021)
Angular Grid (max. ang.)         AngularGrid ... 4 (Lebedev-302)
Angular grid pruning method      GridPruning ... 4 (adaptive)
Weight generation scheme         WeightScheme... mBecke (2022)
Basis function cutoff            BFCut       ... 1.0000e-10
Integration weight cutoff        WCut        ... 1.0000e-14
Partially contracted basis set               ... off
Rotationally invariant grid construction     ... off
Angular grids for H and He will be reduced by one unit
Diffuse basis detected: some atoms will have their outermost
                        angular grid increased by 1.

Total number of grid points                  ...    98606
Total number of batches                      ...     1554
Average number of points per batch           ...       63
Average number of grid points per atom       ...     4287
Initializing property integral containers    ... done (  0.0 sec)

SHARK setup successfully completed in   1.0 seconds

Maximum memory used throughout the entire STARTUP-calculation: 46.7 MB
-------------------------------------------------------------------------------
                                 ORCA GUESS
                   Start orbitals & Density for SCF / CASSCF
-------------------------------------------------------------------------------

------------
SCF SETTINGS
------------
Hamiltonian:
 Density Functional     Method          .... DFT(GTOs)
  Functional kind                       .... Exchange
  Functional name                       .... Re-regularized SCAN exchange by Furness et al
  Functional family                     .... MGGA
  Functional refs                              
    [ 0] J. W. Furness, A. D. Kaplan, J. Ning, J. P. Perdew, and J. Sun.,  J. Phys. Chem. Lett. 11, 8208-8215 (2020), doi: 10.1021/acs.jpclett.0c02405
    [ 1] J. W. Furness, A. D. Kaplan, J. Ning, J. P. Perdew, and J. Sun.,  J. Phys. Chem. Lett. 11, 9248-9248 (2020), doi: 10.1021/acs.jpclett.0c03077
  Functional external parameters        .... 6
    Parameter  0 _c1        =  6.670000e-01 : c1 parameter        
    Parameter  1 _c2        =  8.000000e-01 : c2 parameter        
    Parameter  2 _d         =  1.240000e+00 : d parameter         
    Parameter  3 _k1        =  6.500000e-02 : k1 parameter        
    Parameter  4 _eta       =  1.000000e-03 : eta parameter       
    Parameter  5 _dp2       =  3.610000e-01 : dp2 parameter       
  Functional kind                       .... Correlation
  Functional name                       .... Re-regularized SCAN correlation by Furness et al
  Functional family                     .... MGGA
  Functional refs                              
    [ 0] J. W. Furness, A. D. Kaplan, J. Ning, J. P. Perdew, and J. Sun.,  J. Phys. Chem. Lett. 11, 8208-8215 (2020), doi: 10.1021/acs.jpclett.0c02405
    [ 1] J. W. Furness, A. D. Kaplan, J. Ning, J. P. Perdew, and J. Sun.,  J. Phys. Chem. Lett. 11, 9248-9248 (2020), doi: 10.1021/acs.jpclett.0c03077
  Functional external parameters        .... 1
    Parameter  0 _eta       =  1.000000e-03 : Regularization parameter
 Gradients option       PostSCFGGA      .... off
 RI-approximation to the Coulomb term is turned on
   Number of AuxJ basis functions       .... 595


General Settings:
 Integral files         IntName         .... sp
 Hartree-Fock type      HFTyp           .... RHF
 Total Charge           Charge          ....    0
 Multiplicity           Mult            ....    1
 Number of Electrons    NEL             ....   70
 Basis Dimension        Dim             ....  246
 Nuclear Repulsion      ENuc            ....    473.5843822870 Eh

Convergence Acceleration:
 AO-DIIS                CNVDIIS         .... on
   Start iteration      DIISMaxIt       ....    12
   Startup error        DIISStart       ....  0.200000
   # of expansion vecs  DIISMaxEq       ....     5
   Bias factor          DIISBfac        ....   1.050
   Max. coefficient     DIISMaxC        ....  10.000
 MO-DIIS                CNVKDIIS        .... off
 Trust-Rad. Augm. Hess. CNVTRAH         .... auto
   Auto Start mean grad. ratio tolernc. ....  1.125000
   Auto Start start iteration           ....     1
   Auto Start num. interpolation iter.  ....    10
   Max. Number of Micro iterations      ....    24
   Max. Number of Macro iterations      .... Maxiter - #DIIS iter
   Number of Davidson start vectors     ....     2
   Converg. threshold    (grad. norm)   ....   3.330e-04
   Grad. Scal. Fac. for Micro threshold ....   0.100
   Minimum threshold for Micro iter.    ....   1.000e-02
   NR start threshold (gradient norm)   ....   1.000e-04
   Initial trust radius                 ....   0.400
   Minimum AH scaling param. (alpha)    ....   1.000
   Maximum AH scaling param. (alpha)    .... 1000.000
   Quad. conv. algorithm                .... NR
   White noise on init. David. guess    .... on
   Maximum white noise                  ....   0.010
   Pseudo random numbers                .... off
   Inactive MOs                         .... canonical
   Orbital update algorithm             .... Taylor
   Preconditioner                       .... Diag
   Full preconditioner red. dimension   ....   250
   COSX micro iterations for RIJONX calc.... off
 SOSCF                  CNVSOSCF        .... on
   Start iteration      SOSCFMaxIt      ....   150
   Startup grad/error   SOSCFStart      ....  0.003300
   Hessian update       SOSCFHessUp     .... L-BFGS
 Level Shifting         CNVShift        .... on
   Level shift para.    LevelShift      ....    0.2500
   Turn off err/grad.   ShiftErr        ....    0.0010
 Zerner damping         CNVZerner       .... off
 Static damping         CNVDamp         .... on
   Fraction old density DampFac         ....    0.7000
   Max. Damping (<1)    DampMax         ....    0.9800
   Min. Damping (>=0)   DampMin         ....    0.0000
   Turn off err/grad.   DampErr         ....    0.1000

SCF Procedure:
 Maximum # iterations   MaxIter         ....   125
 SCF integral mode      SCFMode         .... Direct
   Integral package                     .... SHARK and LIBINT hybrid scheme
 Reset frequency        DirectResetFreq ....    20
 Integral Threshold     Thresh          ....  1.000e-10 Eh
 Primitive CutOff       TCut            ....  1.000e-11 Eh

Convergence Tolerance:
 Convergence Check Mode ConvCheckMode   .... Total+1el-Energy
 Convergence forced     ConvForced      .... 0
 Energy Change          TolE            ....  1.000e-06 Eh
 1-El. energy change                    ....  1.000e-03 Eh
 Orbital Gradient       TolG            ....  3.330e-04
 Orbital Rotation angle TolX            ....  3.330e-04
 DIIS Error             TolErr          ....  1.000e-06

---------------------
INITIAL GUESS: MOREAD
---------------------
Guess MOs are being read from file: sp.ges
Input Geometry matches current geometry (good)
Atom 0: N(Shells)= 9 and 6 - projection required
Input basis set needs projection
NBasis(read)= 154
NBasis(calc)= 246
Basis set overlap was calculated
Using GuessMode=FMatrix for the initial guess
C*T matrix was formed
Effective Fockian was calculated
Effective Fockian was diagonalized
Initial density was built
                      ------------------
                      INITIAL GUESS DONE (   0.0 sec)
                      ------------------
             **** ENERGY FILE WAS UPDATED (sp.en.tmp) ****
Finished Guess after   0.7 sec
Maximum memory used throughout the entire GUESS-calculation: 19.3 MB

-------------------------------------------------------------------------------------------
                                      ORCA LEAN-SCF
                              memory conserving SCF solver
-------------------------------------------------------------------------------------------

----------------------------------------D-I-I-S--------------------------------------------
Iteration    Energy (Eh)           Delta-E    RMSDP     MaxDP     DIISErr   Damp  Time(sec)
-------------------------------------------------------------------------------------------
               ***  Starting incremental Fock matrix formation  ***
    1    -388.2167401952056593     0.00e+00  7.83e-03  3.19e-01  6.24e-01  0.700   2.3
    2    -388.2744757085380911    -5.77e-02  5.88e-03  2.13e-01  4.38e-01  0.700   2.0
    3    -388.3152843403892689    -4.08e-02  4.20e-03  1.45e-01  3.07e-01  0.700   2.0
    4    -388.3439299433987912    -2.86e-02  2.98e-03  1.00e-01  2.15e-01  0.700   2.0
                               ***Turning on AO-DIIS***
    5    -388.3640199739637069    -2.01e-02  2.12e-03  6.94e-02  1.51e-01  0.700   2.0
    6    -388.3781017273640259    -1.41e-02  1.49e-03  4.84e-02  1.05e-01  0.700   1.9
    7    -388.3879719085198872    -9.87e-03  1.05e-03  3.38e-02  7.37e-02  0.700   1.9
    8    -388.3948868326178285    -6.91e-03  2.46e-03  7.85e-02  5.17e-02  0.000   1.9
                              *** Initializing SOSCF ***
---------------------------------------S-O-S-C-F--------------------------------------
Iteration    Energy (Eh)           Delta-E    RMSDP     MaxDP     MaxGrad    Time(sec)
--------------------------------------------------------------------------------------
    9    -388.4110420012747795    -1.62e-02  8.96e-06  2.43e-04  2.54e-04     2.0
               *** Restarting incremental Fock matrix formation ***
   10    -388.4110420061235232    -4.85e-09  2.22e-05  1.65e-03  9.58e-05     2.4
   11    -388.4110411512497762     8.55e-07  1.36e-05  9.45e-04  2.74e-04     1.6
                 **** Energy Check signals convergence ****

               *****************************************************
               *                     SUCCESS                       *
               *           SCF CONVERGED AFTER  11 CYCLES          *
               *****************************************************

             **** ENERGY FILE WAS UPDATED (sp.en.tmp) ****

----------------
TOTAL SCF ENERGY
----------------

Total Energy       :       -388.41104115124978 Eh          -10569.20176 eV

Components:
Nuclear Repulsion  :        473.58438228703443 Eh           12886.88620 eV
Electronic Energy  :       -861.99542343828421 Eh          -23456.08796 eV
One Electron Energy:      -1463.82782906221200 Eh          -39832.78029 eV
Two Electron Energy:        601.83240562392780 Eh           16376.69233 eV

Virial components:
Potential Energy   :       -775.15813045573293 Eh          -21093.12508 eV
Kinetic Energy     :        386.74708930448315 Eh           10523.92333 eV
Virial Ratio       :          2.00430242888126

DFT components:
N(Alpha)           :       35.000057896033 electrons
N(Beta)            :       35.000057896033 electrons
N(Total)           :       70.000115792067 electrons
E(X)               :      -54.947215413563 Eh       
E(C)               :       -2.222791787406 Eh       
E(XC)              :      -57.170007200969 Eh       

---------------
SCF CONVERGENCE
---------------

  Last Energy change         ...   -8.5487e-07  Tolerance :   1.0000e-06
  Last MAX-Density change    ...    9.4457e-04  Tolerance :   1.0000e-05
  Last RMS-Density change    ...    1.3565e-05  Tolerance :   1.0000e-06
  Last DIIS Error            ...    2.5372e-04  Tolerance :   1.0000e-06
  Last Orbital Gradient      ...    2.7366e-04  Tolerance :   3.3300e-04
  Last Orbital Rotation      ...    2.6237e-04  Tolerance :   3.3300e-04


----------------
ORBITAL ENERGIES
----------------

  NO   OCC          E(Eh)            E(eV) 
   0   2.0000     -18.936225      -515.2809 
   1   2.0000     -10.114305      -275.2242 
   2   2.0000     -10.040733      -273.2222 
   3   2.0000     -10.038179      -273.1527 
   4   2.0000     -10.031862      -272.9809 
   5   2.0000     -10.030762      -272.9509 
   6   2.0000     -10.025519      -272.8082 
   7   2.0000     -10.024203      -272.7724 
   8   2.0000     -10.021362      -272.6951 
   9   2.0000      -1.007512       -27.4158 
  10   2.0000      -0.809680       -22.0325 
  11   2.0000      -0.738266       -20.0892 
  12   2.0000      -0.713271       -19.4091 
  13   2.0000      -0.697015       -18.9667 
  14   2.0000      -0.596094       -16.2205 
  15   2.0000      -0.579061       -15.7571 
  16   2.0000      -0.531304       -14.4575 
  17   2.0000      -0.497176       -13.5288 
  18   2.0000      -0.452403       -12.3105 
  19   2.0000      -0.434774       -11.8308 
  20   2.0000      -0.421042       -11.4571 
  21   2.0000      -0.416237       -11.3264 
  22   2.0000      -0.403072       -10.9681 
  23   2.0000      -0.395400       -10.7594 
  24   2.0000      -0.384451       -10.4614 
  25   2.0000      -0.356119        -9.6905 
  26   2.0000      -0.351214        -9.5570 
  27   2.0000      -0.340595        -9.2681 
  28   2.0000      -0.328464        -8.9380 
  29   2.0000      -0.317153        -8.6302 
  30   2.0000      -0.315322        -8.5803 
  31   2.0000      -0.295198        -8.0327 
  32   2.0000      -0.282559        -7.6888 
  33   2.0000      -0.271216        -7.3802 
  34   2.0000      -0.209678        -5.7056 
  35   0.0000      -0.041848        -1.1388 
  36   0.0000       0.070583         1.9206 
  37   0.0000       0.094706         2.5771 
  38   0.0000       0.103189         2.8079 
  39   0.0000       0.112277         3.0552 
  40   0.0000       0.122045         3.3210 
  41   0.0000       0.124803         3.3961 
  42   0.0000       0.131903         3.5893 
  43   0.0000       0.143002         3.8913 
  44   0.0000       0.155285         4.2255 
  45   0.0000       0.157110         4.2752 
*Only the first 10 virtual orbitals were printed.

                    ********************************
                    * MULLIKEN POPULATION ANALYSIS *
                    ********************************

-----------------------
MULLIKEN ATOMIC CHARGES
-----------------------
   0 C :   -0.555318
   1 C :    0.290783
   2 O :   -0.343918
   3 C :   -0.051085
   4 C :   -0.368766
   5 C :   -0.275786
   6 C :   -0.283204
   7 C :   -0.286777
   8 C :   -0.328615
   9 H :    0.177682
  10 H :    0.181514
  11 H :    0.160184
  12 H :    0.164144
  13 H :    0.172942
  14 H :    0.156242
  15 H :    0.148753
  16 H :    0.142298
  17 H :    0.143853
  18 H :    0.147806
  19 H :    0.148498
  20 H :    0.144429
  21 H :    0.164866
  22 H :    0.149473
Sum of atomic charges:    0.0000000

--------------------------------
MULLIKEN REDUCED ORBITAL CHARGES
--------------------------------
  0 C s       :     3.349339  s :     3.349339
      pz      :     1.066293  p :     3.181615
      px      :     1.078499
      py      :     1.036823
      dz2     :     0.004507  d :     0.024364
      dxz     :     0.002690
      dyz     :     0.006628
      dx2y2   :     0.004759
      dxy     :     0.005780

  1 C s       :     3.156659  s :     3.156659
      pz      :     0.718170  p :     2.459075
      px      :     0.980295
      py      :     0.760610
      dz2     :     0.013525  d :     0.093482
      dxz     :     0.016809
      dyz     :     0.013972
      dx2y2   :     0.025069
      dxy     :     0.024107

  2 O s       :     3.841741  s :     3.841741
      pz      :     1.341875  p :     4.480492
      px      :     1.747307
      py      :     1.391310
      dz2     :     0.009831  d :     0.021684
      dxz     :     0.002035
      dyz     :     0.005722
      dx2y2   :     0.001388
      dxy     :     0.002707

  3 C s       :     3.040631  s :     3.040631
      pz      :     1.040651  p :     2.966171
      px      :     0.972940
      py      :     0.952580
      dz2     :     0.011323  d :     0.044283
      dxz     :     0.004726
      dyz     :     0.006629
      dx2y2   :     0.012411
      dxy     :     0.009194

  4 C s       :     3.284741  s :     3.284741
      pz      :     1.085644  p :     3.047445
      px      :     0.945636
      py      :     1.016165
      dz2     :     0.009217  d :     0.036579
      dxz     :     0.005041
      dyz     :     0.004724
      dx2y2   :     0.008290
      dxy     :     0.009307

  5 C s       :     3.217660  s :     3.217660
      pz      :     1.026967  p :     3.020884
      px      :     0.950339
      py      :     1.043578
      dz2     :     0.010421  d :     0.037242
      dxz     :     0.004876
      dyz     :     0.004248
      dx2y2   :     0.008385
      dxy     :     0.009313

  6 C s       :     3.230553  s :     3.230553
      pz      :     1.027353  p :     3.015585
      px      :     1.078635
      py      :     0.909598
      dz2     :     0.010350  d :     0.037066
      dxz     :     0.002888
      dyz     :     0.006168
      dx2y2   :     0.009880
      dxy     :     0.007781

  7 C s       :     3.225184  s :     3.225184
      pz      :     1.065885  p :     3.024406
      px      :     0.927972
      py      :     1.030549
      dz2     :     0.009365  d :     0.037186
      dxz     :     0.004839
      dyz     :     0.005070
      dx2y2   :     0.009101
      dxy     :     0.008811

  8 C s       :     3.258267  s :     3.258267
      pz      :     1.025202  p :     3.033258
      px      :     0.982863
      py      :     1.025193
      dz2     :     0.010408  d :     0.037090
      dxz     :     0.004912
      dyz     :     0.004207
      dx2y2   :     0.007953
      dxy     :     0.009610

  9 H s       :     0.804157  s :     0.804157
      pz      :     0.003448  p :     0.018161
      px      :     0.010363
      py      :     0.004350

 10 H s       :     0.799791  s :     0.799791
      pz      :     0.006858  p :     0.018695
      px      :     0.003893
      py      :     0.007943

 11 H s       :     0.821521  s :     0.821521
      pz      :     0.009486  p :     0.018295
      px      :     0.004059
      py      :     0.004750

 12 H s       :     0.818219  s :     0.818219
      pz      :     0.010862  p :     0.017637
      px      :     0.003277
      py      :     0.003498

 13 H s       :     0.809159  s :     0.809159
      pz      :     0.010901  p :     0.017899
      px      :     0.003494
      py      :     0.003504

 14 H s       :     0.825831  s :     0.825831
      pz      :     0.004777  p :     0.017926
      px      :     0.004772
      py      :     0.008378

 15 H s       :     0.833379  s :     0.833379
      pz      :     0.003996  p :     0.017869
      px      :     0.005349
      py      :     0.008523

 16 H s       :     0.839949  s :     0.839949
      pz      :     0.010782  p :     0.017754
      px      :     0.003506
      py      :     0.003466

 17 H s       :     0.838367  s :     0.838367
      pz      :     0.010843  p :     0.017780
      px      :     0.003379
      py      :     0.003558

 18 H s       :     0.834339  s :     0.834339
      pz      :     0.003991  p :     0.017855
      px      :     0.010296
      py      :     0.003568

 19 H s       :     0.833660  s :     0.833660
      pz      :     0.004900  p :     0.017841
      px      :     0.004670
      py      :     0.008271

 20 H s       :     0.837838  s :     0.837838
      pz      :     0.010734  p :     0.017733
      px      :     0.003453
      py      :     0.003547

 21 H s       :     0.817459  s :     0.817459
      pz      :     0.010853  p :     0.017675
      px      :     0.003409
      py      :     0.003412

 22 H s       :     0.832547  s :     0.832547
      pz      :     0.003996  p :     0.017980
      px      :     0.005422
      py      :     0.008562


------------------------
MULLIKEN OVERLAP CHARGES
------------------------
B(  0-C ,  1-C ) :   0.5288 B(  0-C ,  2-O ) :  -0.1503 B(  0-C ,  3-C ) :  -0.2740 
B(  0-C ,  4-C ) :   0.0500 B(  0-C ,  9-H ) :   0.8235 B(  0-C , 10-H ) :   0.8044 
B(  0-C , 11-H ) :   0.8292 B(  1-C ,  2-O ) :   1.1339 B(  1-C ,  3-C ) :  -0.3471 
B(  1-C ,  9-H ) :  -0.0689 B(  1-C , 11-H ) :  -0.1445 B(  2-O ,  3-C ) :  -0.4164 
B(  2-O ,  4-C ) :   0.1525 B(  3-C ,  4-C ) :   0.0572 B(  3-C ,  5-C ) :  -0.1898 
B(  3-C ,  6-C ) :   0.1290 B(  3-C ,  7-C ) :  -0.2016 B(  3-C ,  8-C ) :   0.3529 
B(  3-C , 11-H ) :   0.0759 B(  3-C , 12-H ) :   0.7815 B(  3-C , 13-H ) :  -0.1106 
B(  3-C , 21-H ) :  -0.1538 B(  4-C ,  5-C ) :   0.3520 B(  4-C ,  6-C ) :  -0.3269 
B(  4-C ,  7-C ) :   0.1396 B(  4-C ,  8-C ) :  -0.2584 B(  4-C , 13-H ) :   0.9201 
B(  4-C , 14-H ) :   0.7129 B(  4-C , 16-H ) :  -0.0909 B(  5-C ,  6-C ) :   0.4907 
B(  5-C ,  7-C ) :  -0.3531 B(  5-C ,  8-C ) :   0.0986 B(  5-C , 13-H ) :  -0.1156 
B(  5-C , 15-H ) :   0.7318 B(  5-C , 16-H ) :   0.8747 B(  5-C , 17-H ) :  -0.1073 
B(  6-C ,  7-C ) :   0.4802 B(  6-C ,  8-C ) :  -0.2631 B(  6-C , 16-H ) :  -0.1109 
B(  6-C , 17-H ) :   0.8754 B(  6-C , 18-H ) :   0.7278 B(  6-C , 20-H ) :  -0.1050 
B(  7-C ,  8-C ) :   0.3413 B(  7-C , 17-H ) :  -0.1054 B(  7-C , 19-H ) :   0.7134 
B(  7-C , 20-H ) :   0.8787 B(  7-C , 21-H ) :  -0.0787 B(  8-C , 12-H ) :  -0.1017 
B(  8-C , 20-H ) :  -0.0933 B(  8-C , 21-H ) :   0.9024 B(  8-C , 22-H ) :   0.7017 



                     *******************************
                     * LOEWDIN POPULATION ANALYSIS *
                     *******************************

----------------------
LOEWDIN ATOMIC CHARGES
----------------------
   0 C :   -0.392248
   1 C :    0.224764
   2 O :   -0.458213
   3 C :   -0.205278
   4 C :   -0.277815
   5 C :   -0.301971
   6 C :   -0.303661
   7 C :   -0.299724
   8 C :   -0.274393
   9 H :    0.176429
  10 H :    0.180176
  11 H :    0.162866
  12 H :    0.173817
  13 H :    0.170577
  14 H :    0.166761
  15 H :    0.156479
  16 H :    0.154046
  17 H :    0.155671
  18 H :    0.155330
  19 H :    0.156565
  20 H :    0.155391
  21 H :    0.164223
  22 H :    0.160207

-------------------------------
LOEWDIN REDUCED ORBITAL CHARGES
-------------------------------
  0 C s       :     2.968939  s :     2.968939
      pz      :     1.129101  p :     3.365990
      px      :     1.131991
      py      :     1.104898
      dz2     :     0.011215  d :     0.057318
      dxz     :     0.005752
      dyz     :     0.015988
      dx2y2   :     0.011116
      dxy     :     0.013247

  1 C s       :     2.822776  s :     2.822776
      pz      :     0.808161  p :     2.751347
      px      :     1.012942
      py      :     0.930244
      dz2     :     0.023055  d :     0.201114
      dxz     :     0.036913
      dyz     :     0.034622
      dx2y2   :     0.054017
      dxy     :     0.052506

  2 O s       :     3.552021  s :     3.552021
      pz      :     1.407709  p :     4.662372
      px      :     1.746895
      py      :     1.507768
      dz2     :     0.028464  d :     0.243820
      dxz     :     0.041221
      dyz     :     0.063426
      dx2y2   :     0.056271
      dxy     :     0.054439

  3 C s       :     2.899551  s :     2.899551
      pz      :     1.103445  p :     3.214759
      px      :     1.039803
      py      :     1.071510
      dz2     :     0.025246  d :     0.090968
      dxz     :     0.008701
      dyz     :     0.012834
      dx2y2   :     0.025095
      dxy     :     0.019092

  4 C s       :     2.922532  s :     2.922532
      pz      :     1.140414  p :     3.275638
      px      :     1.054328
      py      :     1.080896
      dz2     :     0.021135  d :     0.079645
      dxz     :     0.009997
      dyz     :     0.010217
      dx2y2   :     0.018203
      dxy     :     0.020093

  5 C s       :     2.929471  s :     2.929471
      pz      :     1.122857  p :     3.291524
      px      :     1.072631
      py      :     1.096035
      dz2     :     0.024033  d :     0.080976
      dxz     :     0.009708
      dyz     :     0.009133
      dx2y2   :     0.018038
      dxy     :     0.020063

  6 C s       :     2.931962  s :     2.931962
      pz      :     1.125811  p :     3.291168
      px      :     1.104919
      py      :     1.060438
      dz2     :     0.023877  d :     0.080531
      dxz     :     0.005933
      dyz     :     0.012661
      dx2y2   :     0.021359
      dxy     :     0.016701

  7 C s       :     2.931609  s :     2.931609
      pz      :     1.133316  p :     3.287388
      px      :     1.059192
      py      :     1.094880
      dz2     :     0.021864  d :     0.080726
      dxz     :     0.009609
      dyz     :     0.010857
      dx2y2   :     0.019552
      dxy     :     0.018845

  8 C s       :     2.925654  s :     2.925654
      pz      :     1.125885  p :     3.268086
      px      :     1.066292
      py      :     1.075909
      dz2     :     0.023804  d :     0.080653
      dxz     :     0.009598
      dyz     :     0.009157
      dx2y2   :     0.017463
      dxy     :     0.020630

  9 H s       :     0.779815  s :     0.779815
      pz      :     0.007408  p :     0.043756
      px      :     0.026167
      py      :     0.010181

 10 H s       :     0.774698  s :     0.774698
      pz      :     0.016981  p :     0.045126
      px      :     0.008728
      py      :     0.019418

 11 H s       :     0.792449  s :     0.792449
      pz      :     0.023703  p :     0.044686
      px      :     0.009596
      py      :     0.011387

 12 H s       :     0.781558  s :     0.781558
      pz      :     0.027003  p :     0.044625
      px      :     0.008717
      py      :     0.008905

 13 H s       :     0.785584  s :     0.785584
      pz      :     0.027451  p :     0.043839
      px      :     0.008111
      py      :     0.008277

 14 H s       :     0.789778  s :     0.789778
      pz      :     0.011434  p :     0.043461
      px      :     0.011605
      py      :     0.020422

 15 H s       :     0.800142  s :     0.800142
      pz      :     0.009363  p :     0.043379
      px      :     0.012975
      py      :     0.021041

 16 H s       :     0.802872  s :     0.802872
      pz      :     0.026633  p :     0.043082
      px      :     0.008286
      py      :     0.008164

 17 H s       :     0.801076  s :     0.801076
      pz      :     0.026897  p :     0.043253
      px      :     0.007942
      py      :     0.008414

 18 H s       :     0.801308  s :     0.801308
      pz      :     0.009373  p :     0.043362
      px      :     0.025431
      py      :     0.008557

 19 H s       :     0.800020  s :     0.800020
      pz      :     0.011775  p :     0.043415
      px      :     0.011252
      py      :     0.020389

 20 H s       :     0.801506  s :     0.801506
      pz      :     0.026623  p :     0.043103
      px      :     0.008055
      py      :     0.008425

 21 H s       :     0.792144  s :     0.792144
      pz      :     0.027500  p :     0.043634
      px      :     0.008225
      py      :     0.007909

 22 H s       :     0.795787  s :     0.795787
      pz      :     0.009462  p :     0.044006
      px      :     0.013199
      py      :     0.021344


---------------------------------
LOEWDIN BOND ORDERS (THRESH 0.050000)
---------------------------------
B(  0-C ,  1-C ) :   1.0263 B(  0-C ,  2-O ) :   0.2170 B(  0-C ,  3-C ) :   0.0901 
B(  0-C ,  9-H ) :   0.9086 B(  0-C , 10-H ) :   0.8956 B(  0-C , 11-H ) :   0.9128 
B(  1-C ,  2-O ) :   2.3830 B(  1-C ,  3-C ) :   0.9499 B(  1-C ,  4-C ) :   0.0690 
B(  1-C ,  8-C ) :   0.0807 B(  2-O ,  3-C ) :   0.2086 B(  2-O ,  4-C ) :   0.0616 
B(  3-C ,  4-C ) :   1.0519 B(  3-C ,  5-C ) :   0.0662 B(  3-C ,  7-C ) :   0.0642 
B(  3-C ,  8-C ) :   1.0358 B(  3-C , 12-H ) :   0.8351 B(  4-C ,  5-C ) :   1.1020 
B(  4-C ,  6-C ) :   0.0632 B(  4-C ,  8-C ) :   0.0593 B(  4-C , 13-H ) :   0.8733 
B(  4-C , 14-H ) :   0.8792 B(  5-C ,  6-C ) :   1.1038 B(  5-C ,  7-C ) :   0.0625 
B(  5-C , 15-H ) :   0.8895 B(  5-C , 16-H ) :   0.8872 B(  6-C ,  7-C ) :   1.1045 
B(  6-C ,  8-C ) :   0.0622 B(  6-C , 17-H ) :   0.8894 B(  6-C , 18-H ) :   0.8921 
B(  7-C ,  8-C ) :   1.0988 B(  7-C , 19-H ) :   0.8891 B(  7-C , 20-H ) :   0.8883 
B(  8-C , 21-H ) :   0.8807 B(  8-C , 22-H ) :   0.8807 

------------------------------------------
LOEWDIN REDUCED ORBITAL POPULATIONS PER MO
-------------------------------------------
THRESHOLD FOR PRINTING IS 0.1%%
                      0         1         2         3         4         5   
                 -18.93622 -10.11430 -10.04073 -10.03818 -10.03186 -10.03076
                   2.00000   2.00000   2.00000   2.00000   2.00000   2.00000
                  --------  --------  --------  --------  --------  --------
 0 C  s               0.0       0.0       0.0       0.0      99.7       0.0
 1 C  s               0.0      99.2       0.0       0.0       0.0       0.0
 2 O  s              99.9       0.0       0.0       0.0       0.0       0.0
 2 O  py              0.0       0.1       0.0       0.0       0.0       0.0
 2 O  dyz             0.0       0.2       0.0       0.0       0.0       0.0
 3 C  s               0.0       0.0      99.6       0.1       0.0       0.0
 7 C  s               0.0       0.0       0.0       0.0       0.0      99.7
 8 C  s               0.0       0.0       0.1      99.6       0.0       0.0

                      6         7         8         9        10        11   
                 -10.02552 -10.02420 -10.02136  -1.00751  -0.80968  -0.73827
                   2.00000   2.00000   2.00000   2.00000   2.00000   2.00000
                  --------  --------  --------  --------  --------  --------
 0 C  s               0.0       0.0       0.0       1.1       0.5      12.0
 0 C  pz              0.0       0.0       0.0       0.4       0.0       0.0
 0 C  px              0.0       0.0       0.0       0.3       0.3       0.7
 0 C  py              0.0       0.0       0.0       1.2       0.0       0.1
 1 C  s               0.0       0.0       0.0      17.6       1.2       5.6
 1 C  pz              0.0       0.0       0.0       4.4       0.6       2.9
 1 C  px              0.0       0.0       0.0       1.5       2.8       0.9
 1 C  py              0.0       0.0       0.0       7.2       0.8       5.8
 1 C  dxz             0.0       0.0       0.0       0.2       0.0       0.0
 1 C  dyz             0.0       0.0       0.0       1.0       0.0       0.0
 1 C  dx2y2           0.0       0.0       0.0       0.2       0.1       0.1
 1 C  dxy             0.0       0.0       0.0       0.3       0.0       0.1
 2 O  s               0.0       0.0       0.0      53.0       1.0       3.0
 2 O  pz              0.0       0.0       0.0       2.1       0.1       0.3
 2 O  px              0.0       0.0       0.0       0.7       0.1       0.1
 2 O  py              0.0       0.0       0.0       3.6       0.1       0.6
 2 O  dyz             0.0       0.0       0.0       0.4       0.1       0.5
 2 O  dxy             0.0       0.0       0.0       0.1       0.0       0.1
 3 C  s               0.0       0.0       0.0       1.1      14.1       9.6
 3 C  pz              0.0       0.0       0.0       0.3       0.4       0.0
 3 C  px              0.0       0.0       0.0       1.5       1.3       2.1
 3 C  py              0.0       0.0       0.1       0.1       0.1       0.6
 4 C  s               0.0       0.1      99.6       0.2      10.0       0.0
 4 C  pz              0.0       0.0       0.0       0.0       0.2       0.0
 4 C  px              0.0       0.1       0.0       0.4       0.2       3.5
 4 C  py              0.0       0.0       0.0       0.1       2.0       0.5
 5 C  s               0.3      99.4       0.1       0.0       8.8       7.0
 5 C  pz              0.0       0.0       0.0       0.0       0.4       0.2
 5 C  px              0.0       0.0       0.1       0.0       0.7       0.7
 5 C  py              0.1       0.0       0.0       0.0       1.0       0.8
 6 C  s              99.4       0.3       0.0       0.0       9.0      12.1
 6 C  pz              0.0       0.0       0.0       0.0       0.4       0.2
 6 C  px              0.0       0.0       0.0       0.0       1.7       0.2
 7 C  s               0.0       0.0       0.0       0.0      10.6       3.6
 7 C  pz              0.0       0.0       0.0       0.0       0.2       0.0
 7 C  px              0.0       0.0       0.0       0.0       0.7       1.8
 7 C  py              0.1       0.0       0.0       0.0       1.4       1.0
 8 C  s               0.0       0.0       0.0       0.1      13.0       1.6
 8 C  pz              0.0       0.0       0.0       0.0       0.5       0.1
 8 C  px              0.0       0.0       0.0       0.1       0.3       3.6
 8 C  py              0.0       0.0       0.0       0.1       1.3       0.5
 9 H  s               0.0       0.0       0.0       0.1       0.0       1.8
 9 H  px              0.0       0.0       0.0       0.0       0.0       0.1
10 H  s               0.0       0.0       0.0       0.1       0.1       2.1
10 H  py              0.0       0.0       0.0       0.0       0.0       0.1
11 H  s               0.0       0.0       0.0       0.1       0.1       2.3
11 H  pz              0.0       0.0       0.0       0.0       0.0       0.2
12 H  s               0.0       0.0       0.0       0.1       1.7       1.7
12 H  pz              0.0       0.0       0.0       0.0       0.2       0.2
13 H  s               0.0       0.0       0.0       0.0       1.0       0.0
13 H  pz              0.0       0.0       0.0       0.0       0.1       0.0
14 H  s               0.0       0.0       0.0       0.0       1.0       0.0
15 H  s               0.0       0.0       0.0       0.0       0.9       1.1
16 H  s               0.0       0.0       0.0       0.0       1.0       1.0
17 H  s               0.0       0.0       0.0       0.0       1.0       1.8
17 H  pz              0.0       0.0       0.0       0.0       0.1       0.2
18 H  s               0.0       0.0       0.0       0.0       0.9       1.9
18 H  px              0.0       0.0       0.0       0.0       0.1       0.2
19 H  s               0.0       0.0       0.0       0.0       1.1       0.5
20 H  s               0.0       0.0       0.0       0.0       1.2       0.5
20 H  pz              0.0       0.0       0.0       0.0       0.1       0.0
21 H  s               0.0       0.0       0.0       0.0       1.5       0.2
21 H  pz              0.0       0.0       0.0       0.0       0.1       0.0
22 H  s               0.0       0.0       0.0       0.0       1.5       0.4

                     12        13        14        15        16        17   
                  -0.71327  -0.69701  -0.59609  -0.57906  -0.53130  -0.49718
                   2.00000   2.00000   2.00000   2.00000   2.00000   2.00000
                  --------  --------  --------  --------  --------  --------
 0 C  s               0.1      27.0       3.0       0.6       0.5       1.4
 0 C  pz              0.0       0.0       0.0       0.1       0.0       1.3
 0 C  px              0.0       0.1       1.5       0.3       0.8       4.4
 0 C  py              0.0       0.0       0.7       0.0       0.8       3.4
 0 C  dxy             0.0       0.0       0.0       0.0       0.0       0.2
 1 C  s               0.0       1.8       2.9       0.0       1.1       8.0
 1 C  pz              0.1       1.1       1.0       0.1       0.9       0.2
 1 C  px              0.6       6.3       6.4       0.1       0.1       0.7
 1 C  py              0.2       5.1       0.1       0.3       0.0       1.3
 1 C  dxy             0.0       0.2       0.0       0.0       0.0       0.0
 2 O  s               0.1       0.6       1.0       0.0       0.1       5.5
 2 O  pz              0.0       0.1       0.4       0.0       0.4       2.4
 2 O  px              0.1       0.2       0.9       0.0       0.0       2.1
 2 O  py              0.0       0.5       0.2       0.0       0.2       5.0
 2 O  dxz             0.0       0.1       0.3       0.0       0.0       0.1
 2 O  dyz             0.0       0.4       0.1       0.0       0.1       0.4
 2 O  dx2y2           0.1       0.4       0.0       0.1       0.0       0.1
 2 O  dxy             0.0       0.1       0.4       0.0       0.0       0.3
 3 C  s               1.3       4.3       6.2       0.0       0.4       3.0
 3 C  pz              0.1       0.2       0.9       0.2       5.6       5.5
 3 C  px              0.1       1.3       5.4       0.2       1.2      10.4
 3 C  py              7.1       0.0       0.1       8.8       0.2       0.3
 3 C  dyz             0.1       0.0       0.0       0.1       0.0       0.0
 3 C  dx2y2           0.0       0.0       0.1       0.0       0.1       0.1
 3 C  dxy             0.1       0.0       0.0       0.1       0.0       0.0
 4 C  s              16.7       0.9       3.7       8.5       2.5       0.6
 4 C  pz              0.2       0.0       0.1       0.1       4.6       1.9
 4 C  px              0.5       1.9       2.5       3.4       1.2       0.1
 4 C  py              0.2       0.4       1.6       0.5       0.0       5.0
 5 C  s              10.2       3.5       2.1       7.0       5.3       0.3
 5 C  pz              0.0       0.1       0.2       0.1       6.4       0.4
 5 C  px              2.2       1.3       2.9       4.9       0.2       0.1
 5 C  py              1.0       0.4       3.0       0.0       1.0       3.2
 6 C  s               0.6       7.0       9.7       0.3       5.1       0.1
 6 C  pz              0.0       0.1       0.2       0.0       6.7       0.3
 6 C  px              0.0       0.1       1.9       0.2       0.7       0.1
 6 C  py              6.7       0.3       0.2       8.3       0.0       0.0
 6 C  dyz             0.1       0.0       0.0       0.1       0.0       0.0
 6 C  dxy             0.1       0.0       0.0       0.1       0.0       0.0
 7 C  s              15.9       0.1       0.3       9.5       3.9       0.6
 7 C  pz              0.1       0.0       0.0       0.3       5.3       1.1
 7 C  px              0.6       2.7       5.4       2.6       0.0       0.3
 7 C  py              0.3       0.6       1.9       0.9       2.4       3.1
 8 C  s              10.1       4.6       5.8       6.8       1.5       0.1
 8 C  pz              0.0       0.0       0.5       0.4       4.8       4.1
 8 C  px              2.1       0.2       0.7       5.4       0.7       0.0
 8 C  py              1.3       0.3       2.2       0.1       0.4       3.2
 9 H  s               0.0       5.5       1.5       0.3       0.4       2.1
 9 H  px              0.0       0.4       0.1       0.0       0.0       0.1
10 H  s               0.0       5.7       1.3       0.1       0.6       1.0
10 H  pz              0.0       0.2       0.0       0.0       0.0       0.1
10 H  py              0.0       0.3       0.0       0.0       0.0       0.0
11 H  s               0.0       5.5       0.7       0.2       0.2       1.7
11 H  pz              0.0       0.4       0.0       0.0       0.0       0.0
12 H  s               0.2       0.6       2.4       0.0       2.1       5.4
12 H  pz              0.0       0.1       0.2       0.0       0.1       0.3
13 H  s               2.6       0.2       1.1       2.7       3.2       1.4
13 H  pz              0.3       0.0       0.1       0.2       0.2       0.1
14 H  s               3.0       0.2       1.1       3.6       0.5       0.9
14 H  py              0.2       0.0       0.0       0.2       0.0       0.0
15 H  s               1.8       0.7       0.8       3.1       2.3       1.3
15 H  py              0.1       0.1       0.0       0.2       0.1       0.0
16 H  s               1.7       0.6       0.6       2.4       5.5       0.0
16 H  pz              0.2       0.1       0.0       0.2       0.3       0.0
17 H  s               0.1       1.2       2.9       0.1       5.6       0.0
17 H  pz              0.0       0.1       0.2       0.0       0.3       0.0
18 H  s               0.1       1.4       3.9       0.1       1.9       0.0
18 H  px              0.0       0.1       0.3       0.0       0.1       0.0
19 H  s               3.0       0.0       0.1       4.2       1.6       2.0
19 H  py              0.2       0.0       0.0       0.2       0.0       0.1
20 H  s               2.6       0.0       0.1       3.6       4.9       0.0
20 H  pz              0.2       0.0       0.0       0.3       0.3       0.0
21 H  s               1.7       0.8       2.0       2.8       2.9       1.2
21 H  pz              0.2       0.1       0.1       0.2       0.2       0.0
22 H  s               2.0       0.7       2.3       3.2       0.2       0.4
22 H  py              0.1       0.1       0.1       0.2       0.0       0.0

                     18        19        20        21        22        23   
                  -0.45240  -0.43477  -0.42104  -0.41624  -0.40307  -0.39540
                   2.00000   2.00000   2.00000   2.00000   2.00000   2.00000
                  --------  --------  --------  --------  --------  --------
 0 C  s               0.3       0.3       0.2       0.0       0.0       0.0
 0 C  pz              3.6       0.6      12.5       0.9      14.4       4.5
 0 C  px              0.2       0.1       0.9       5.8       2.7      14.0
 0 C  py              5.5      12.6       0.1       0.5       2.4       1.7
 0 C  dxy             0.0       0.0       0.0       0.0       0.0       0.1
 1 C  s               1.7       0.1       0.0       0.1       0.1       0.2
 1 C  pz              0.5       6.0       2.6       0.3       2.3       3.6
 1 C  px              4.0       9.8       3.0       0.7       0.0       0.3
 1 C  py              0.9       0.2       4.2       1.6       5.5       3.8
 2 O  s               3.1       0.0       0.0       2.2       1.5       3.2
 2 O  pz              1.7       3.9       1.4       3.5       8.9       2.3
 2 O  px              0.3       6.2       2.0       0.2       1.8       3.9
 2 O  py              9.2       0.1       2.3       2.9       0.1       7.4
 2 O  dz2             0.0       0.4       0.2       0.0       0.2       0.0
 2 O  dxz             0.1       0.1       0.1       0.0       0.0       0.0
 2 O  dyz             0.2       0.2       0.0       0.0       0.1       0.1
 2 O  dx2y2           0.4       0.1       0.3       0.0       0.3       0.1
 2 O  dxy             0.0       0.4       0.1       0.1       0.0       0.0
 3 C  s               0.1       0.1       0.1       0.0       0.4       1.3
 3 C  pz              2.2      14.5       0.0       0.0       1.4       0.3
 3 C  px              3.2       0.5       1.2       0.8       0.0       0.6
 3 C  py              0.0       0.1       2.5       3.8       0.0       0.2
 3 C  dx2y2           0.0       0.0       0.1       0.1       0.0       0.0
 4 C  s               0.2       0.3       1.3       0.1       0.0       0.3
 4 C  pz              0.4       2.3       0.4      10.4       4.9       0.1
 4 C  px              1.9       0.5       0.0       4.3       0.6       0.1
 4 C  py              6.2       1.6       1.8       0.0       0.0       1.0
 5 C  s               0.1       0.2       0.7       0.1       0.1       0.1
 5 C  pz              0.1       1.4       0.2      15.6       1.1       4.0
 5 C  px              2.0       1.1       0.1       0.0       1.6       2.2
 5 C  py              3.7       0.4       0.4       0.9       1.5       3.9
 6 C  s               0.4       0.3       0.5       0.2       0.1       0.1
 6 C  pz              0.2       6.4       2.1       3.4       4.3       4.9
 6 C  px              9.4       0.0       5.0       5.2       0.3       0.7
 6 C  py              0.0       0.1       0.0       1.8       2.1       2.2
 7 C  s               0.1       0.3       0.2       0.4       0.1       0.0
 7 C  pz              0.0       2.5      11.7       0.6      10.3       0.0
 7 C  px              0.9       1.5       0.1       0.6       1.7       0.6
 7 C  py              5.3       0.1       0.1       0.1       0.7       5.2
 8 C  s               0.3       0.3       0.1       0.7       0.4       0.0
 8 C  pz              0.2       0.8       8.5       5.2       1.9       2.8
 8 C  px              2.6       0.6       5.3       0.2       0.0       0.4
 8 C  py              8.4       2.9       1.0       0.4       0.5       0.1
 9 H  s               0.0       0.1       0.7       2.4       2.6       3.9
10 H  s               0.3       5.1       1.2       0.0       5.4       3.0
10 H  pz              0.1       0.1       0.0       0.0       0.0       0.0
10 H  px              0.0       0.0       0.0       0.0       0.0       0.1
10 H  py              0.0       0.0       0.1       0.0       0.1       0.0
11 H  s               3.3       0.3       4.5       1.3       2.6       2.6
12 H  s               1.0       4.8       0.0       0.0       1.3       1.0
12 H  pz              0.0       0.1       0.0       0.0       0.0       0.1
13 H  s               0.0       0.2       1.2       2.5       2.1       0.0
14 H  s               3.0       1.3       1.3       2.4       0.0       0.9
14 H  py              0.1       0.0       0.0       0.1       0.0       0.0
15 H  s               1.5       0.0       0.7       1.7       0.1       4.3
16 H  s               0.0       1.0       0.5       4.9       0.5       1.2
16 H  pz              0.0       0.0       0.0       0.1       0.0       0.0
17 H  s               0.3       3.1       0.2       0.9       1.0       1.7
17 H  pz              0.0       0.1       0.0       0.0       0.0       0.0
18 H  s               3.5       0.0       3.8       3.9       0.6       0.0
18 H  px              0.1       0.0       0.1       0.1       0.0       0.0
19 H  s               1.4       0.0       1.7       0.0       3.6       1.4
19 H  py              0.0       0.0       0.1       0.0       0.1       0.0
20 H  s               0.0       1.5       3.0       0.7       2.8       0.0
21 H  s               0.0       0.1       2.4       3.4       0.2       1.5
21 H  pz              0.0       0.0       0.1       0.1       0.0       0.0
22 H  s               4.7       1.1       3.5       0.3       1.1       0.0
22 H  py              0.1       0.0       0.1       0.0       0.0       0.0

                     24        25        26        27        28        29   
                  -0.38445  -0.35612  -0.35121  -0.34060  -0.32846  -0.31715
                   2.00000   2.00000   2.00000   2.00000   2.00000   2.00000
                  --------  --------  --------  --------  --------  --------
 0 C  pz              0.0      12.4       0.2       0.2       2.8       1.2
 0 C  px              5.4       2.5       0.0      12.2       0.0       0.3
 0 C  py             13.2       0.6       0.2       1.7       3.8       0.3
 0 C  dz2             0.1       0.2       0.0       0.1       0.0       0.0
 0 C  dyz             0.0       0.2       0.0       0.0       0.1       0.0
 0 C  dx2y2           0.1       0.0       0.0       0.2       0.1       0.0
 1 C  s               0.4       0.4       0.0       0.0       0.1       0.0
 1 C  pz              1.1       3.9       0.5       0.4       3.3       3.0
 1 C  px              0.7       1.8       0.0       4.0       0.4       0.1
 1 C  py              2.3       1.2       0.0       0.0       4.2       0.9
 1 C  dz2             0.0       0.1       0.0       0.0       0.2       0.4
 1 C  dyz             0.0       0.1       0.0       0.0       0.0       0.0
 1 C  dx2y2           0.3       0.0       0.0       0.1       0.1       0.1
 1 C  dxy             0.0       0.1       0.0       0.0       0.2       0.0
 2 O  s               1.7       1.1       0.1       0.0       0.1       0.0
 2 O  pz              2.9       0.3       0.0       1.3      20.2      12.1
 2 O  px              7.0       0.1       0.6       2.0       0.6       0.3
 2 O  py              3.5      14.1       0.7       0.1       2.9       7.0
 2 O  dz2             0.0       0.0       0.0       0.0       0.3       0.1
 2 O  dxz             0.2       0.1       0.0       0.0       0.0       0.0
 2 O  dyz             0.1       0.1       0.0       0.0       0.0       0.1
 3 C  s               1.5       0.1       0.0       0.0       0.0       0.1
 3 C  pz              2.0       0.3       0.0       0.4       2.9       5.1
 3 C  px              0.3       5.0       0.0       4.0       0.1       0.4
 3 C  py              0.8       3.0       4.3       4.4       1.2       1.6
 3 C  dz2             0.0       0.0       0.0       0.0       0.1       0.2
 3 C  dxy             0.0       0.0       0.3       0.0       0.0       0.1
 4 C  s               0.0       0.2       0.3       0.0       0.0       0.0
 4 C  pz              3.0       0.0       0.8       0.8       0.9       3.0
 4 C  px              0.2       4.5       1.4       4.9       3.5       0.0
 4 C  py              0.4       1.1      15.0       2.7       0.4       0.4
 4 C  dyz             0.0       0.0       0.1       0.0       0.0       0.0
 5 C  s               0.1       0.0       0.5       0.1       0.0       0.0
 5 C  pz              0.0       0.2       0.4       0.2       3.8       8.0
 5 C  px              2.8       3.5       1.9       8.1       0.6       0.1
 5 C  py              4.3       2.0      12.6       0.0       1.0       0.3
 5 C  dz2             0.0       0.0       0.0       0.0       0.1       0.1
 5 C  dx2y2           0.0       0.1       0.1       0.0       0.0       0.0
 6 C  s               0.4       0.2       0.0       0.2       0.0       0.0
 6 C  pz              0.5       0.3       0.4       1.5       3.3       0.7
 6 C  px              4.4       4.2       0.1       5.5       0.4       0.6
 6 C  py              0.2       2.9       4.0       4.4       2.5       2.7
 6 C  dz2             0.0       0.0       0.0       0.0       0.1       0.0
 6 C  dxy             0.0       0.0       0.3       0.0       0.0       0.0
 7 C  s               0.1       0.1       0.4       0.0       0.0       0.0
 7 C  pz              0.0       0.2       0.2       0.0       0.4       5.9
 7 C  px              2.7       5.7       2.4       5.3       7.4       0.2
 7 C  py              2.6       1.8      12.0       2.0       1.6       0.0
 7 C  dz2             0.0       0.0       0.0       0.0       0.0       0.2
 7 C  dyz             0.0       0.0       0.1       0.0       0.0       0.0
 7 C  dx2y2           0.0       0.0       0.1       0.1       0.0       0.0
 8 C  s               0.0       0.0       0.6       0.0       0.0       0.2
 8 C  pz              1.4       0.1       0.6       1.3       5.5      14.2
 8 C  px              0.6       3.6       3.3       9.1       3.4       0.0
 8 C  py              6.4       2.2      10.6       0.3       0.7       0.3
 8 C  dz2             0.0       0.0       0.0       0.0       0.2       0.4
 8 C  dx2y2           0.0       0.1       0.1       0.0       0.0       0.0
 8 C  dxy             0.2       0.0       0.0       0.0       0.0       0.0
 9 H  s               5.7       1.4       0.1       8.7       0.5       0.3
 9 H  pz              0.0       0.1       0.0       0.0       0.0       0.0
 9 H  px              0.1       0.0       0.0       0.1       0.0       0.0
10 H  s               3.4       2.2       0.0       1.2       4.3       1.0
11 H  s               2.1       8.7       0.3       1.0       0.7       0.4
12 H  s               0.0       0.0       0.0       0.3       2.3       3.6
13 H  s               1.0       0.0       0.2       0.5       0.2       1.5
13 H  py              0.0       0.0       0.1       0.0       0.0       0.0
14 H  s               0.7       1.1       6.9       0.3       0.3       0.7
15 H  s               3.3       0.0       4.8       1.0       0.7       0.1
16 H  s               0.0       0.0       0.0       0.1       2.4       4.8
17 H  s               0.7       0.0       0.1       1.0       2.5       0.1
18 H  s               1.3       1.6       0.0       2.7       0.0       0.2
19 H  s               2.1       2.3       5.7       0.0       0.0       0.5
20 H  s               0.2       0.1       0.0       0.0       0.3       4.6
21 H  s               0.9       0.0       0.0       0.7       4.2       9.3
22 H  s               2.8       0.0       4.9       2.3       0.1       0.5
22 H  pz              0.0       0.0       0.1       0.0       0.0       0.1

[...]
 5 C  dxy             0.1       0.1       0.0       0.0       0.0       0.0
 6 C  s               0.3       0.5       0.0      35.7       8.2       3.3
 6 C  pz              0.4       0.9       0.0       0.0       0.0       0.0
 6 C  px              0.5       4.6       0.0       0.0       0.0       0.0
 6 C  py              0.0       0.2       0.0       0.0       0.0       0.0
 6 C  dz2             1.0       2.4       0.0       0.0       0.0       0.0
 6 C  dxz             0.3       0.6       0.0       0.0       0.0       0.0
 6 C  dyz             0.1       0.0       0.0       0.0       0.0       0.0
 6 C  dx2y2           0.0       3.1       0.0       0.0       0.0       0.0
 7 C  s               0.8       0.2       0.0       3.8       8.5      33.0
 7 C  pz              1.3       0.1       0.0       0.0       0.0       0.0
 7 C  px              0.6       0.1       0.0       0.0       0.0       0.0
 7 C  py              0.2       0.2       0.0       0.0       0.0       0.0
 7 C  dz2             3.9       0.0       0.0       0.0       0.0       0.0
 7 C  dyz             0.0       0.1       0.0       0.0       0.0       0.0
 7 C  dx2y2           0.1       0.1       0.0       0.0       0.0       0.0
 7 C  dxy             0.0       0.5       0.0       0.0       0.0       0.0
 8 C  s               0.6       0.1       0.0      19.9       1.4       7.6
 8 C  pz              2.4       0.7       0.0       0.0       0.0       0.0
 8 C  px              0.4       0.2       0.1       0.0       0.0       0.0
 8 C  py              0.1       2.7       0.0       0.0       0.0       0.0
 8 C  dz2             7.0       1.2       0.0       0.0       0.0       0.0
 8 C  dxz             0.0       0.2       0.0       0.0       0.0       0.0
 8 C  dyz             0.1       0.7       0.0       0.0       0.0       0.0
 8 C  dx2y2           0.1       0.1       0.0       0.0       0.0       0.0
 8 C  dxy             0.0       1.7       0.0       0.0       0.0       0.0
 9 H  s               0.0       0.4       0.0       0.0       0.0       0.0
 9 H  px              0.1       0.6       0.0       0.0       0.0       0.0
11 H  s               0.2       0.0       0.0       0.0       0.0       0.0
11 H  pz              0.3       0.0       0.0       0.0       0.0       0.0
12 H  s               2.6       1.3       0.0       0.0       0.0       0.0
12 H  pz              7.6       2.7       0.0       0.0       0.0       0.0
12 H  px              0.2       0.6       0.0       0.0       0.0       0.0
13 H  s               2.5       0.4       0.0       0.0       0.0       0.0
13 H  pz              6.2       1.6       0.0       0.0       0.0       0.0
13 H  py              0.5       0.1       0.0       0.0       0.0       0.0
14 H  s               0.6       1.2       0.0       0.0       0.0       0.0
14 H  pz              0.1       1.3       0.0       0.0       0.0       0.0
14 H  px              0.3       0.5       0.0       0.0       0.0       0.0
14 H  py              0.9       1.5       0.0       0.0       0.0       0.0
16 H  s               0.6       0.3       0.0       0.0       0.0       0.0
16 H  pz              1.9       0.8       0.0       0.0       0.0       0.0
17 H  s               0.3       1.3       0.0       0.0       0.0       0.0
17 H  pz              1.1       3.0       0.0       0.0       0.0       0.0
17 H  px              0.0       1.0       0.0       0.0       0.0       0.0
18 H  s               0.0       3.3       0.0       0.0       0.0       0.0
18 H  pz              0.0       0.8       0.0       0.0       0.0       0.0
18 H  px              0.0       6.8       0.0       0.0       0.0       0.0
19 H  s               0.0       0.1       0.0       0.0       0.0       0.0
19 H  py              0.0       0.2       0.0       0.0       0.0       0.0
20 H  s               1.3       0.1       0.0       0.0       0.0       0.0
20 H  pz              3.6       0.1       0.0       0.0       0.0       0.0
20 H  py              0.1       0.1       0.0       0.0       0.0       0.0
21 H  s               2.6       0.7       0.0       0.0       0.0       0.0
21 H  pz              7.2       1.1       0.0       0.0       0.0       0.0
21 H  px              0.0       0.1       0.0       0.0       0.0       0.0
22 H  s               0.3       2.1       0.0       0.0       0.0       0.0
22 H  pz              0.0       0.2       0.0       0.0       0.0       0.0
22 H  px              0.2       1.7       0.0       0.0       0.0       0.0
22 H  py              0.3       3.0       0.0       0.0       0.0       0.0

                    240       241       242       243       244       245   
                  22.04953  22.08282  22.13402  22.19640  22.21119  43.65578
                   0.00000   0.00000   0.00000   0.00000   0.00000   0.00000
                  --------  --------  --------  --------  --------  --------
 0 C  s               0.0       0.1       0.1       0.4       0.3       0.0
 1 C  s              22.9      13.2      53.7       1.3       7.7       0.0
 2 O  s               0.0       0.1       0.1       0.0       0.0      99.9
 3 C  s               0.2      26.9       9.4      47.3       4.5       0.0
 4 C  s              12.3      18.7       5.0       1.2      37.1       0.0
 5 C  s              19.5       4.9      12.4      13.1       8.0       0.0
 6 C  s               1.8      20.4       6.8      22.1       1.2       0.0
 7 C  s              20.1       8.8       7.5       1.2      16.7       0.0
 8 C  s              22.6       6.4       4.6      13.2      24.1       0.0



                      *****************************
                      * MAYER POPULATION ANALYSIS *
                      *****************************

  NA   - Mulliken gross atomic population
  ZA   - Total nuclear charge
  QA   - Mulliken gross atomic charge
  VA   - Mayer's total valence
  BVA  - Mayer's bonded valence
  FA   - Mayer's free valence

  ATOM       NA         ZA         QA         VA         BVA        FA
  0 C      6.5553     6.0000    -0.5553     3.8322     3.8322     0.0000
  1 C      5.7092     6.0000     0.2908     3.6907     3.6907    -0.0000
  2 O      8.3439     8.0000    -0.3439     1.9882     1.9882     0.0000
  3 C      6.0511     6.0000    -0.0511     3.3838     3.3838    -0.0000
  4 C      6.3688     6.0000    -0.3688     3.7925     3.7925     0.0000
  5 C      6.2758     6.0000    -0.2758     3.6123     3.6123     0.0000
  6 C      6.2832     6.0000    -0.2832     3.6660     3.6660     0.0000
  7 C      6.2868     6.0000    -0.2868     3.6657     3.6657    -0.0000
  8 C      6.3286     6.0000    -0.3286     3.6689     3.6689    -0.0000
  9 H      0.8223     1.0000     0.1777     0.9591     0.9591    -0.0000
 10 H      0.8185     1.0000     0.1815     0.9551     0.9551     0.0000
 11 H      0.8398     1.0000     0.1602     0.9604     0.9604     0.0000
 12 H      0.8359     1.0000     0.1641     0.9582     0.9582    -0.0000
 13 H      0.8271     1.0000     0.1729     0.9601     0.9601     0.0000
 14 H      0.8438     1.0000     0.1562     0.9601     0.9601     0.0000
 15 H      0.8512     1.0000     0.1488     0.9598     0.9598     0.0000
 16 H      0.8577     1.0000     0.1423     0.9657     0.9657     0.0000
 17 H      0.8561     1.0000     0.1439     0.9660     0.9660     0.0000
 18 H      0.8522     1.0000     0.1478     0.9600     0.9600     0.0000
 19 H      0.8515     1.0000     0.1485     0.9590     0.9590    -0.0000
 20 H      0.8556     1.0000     0.1444     0.9653     0.9653    -0.0000
 21 H      0.8351     1.0000     0.1649     0.9606     0.9606    -0.0000
 22 H      0.8505     1.0000     0.1495     0.9592     0.9592     0.0000

  Mayer bond orders larger than 0.100000
B(  0-C ,  1-C ) :   0.8924 B(  0-C ,  9-H ) :   0.9726 B(  0-C , 10-H ) :   0.9467 
B(  0-C , 11-H ) :   0.9721 B(  1-C ,  2-O ) :   1.9578 B(  1-C ,  3-C ) :   0.8549 
B(  2-O ,  3-C ) :  -0.1143 B(  3-C ,  4-C ) :   0.9254 B(  3-C ,  8-C ) :   0.8741 
B(  3-C , 12-H ) :   0.9349 B(  4-C ,  5-C ) :   0.8794 B(  4-C , 13-H ) :   1.0085 
B(  4-C , 14-H ) :   0.9446 B(  5-C ,  6-C ) :   0.9167 B(  5-C , 15-H ) :   0.9481 
B(  5-C , 16-H ) :   0.9943 B(  6-C ,  7-C ) :   0.9199 B(  6-C , 17-H ) :   0.9919 
B(  6-C , 18-H ) :   0.9481 B(  7-C ,  8-C ) :   0.9052 B(  7-C , 19-H ) :   0.9433 
B(  7-C , 20-H ) :   0.9931 B(  8-C , 21-H ) :   0.9957 B(  8-C , 22-H ) :   0.9374 


-------
TIMINGS
-------

Total SCF time: 0 days 0 hours 0 min 24 sec 

Total time                  ....      24.434 sec
Sum of individual times     ....      24.392 sec  ( 99.8%)

SCF preparation             ....       0.405 sec  (  1.7%)
Fock matrix formation       ....      21.718 sec  ( 88.9%)
  Startup                   ....       0.010 sec  (  0.0% of F)
  Split-RI-J                ....       5.007 sec  ( 23.1% of F)
  XC integration            ....      16.575 sec  ( 76.3% of F)
    XC Preparation          ....       0.000 sec  (  0.0% of XC)
    Basis function eval.    ....       3.179 sec  ( 19.2% of XC)
    Density eval.           ....       5.752 sec  ( 34.7% of XC)
    XC-Functional eval.     ....       1.693 sec  ( 10.2% of XC)
    XC-Potential eval.      ....       5.496 sec  ( 33.2% of XC)
Diagonalization             ....       0.000 sec  (  0.0%)
Density matrix formation    ....       0.050 sec  (  0.2%)
Total Energy calculation    ....       0.003 sec  (  0.0%)
Population analysis         ....       1.992 sec  (  8.2%)
Orbital Transformation      ....       0.026 sec  (  0.1%)
Orbital Orthonormalization  ....       0.000 sec  (  0.0%)
DIIS solution               ....       0.164 sec  (  0.7%)
  MO trafo                  ....       0.000 sec  (  0.0 % of DIIS)
  Orb grad                  ....       0.000 sec  (  0.0 % of DIIS)
  Energy W gradient         ....       0.000 sec  (  0.0 % of DIIS)
  DIIS error                ....       0.022 sec  ( 13.2 % of DIIS)
  DIIS work                 ....       0.127 sec  ( 77.6 % of DIIS)
  Form Q                    ....       0.000 sec  (  0.0 % of DIIS)
  Form QpQm                 ....       0.000 sec  (  0.0 % of DIIS)
  Exp/Cayley                ....       0.000 sec  (  0.0 % of DIIS)
  Orb update                ....       0.000 sec  (  0.0 % of DIIS)
  Wake-sleep                ....       0.002 sec  (  1.2 % of DIIS)
SOSCF solution              ....       0.033 sec  (  0.1%)
  MO trafo                  ....       0.021 sec  ( 61.6 % of SOSCF)
  Orb grad                  ....       0.000 sec  (  0.6 % of SOSCF)
  Rot update                ....       0.002 sec  (  4.7 % of SOSCF)
  Step                      ....       0.011 sec  ( 33.0 % of SOSCF)
Finished LeanSCF after  26.4 sec

Maximum memory used throughout the entire LEANSCF-calculation: 29.5 MB


-------------------------------------------------------------------------------
                          DFT DISPERSION CORRECTION                            
                                                                               
                                DFTD4 V3.4.0                                   
-------------------------------------------------------------------------------
The R2SCAN3C composite method is recognized
Using three-body term ABC
Active option DFTDOPT                   ...         5   

-------------------------   ----------------
Dispersion correction           -0.007299971
-------------------------   ----------------

------------------   -----------------
gCP correction             0.009733522
------------------   -----------------

-------------------------   --------------------
FINAL SINGLE POINT ENERGY      -388.408607599608
-------------------------   --------------------


------------------------------------------------------------------------------
                              ORCA PROPERTY CALCULATIONS
------------------------------------------------------------------------------

GBWName                                 ... sp.gbw
Number of atoms                         ...     23
Number of basis functions               ...    246
Max core memory                         ...   1024 MB

Electric properties:
Dipole moment                           ... YES
Quadrupole moment                       ...  NO
Static polarizability (Dipole/Dipole)   ...  NO
Static polarizability (Dipole/Quad.)    ...  NO
Static polarizability (Quad./Quad.)     ...  NO
Static polarizability (Velocity)        ...  NO

Atomic electric properties:
Dipole moment                           ...  NO
Quadrupole moment                       ...  NO
Static polarizability                   ...  NO

Choice of electric origin               ... Center of mass
Position of electric origin             ...     0.000022     0.000013    -0.000008

General magnetic properties:
Magnetizability                         ...  NO

EPR properties:
g-Tensor (aka g-matrix)                 ...  NO
Zero-Field splitting spin-orbit         ...  NO
Zero-field splitting spin-spin          ...  NO
Hyperfine couplings                     ...  NO (   0 nuclei)
Quadrupole couplings                    ...  NO (   0 nuclei)
Contact density                         ...  NO (   0 nuclei)

NMR properties:
Chemical shifts                         ...  NO (   0 nuclei)
Spin-rotation constants                 ...  NO (   0 nuclei)
Spin-spin couplings                     ...  NO (   0 nuclei,    0 pairs)

Choice of magnetic origin               ... GIAO
Position of magnetic origin             ...     0.000000     0.000000     0.000000

Properties with geometric perturbations:
SCF Hessian                             ...  NO
IR spectrum                             ...  NO
VCD spectrum                            ...  NO
X-ray spectroscopy properties:
SCF XES/XAS/RIXS spectra                ...  NO


-------------
DIPOLE MOMENT
-------------

Method             : SCF
Type of density    : Electron Density
Multiplicity       :   1
Irrep              :   0
Energy             :  -388.4110411512497762 Eh
Relativity type    : 
Basis              : AO
                                X                 Y                 Z
Electronic contribution:     -5.340508578      -3.153832651       1.557316470
Nuclear contribution   :      5.842121411       3.989815095      -2.125317105
                        -----------------------------------------
Total Dipole Moment    :      0.501612833       0.835982444      -0.568000635
                        -----------------------------------------
Magnitude (a.u.)       :      1.128320345
Magnitude (Debye)      :      2.867962397



--------------------
Rotational spectrum 
--------------------
 
Rotational constants in cm-1:             0.103162             0.036542             0.029756 
Rotational constants in MHz :          3092.717334          1095.494354           892.061995 

Dipole components along the rotational axes: 
x,y,z [a.u.] :     0.513655     0.882476    -0.480105 
x,y,z [Debye]:     1.305607     2.243076    -1.220331 

 

Dipole moment calculation done in   0.4 sec 

Maximum memory used throughout the entire PROP-calculation: 17.7 MB

--------------------------------
SUGGESTED CITATIONS FOR THIS RUN
--------------------------------

Below you find a list of papers that are relevant to this ORCA run
We neither can nor want to force you to cite these papers, but we appreciate if you do
You receive ORCA, which is the product of decades of hard work by many enthusiastic individuals, for free
The only thing we kindly ask in return is that you cite our papers,
We deeply appreciate it, if you show your appreciation for ORCA by not just citing the generic ORCA reference.

Please note that relegating all ORCA citations to the supporting information does *not* help us.
SI sections are not indexed - citations you put there will not count into any citation statistics
But we need these citations in order to attract the funding resources that allow us to do what we are doing

Therefore, if you are a happy ORCA user, please consider citing a few of the papers listed below in the main body of your paper

In addition to the list printed below, the program has created the file sp.bibtex that contains the list in bibtex format
You can import this file easily into all common literature databanks and citation aid programs


List of essential papers. We consider these as the minimum necessary citations

  1. Neese,F.
     Software update: the ORCA program system, version 5.0
     WIRES Comput. Molec. Sci., 2022 12(1)e1606
     doi.org/10.1002/wcms.1606
  2. Grimme,S.; Hansen,A.; Ehlert,S.; Mewes,J.
     r2SCAN-3c: A 'Swiss army knife' composite electronic-structure method
     J. Chem. Phys., 2021 154 064103
     doi.org/10.1063/5.0040021

List of papers to cite with high priority. The work reported in these papers was absolutely
necessary for this run to complete.
Our perspective: the developers of density functionals and basis sets usually get cited in chemistry papers
Good! But without the algorithms to do something with them, the functionals or basis sets would not do anything.
Hence, in our opinion, the algorithm design and method developments papers are equally worthy of getting cited

  1. Neese,F.
     An improvement of the resolution of the identity approximation for the formation of the Coulomb matrix
     J. Comp. Chem., 2003 24(14)1740-1747
     doi.org/10.1002/jcc.10318
  2. Neese,F.
     The SHARK Integral Generation and Digestion System
     J. Comp. Chem., 2022  1-16
     doi.org/10.1002/jcc.26942
  3. Lehtola,S.; Steigemann,C.; Oliveira,M.; Marques,M.
     Recent developments in Libxc - A comprehensive library of functionals for density functional theory
     Software X, 2018 7 
     doi.org/10.1016/j.softx.2017.11.002
  4. Caldeweyher,E.; Bannwarth,C.; Grimme,S.
     Extension of the D3 dispersion coefficient model
     J. Chem. Phys., 2017 147 034112
     doi.org/10.1063/1.4993215
  5. Caldeweyher,E.; Ehlert,S.; Hansen,A.; Neugebauer,H.; Spicher,S.; Bannwarth,C.; Grimme,S.
     A generally applicable atomic-charge dependent London dispersion correction
     J. Chem. Phys., 2019 150 154122
     doi.org/10.1063/1.5090222
  6. Caldeweyher,E.; Mewes,J.; Ehlert,S.; Grimme,S.
     Extension and evaluation of the D4 London-dispersion model for periodic systems
     Phys. Chem. Chem. Phys., 2020 22(16)8499-8512
     doi.org/10.1039/D0CP00502A
  7. Wittmann,L.; Gordiy,I.; Friede,M.; Helmich-Paris,B.; Grimme,S.; Hansen,A.; Bursch,M.
     Extension of the D3 and D4 London Dispersion Corrections to the full Actinides Series
     Phys. Chem. Chem. Phys., 2024 26(32)21379-21394
     doi.org/https://doi.org/10.1039/D4CP01514B 

List of suggested additional citations. These are papers that are important in the 'surrounding' of 
of this run, or papers that preceded the highly important papers. If you like your results we are grateful for a citation.

  1. Neese,F.
     The ORCA program system
     WIRES Comput. Molec. Sci., 2012 2(1)73-78
     doi.org/10.1002/wcms.81
  2. Neese,F.
     Software update: the ORCA program system, version 4.0
     WIRES Comput. Molec. Sci., 2018 8(1)1-6
     doi.org/10.1002/wcms.1327
  3. Neese,F.; Wennmohs,F.; Becker,U.; Riplinger,C.
     The ORCA quantum chemistry program package
     J. Chem. Phys., 2020 152 Art. No. L224108
     doi.org/10.1063/5.0004608

List of optional additional citations

  1. Neese,F.
     Approximate second-order SCF convergence for spin unrestricted wavefunctions
     Chem. Phys. Lett., 2000 325(1-3)93-98
     doi.org/10.1016/s0009-2614(00)00662-x

Timings for individual modules:

Sum of individual times          ...       28.671 sec (=   0.478 min)
Startup calculation              ...        1.016 sec (=   0.017 min)   3.5 %
SCF iterations                   ...       27.197 sec (=   0.453 min)  94.9 %
Property calculations            ...        0.458 sec (=   0.008 min)   1.6 %
                             ****ORCA TERMINATED NORMALLY****
TOTAL RUN TIME: 0 days 0 hours 0 minutes 30 seconds 219 msec
