15
 energy: -15.773261554062 gnorm: 0.019836176051 xtb: 6.7.1 (edcfbbe)
C           -2.21226812116708        0.22665598739432       -0.31368853090776
C           -0.99564507615179        0.31718133901653        0.61752526803704
C            0.00833005196933       -0.75591636887978        0.32489207215566
C            1.26853537606332       -0.61081962096694       -0.09197501630314
C            2.00519895986651        0.66486645909475       -0.35606731089296
H           -1.91162263785567        0.36977893001579       -1.35586518331580
H           -2.95941212054304        0.98579575190144       -0.06258890917111
H           -2.69046132362391       -0.75538404548231       -0.23741929316475
H           -0.54511231702621        1.31101392170773        0.54050477308850
H           -1.33659072169918        0.21098590084287        1.65657078570038
H           -0.36186502325127       -1.77330693489398        0.45638961456689
H            1.84557327734702       -1.51894321088607       -0.26368122610460
H            1.38911873693646        1.55256923030966       -0.20332650031001
H            2.37992692159213        0.68664072954995       -1.38614214857048
H            2.88286538816119        0.74708925715713        0.29620632010803
15
 energy: -15.773855800554 gnorm: 0.006426116868 xtb: 6.7.1 (edcfbbe)
C           -2.20223296385672        0.22320440872646       -0.31313122515318
C           -0.99347855902208        0.32061984033328        0.61789127149904
C            0.00711093409339       -0.74969121843089        0.31674285712480
C            1.25964150906780       -0.60495017614086       -0.09510784435919
C            1.99844009195689        0.66465785151148       -0.35541545619329
H           -1.89833697275441        0.36883874242420       -1.34902242514591
H           -2.94135099054549        0.98195753753956       -0.05929900116422
H           -2.67355245966789       -0.75605571962948       -0.23043915900144
H           -0.54619862384118        1.31205243708676        0.52986975018214
H           -1.33542967432385        0.20332542100291        1.65282032733521
H           -0.36726922060778       -1.75925626235523        0.45224216620776
H            1.84420155711311       -1.50335892113276       -0.26286633923232
H            1.37884074437377        1.54453361314659       -0.20250075897001
H            2.36841290928136        0.67682403832988       -1.38292600288358
H            2.86777308935091        0.73550573346918        0.30247655467005
15
 energy: -15.773906406200 gnorm: 0.001783172374 xtb: 6.7.1 (edcfbbe)
C           -2.19905119508678        0.22233278414682       -0.31310823457276
C           -0.99213509964745        0.32239003916091        0.61915249256371
C            0.00778679390205       -0.74929934846150        0.31928858664124
C            1.25781994345845       -0.60490051310246       -0.09274506575318
C            1.99586327918429        0.66535055969562       -0.35480223733120
H           -1.89147995614725        0.36580709107917       -1.34642659510361
H           -2.93750309071304        0.98077135029540       -0.06297719042914
H           -2.66713816310473       -0.75604327521798       -0.22807594894821
H           -0.54593012149970        1.31254356106112        0.52820033776473
H           -1.33315426161275        0.20269179232427        1.65232369490842
H           -0.37424193032687       -1.75468572759167        0.45021214319787
H            1.84437151204461       -1.49862035418830       -0.26991504516118
H            1.37592184428136        1.54297149006044       -0.20120582112660
H            2.36249377033228        0.67432461907728       -1.38151260796814
H            2.86294804555337        0.73257325754198        0.30292620623393
15
 energy: -15.773913129125 gnorm: 0.000884512953 xtb: 6.7.1 (edcfbbe)
C           -2.19749655334359        0.22170646207972       -0.31300602049970
C           -0.99118212491249        0.32380936026281        0.62080416342351
C            0.00651330720855       -0.75046935166325        0.31740819822949
C            1.25580702687677       -0.60644297664905       -0.09639392712820
C            1.99453429331266        0.66613602477271       -0.35446609010853
H           -1.88716300537040        0.36245836378756       -1.34580091741384
H           -2.93601862573937        0.98096028256094       -0.06622684486301
H           -2.66519386829789       -0.75638760072557       -0.22625073605121
H           -0.54489658781375        1.31333976543602        0.52876870098635
H           -1.33093777083795        0.20418545052634        1.65382980560085
H           -0.37937470554829       -1.75363619014171        0.45229118543973
H            1.84620178820340       -1.49762637250910       -0.27324928145068
H            1.37435891413724        1.54318726898271       -0.20010715841114
H            2.36108758548547        0.67537150677295       -1.38056383122600
H            2.86033169725746        0.73161533238802        0.30429746838826
15
 energy: -15.773914849281 gnorm: 0.000324760539 xtb: 6.7.1 (edcfbbe)
C           -2.19722369505412        0.22181764837129       -0.31306152057530
C           -0.99093198767197        0.32368803726714        0.62113851140509
C            0.00717596970105       -0.75096326219403        0.31946627323661
C            1.25632910075116       -0.60693362929287       -0.09538747736274
C            1.99420846950814        0.66622771835427       -0.35451725277557
H           -1.88617600236330        0.36079481222273       -1.34621096207367
H           -2.93576975600043        0.98200876686941       -0.06790034807670
H           -2.66608695799356       -0.75602353463583       -0.22532126583191
H           -0.54448049417501        1.31333954209077        0.52933127559488
H           -1.33144418046782        0.20496095456716        1.65421179672216
H           -0.37996043465671       -1.75428386976365        0.45179177820290
H            1.84591324179421       -1.49815904347311       -0.27581533599667
H            1.37374660107182        1.54329840958792       -0.19973286386647
H            2.36097050789683        0.67632756387932       -1.38092665878631
H            2.86030098827754        0.73210721203059        0.30426876509959
15
 energy: -15.773915290500 gnorm: 0.000103684105 xtb: 6.7.1 (edcfbbe)
C           -2.19699969843673        0.22183703984979       -0.31303130242498
C           -0.99091946857307        0.32343651598312        0.62119087405969
C            0.00714260878161       -0.75093677780755        0.31916649633791
C            1.25612578374471       -0.60681909471486       -0.09600386154573
C            1.99399555377628        0.66618677925951       -0.35452765292174
H           -1.88595892154687        0.35981809900800       -1.34630456710292
H           -2.93489178276498        0.98282108577361       -0.06843608369246
H           -2.66686291990836       -0.75550792280679       -0.22468909423881
H           -0.54435751598910        1.31311482576858        0.52956066677631
H           -1.33165052813267        0.20472686846212        1.65431054239435
H           -0.37929627917627       -1.75444458886916        0.45210742526840
H            1.84560703561008       -1.49816896456656       -0.27594399206823
H            1.37336915933610        1.54316409497612       -0.19991247460037
H            2.36134964497437        0.67669797378930       -1.38077584158387
H            2.85991869892273        0.73228139177586        0.30462358025833
15
 energy: -15.773915606998 gnorm: 0.000121795493 xtb: 6.7.1 (edcfbbe)
C           -2.19653715692163        0.22186147728754       -0.31300921978777
C           -0.99085190440903        0.32316634950977        0.62158330216895
C            0.00713317119468       -0.75105327344856        0.31916570862111
C            1.25586754419133       -0.60674126613069       -0.09658640997107
C            1.99354363385246        0.66632480217173       -0.35461937906788
H           -1.88480046887328        0.35776180270844       -1.34630000756702
H           -2.93333134133850        0.98433741414412       -0.06996494282051
H           -2.66790214993590       -0.75459636186444       -0.22338831246745
H           -0.54419520148011        1.31282582102510        0.53035394583293
H           -1.33186381807946        0.20415098260169        1.65456433169249
H           -0.37909725938865       -1.75459743337003        0.45208249106015
H            1.84538099183814       -1.49797040874008       -0.27675950738497
H            1.37258918137971        1.54309287393587       -0.20045968359029
H            2.36171660316325        0.67699332000393       -1.38052553182938
H            2.85891954542483        0.73265122604669        0.30519793002657
15
 energy: -15.773915846106 gnorm: 0.000109727997 xtb: 6.7.1 (edcfbbe)
C           -2.19612347446507        0.22201923641018       -0.31302516274274
C           -0.99082141608764        0.32271936939220        0.62217758986628
C            0.00717132634924       -0.75134754344503        0.31923714593186
C            1.25570077065253       -0.60669687810888       -0.09710726048812
C            1.99311473690727        0.66660557263301       -0.35477055522790
H           -1.88330035244691        0.35517047379214       -1.34635762841820
H           -2.93152053399999        0.98651491262836       -0.07208881690024
H           -2.66954908136489       -0.75328460831152       -0.22176028550084
H           -0.54405690887472        1.31240502098095        0.53176232376849
H           -1.33221879223603        0.20309018272625        1.65494200489578
H           -0.37882347097057       -1.75499579090757        0.45202245161153
H            1.84523481675678       -1.49780404328858       -0.27783730448372
H            1.37160198624156        1.54316971729843       -0.20163278765198
H            2.36245224695985        0.67708588241735       -1.38025019200917
H            2.85770951719642        0.73355582166380        0.30602319226484
15
 energy: -15.773915919082 gnorm: 0.000034818521 xtb: 6.7.1 (edcfbbe)
C           -2.19594285826117        0.22217992477280       -0.31305954430579
C           -0.99081667346506        0.32241689845444        0.62250962071539
C            0.00724370393066       -0.75156893374976        0.31933893446795
C            1.25570499192727       -0.60668743525552       -0.09712732620573
C            1.99290099379716        0.66678344137157       -0.35492627744905
H           -1.88257788479463        0.35419638426129       -1.34636546330910
H           -2.93060704006514        0.98763623761971       -0.07298647970339
H           -2.67039430989034       -0.75254858803925       -0.22116846650033
H           -0.54398815285666        1.31211378067572        0.53265401367900
H           -1.33245549508503        0.20227940855253        1.65510595739962
H           -0.37875699033941       -1.75526327455888        0.45176381613737
H            1.84537459627808       -1.49766993716738       -0.27808185399987
H            1.37095643308620        1.54321211470710       -0.20274455923301
H            2.36301941043037        0.67677980570245       -1.38011514084963
H            2.85691064592553        0.73434749853429        0.30653748407244
