
                                 *****************
                                 * O   R   C   A *
                                 *****************

                                            #,                                       
                                            ###                                      
                                            ####                                     
                                            #####                                    
                                            ######                                   
                                           ########,                                 
                                     ,,################,,,,,                         
                               ,,#################################,,                 
                          ,,##########################################,,             
                       ,#########################################, ''#####,          
                    ,#############################################,,   '####,        
                  ,##################################################,,,,####,       
                ,###########''''           ''''###############################       
              ,#####''   ,,,,##########,,,,          '''####'''          '####       
            ,##' ,,,,###########################,,,                        '##       
           ' ,,###''''                  '''############,,,                           
         ,,##''                                '''############,,,,        ,,,,,,###''
      ,#''                                            '''#######################'''  
     '                                                          ''''####''''         
             ,#######,   #######,   ,#######,      ##                                
            ,#'     '#,  ##    ##  ,#'     '#,    #''#        ,####,   ,####,        
            ##       ##  ##   ,#'  ##            #'  '#       #'       #'  '#        
            ##       ##  #######   ##           ,######,      #####,   #    #        
            '#,     ,#'  ##    ##  '#,     ,#' ,#      #,     #,   #   #,  ,#        
             '#######'   ##     ##  '#######'  #'      '#     '####' # '####'        



                #########################################################
                #                        -***-                          #
                #          Department of theory and spectroscopy        #
                #                                                       #
                #                      Frank Neese                      #
                #                                                       #
                #     Directorship, Architecture, Infrastructure        #
                #                    SHARK, DRIVERS                     #
                #        Core code/Algorithms in most modules           #
                #                                                       #
                #        Max Planck Institute fuer Kohlenforschung      #
                #                Kaiser Wilhelm Platz 1                 #
                #                 D-45470 Muelheim/Ruhr                 #
                #                      Germany                          #
                #                                                       #
                #                  All rights reserved                  #
                #                        -***-                          #
                #########################################################


                         Program Version 6.0.0  -   RELEASE  -


 With contributions from (in alphabetic order):
   Daniel Aravena         : Magnetic Suceptibility
   Michael Atanasov       : Ab Initio Ligand Field Theory (pilot matlab implementation)
   Alexander A. Auer      : GIAO ZORA, VPT2 properties, NMR spectrum
   Ute Becker             : All parallelization in ORCA, NUMFREQ, NUMCALC
   Giovanni Bistoni       : ED, misc. LED, open-shell LED, HFLD
   Martin Brehm           : Molecular dynamics
   Dmytro Bykov           : pre 5.0 version of the SCF Hessian
   Marcos Casanova-Páez   : Triplet and SCS-CIS(D). UHF-(DLPNO)-IP/EA/STEOM-CCSD. UHF-CVS-IP/STEOM-CCSD
   Vijay G. Chilkuri      : MRCI spin determinant printing, contributions to CSF-ICE
   Pauline Colinet        : FMM embedding
   Dipayan Datta          : RHF DLPNO-CCSD density
   Achintya Kumar Dutta   : EOM-CC, STEOM-CC
   Nicolas Foglia         : Exact transition moments, OPA infrastructure, MCD improvements
   Dmitry Ganyushin       : Spin-Orbit,Spin-Spin,Magnetic field MRCI
   Miquel Garcia          : C-PCM and meta-GGA Hessian, CCSD/C-PCM, Gaussian charge scheme
   Tiago L. C. Gouveia    : GS-ROHF, GS-ROCIS
   Yang Guo               : DLPNO-NEVPT2, F12-NEVPT2, CIM, IAO-localization
   Andreas Hansen         : Spin unrestricted coupled pair/coupled cluster methods
   Ingolf Harden          : AUTO-CI MPn and infrastructure 
   Benjamin Helmich-Paris : MC-RPA, TRAH-(SCF,CASSCF), AVAS, COSX integrals, SCF dyn. polar.
   Lee Huntington         : MR-EOM, pCC
   Robert Izsak           : Overlap fitted RIJCOSX, COSX-SCS-MP3, EOM
   Riya Kayal             : Wick's Theorem for AUTO-CI, AUTO-CI UHF-CCSDT
   Emily Kempfer          : AUTO-CI, RHF CISDT and CCSDT
   Christian Kollmar      : KDIIS, OOCD, Brueckner-CCSD(T), CCSD density, CASPT2, CASPT2-K, improved NEVPT2
   Axel Koslowski         : Symmetry handling
   Simone Kossmann        : Meta GGA functionals, TD-DFT gradient, OOMP2, (MP2 Hessian; deprecated post 5.0)
   Lucas Lang             : DCDCAS
   Marvin Lechner         : AUTO-CI (C++ implementation), FIC-MRCC
   Spencer Leger          : CASSCF response
   Dagmar Lenk            : GEPOL surface, SMD, ORCA-2-JSON
   Dimitrios Liakos       : Extrapolation schemes; Compound Job, initial MDCI parallelization
   Dimitrios Manganas     : Further ROCIS development; embedding schemes. LFT, Crystal Embedding
   Dimitrios Pantazis     : SARC Basis sets
   Anastasios Papadopoulos: AUTO-CI, single reference methods and gradients
   Taras Petrenko         : pre 6.0 DFT Hessian and TD-DFT gradient, (ASA, deprecated), ECA, 1-Electron XAS/XES, NRVS
   Peter Pinski           : DLPNO-MP2, DLPNO-MP2 Gradient
   Christoph Reimann      : Effective Core Potentials
   Marius Retegan         : Local ZFS, SOC
   Christoph Riplinger    : Optimizer, TS searches, QM/MM, DLPNO-CCSD(T), (RO)-DLPNO pert. Triples
   Michael Roemelt        : Original ROCIS implementation
   Masaaki Saitow         : Open-shell DLPNO-CCSD energy and density
   Barbara Sandhoefer     : DKH picture change effects
   Kantharuban Sivalingam : CASSCF convergence/infrastructure, NEVPT2 and variants, FIC-MRCI
   Bernardo de Souza      : ESD, SOC TD-DFT
   Georgi Stoychev        : AutoAux, RI-MP2 NMR, DLPNO-MP2 response, X2C
   Van Anh Tran           : RI-MP2 g-tensors
   Willem Van den Heuvel  : Paramagnetic NMR
   Zikuan Wang            : NOTCH, Electric field optimization 
   Frank Wennmohs         : Technical directorship and infrastructure
   Hang Xu                : AUTO-CI-Response properties 


 We gratefully acknowledge several colleagues who have allowed us to
 interface, adapt or use parts of their codes:
   Stefan Grimme, W. Hujo, H. Kruse, P. Pracht,  : VdW corrections, initial TS optimization,
                  C. Bannwarth, S. Ehlert,         DFT functionals, gCP, sTDA/sTD-DF
                  L. Wittmann, M. Mueller
   Ed Valeev, F. Pavosevic, A. Kumar             : LibInt (2-el integral package), F12 methods
   Garnet Chan, S. Sharma, J. Yang, R. Olivares  : DMRG
   Ulf Ekstrom                                   : XCFun DFT Library
   Mihaly Kallay                                 : mrcc  (arbitrary order and MRCC methods)
   Frank Weinhold                                : gennbo (NPA and NBO analysis)
   Simon Mueller                                 : openCOSMO-RS
   Christopher J. Cramer and Donald G. Truhlar   : smd solvation model
   Lars Goerigk                                  : TD-DFT with DH, B97 family of functionals
   V. Asgeirsson, H. Jonsson                     : NEB implementation
   FAccTs GmbH                                   : IRC, NEB, NEB-TS, DLPNO-Multilevel, CI-OPT
                                                   MM, QMMM, 2- and 3-layer-ONIOM, Crystal-QMMM,
                                                   LR-CPCM, SF, NACMEs, symmetry and pop. for TD-DFT,
                                                   nearIR, NL-DFT gradient (VV10), updates on ESD,
                                                   ML-optimized integration grids, MBIS, APM,
                                                   GOAT, DOCKER, SOLVATOR, interface openCOSMO-RS
   S Lehtola, MJT Oliveira, MAL Marques          : LibXC Library
   Liviu Ungur et al                             : ANISO software


 Your calculation uses the libint2 library for the computation of 2-el integrals
 For citations please refer to: http://libint.valeyev.net

 Your ORCA version has been built with support for libXC version: 6.2.2
 For citations please refer to: https://libxc.gitlab.io

 This ORCA versions uses:
   CBLAS   interface :  Fast vector & matrix operations
   LAPACKE interface :  Fast linear algebra routines
   SCALAPACK package :  Parallel linear algebra routines
   Shared memory     :  Shared parallel matrices
   BLAS/LAPACK       :  OpenBLAS 0.3.27  USE64BITINT DYNAMIC_ARCH NO_AFFINITY SkylakeX SINGLE_THREADED
        Core in use  :  SkylakeX
   Copyright (c) 2011-2014, The OpenBLAS Project




***************************************
The coordinates will be read from file: vacuum_censo.xyz
***************************************


Your calculation utilizes the geometrical counterpoise correction gCP
Please cite in your paper:
H.Kruse, S. Grimme J.Chem.Phys., 136, (2012), 154101 
   

Your calculation utilizes the atom-pairwise dispersion correction
based on EEQ partial charges (D4)


================================================================================

----- Orbital basis set information -----
Your calculation utilizes the basis: def2-TZVP
   F. Weigend and R. Ahlrichs, Phys. Chem. Chem. Phys. 7, 3297 (2005).

----- AuxJ basis set information -----
Your calculation utilizes the basis: def2-mTZVPP/J
   Stefan Grimme, Andreas Hansen, Sebastian Ehlert, and Jan-Michael Mewes 
   J. Chem. Phys. 154, 000000 (2021). DOI: 10.1063/5.0040021

================================================================================
                                        WARNINGS
                       Please study these warnings very carefully!
================================================================================

Using LibXC functional ID 497 : Re-regularized SCAN exchange by Furness et al
[ 1]  J. W. Furness, A. D. Kaplan, J. Ning, J. P. Perdew, and J. Sun.,  J. Phys. Chem. Lett. 11, 8208-8215 (2020)
[ 2]  J. W. Furness, A. D. Kaplan, J. Ning, J. P. Perdew, and J. Sun.,  J. Phys. Chem. Lett. 11, 9248-9248 (2020)
Using LibXC functional ID 498 : Re-regularized SCAN correlation by Furness et al
[ 1]  J. W. Furness, A. D. Kaplan, J. Ning, J. P. Perdew, and J. Sun.,  J. Phys. Chem. Lett. 11, 8208-8215 (2020)
[ 2]  J. W. Furness, A. D. Kaplan, J. Ning, J. P. Perdew, and J. Sun.,  J. Phys. Chem. Lett. 11, 9248-9248 (2020)
Using LibXC functional ID 497 : Re-regularized SCAN exchange by Furness et al
[ 1]  J. W. Furness, A. D. Kaplan, J. Ning, J. P. Perdew, and J. Sun.,  J. Phys. Chem. Lett. 11, 8208-8215 (2020)
[ 2]  J. W. Furness, A. D. Kaplan, J. Ning, J. P. Perdew, and J. Sun.,  J. Phys. Chem. Lett. 11, 9248-9248 (2020)
Using LibXC functional ID 498 : Re-regularized SCAN correlation by Furness et al
[ 1]  J. W. Furness, A. D. Kaplan, J. Ning, J. P. Perdew, and J. Sun.,  J. Phys. Chem. Lett. 11, 8208-8215 (2020)
[ 2]  J. W. Furness, A. D. Kaplan, J. Ning, J. P. Perdew, and J. Sun.,  J. Phys. Chem. Lett. 11, 9248-9248 (2020)

================================================================================
                                       INPUT FILE
================================================================================
NAME = vacuum_censo.inp
|  1> ! r2SCAN-3c DEF2-TZVP FREQ
|  2> * xyzfile 0 1 vacuum_censo.xyz
|  3> 
|  4>                          ****END OF INPUT****
================================================================================

                       ****************************
                       * Single Point Calculation *
                       ****************************

---------------------------------
CARTESIAN COORDINATES (ANGSTROEM)
---------------------------------
  C     -1.165460   -0.761798   -0.000005
  C      0.077018   -1.390122   -0.000001
  C      1.242378   -0.628367   -0.000022
  C      1.165468    0.761808   -0.000009
  C     -0.077026    1.390131   -0.000003
  C     -1.242376    0.628364   -0.000014
  H     -2.074028   -1.355653   -0.000002
  H      0.137076   -2.473894   -0.000010
  H      2.210947   -1.118340   -0.000015
  H      2.074058    1.355681   -0.000015
  H     -0.137136    2.473914   -0.000010
  H     -2.210956    1.118280    0.000001

----------------------------
CARTESIAN COORDINATES (A.U.)
----------------------------
  NO LB      ZA    FRAG     MASS         X           Y           Z
   0 C     6.0000    0    12.011   -2.202399   -1.439590   -0.000010
   1 C     6.0000    0    12.011    0.145544   -2.626950   -0.000002
   2 C     6.0000    0    12.011    2.347755   -1.187442   -0.000041
   3 C     6.0000    0    12.011    2.202416    1.439609   -0.000017
   4 C     6.0000    0    12.011   -0.145558    2.626966   -0.000005
   5 C     6.0000    0    12.011   -2.347751    1.187436   -0.000027
   6 H     1.0000    0     1.008   -3.919344   -2.561812   -0.000003
   7 H     1.0000    0     1.008    0.259036   -4.674982   -0.000019
   8 H     1.0000    0     1.008    4.178084   -2.113356   -0.000028
   9 H     1.0000    0     1.008    3.919401    2.561865   -0.000029
  10 H     1.0000    0     1.008   -0.259150    4.675019   -0.000019
  11 H     1.0000    0     1.008   -4.178102    2.113243    0.000001

--------------------------------
INTERNAL COORDINATES (ANGSTROEM)
--------------------------------
 C      0   0   0     0.000000000000     0.00000000     0.00000000
 C      1   0   0     1.392315273097     0.00000000     0.00000000
 C      2   1   0     1.392240789962   120.00296099     0.00000000
 C      3   2   1     1.392301031215   120.00462084     0.00000000
 C      4   3   2     1.392329489455   119.99208674     0.00000000
 C      5   4   3     1.392239089086   120.00266004     0.00000000
 H      1   2   3     1.085430191212   120.00492979   179.99925405
 H      2   1   3     1.085434855641   119.99763774   180.00168378
 H      3   2   1     1.085448346809   119.99514205   179.99976650
 H      4   3   2     1.085458288596   120.00284517   179.99942552
 H      5   4   3     1.085448433885   120.00004432   180.00103332
 H      6   5   4     1.085433249611   119.99746838   179.99939182

---------------------------
INTERNAL COORDINATES (A.U.)
---------------------------
 C      0   0   0     0.000000000000     0.00000000     0.00000000
 C      1   0   0     2.631094558230     0.00000000     0.00000000
 C      2   1   0     2.630953805502   120.00296099     0.00000000
 C      3   2   1     2.631067644973   120.00462084     0.00000000
 C      4   3   2     2.631121423253   119.99208674     0.00000000
 C      5   4   3     2.630950591312   120.00266004     0.00000000
 H      1   2   3     2.051165798880   120.00492979   179.99925405
 H      2   1   3     2.051174613375   119.99763774   180.00168378
 H      3   2   1     2.051200107986   119.99514205   179.99976650
 H      4   3   2     2.051218895241   120.00284517   179.99942552
 H      5   4   3     2.051200272535   120.00004432   180.00103332
 H      6   5   4     2.051171578417   119.99746838   179.99939182

---------------------
BASIS SET INFORMATION
---------------------
There are 2 groups of distinct atoms

 Group   1 Type C   : 11s6p2d1f contracted to 5s3p2d1f pattern {62111/411/11/1}
 Group   2 Type H   : 5s1p contracted to 3s1p pattern {311/1}

Atom   0C    basis set group =>   1
Atom   1C    basis set group =>   1
Atom   2C    basis set group =>   1
Atom   3C    basis set group =>   1
Atom   4C    basis set group =>   1
Atom   5C    basis set group =>   1
Atom   6H    basis set group =>   2
Atom   7H    basis set group =>   2
Atom   8H    basis set group =>   2
Atom   9H    basis set group =>   2
Atom  10H    basis set group =>   2
Atom  11H    basis set group =>   2
---------------------------------
AUXILIARY/J BASIS SET INFORMATION
---------------------------------
There are 2 groups of distinct atoms

 Group   1 Type C   : 8s3p3d contracted to 6s3p3d pattern {311111/111/111}
 Group   2 Type H   : 5s2p1d contracted to 3s1p1d pattern {311/2/1}

Atom   0C    basis set group =>   1
Atom   1C    basis set group =>   1
Atom   2C    basis set group =>   1
Atom   3C    basis set group =>   1
Atom   4C    basis set group =>   1
Atom   5C    basis set group =>   1
Atom   6H    basis set group =>   2
Atom   7H    basis set group =>   2
Atom   8H    basis set group =>   2
Atom   9H    basis set group =>   2
Atom  10H    basis set group =>   2
Atom  11H    basis set group =>   2
------------------------------------------------------------------------------
                             ORCA STARTUP CALCULATIONS
                           -- RI-GTO INTEGRALS CHOSEN --
------------------------------------------------------------------------------
------------------------------------------------------------------------------
                   ___                                                        
                  /   \      - P O W E R E D   B Y -                         
                 /     \                                                     
                 |  |  |   _    _      __       _____    __    __             
                 |  |  |  | |  | |    /  \     |  _  \  |  |  /  |          
                  \  \/   | |  | |   /    \    | | | |  |  | /  /          
                 / \  \   | |__| |  /  /\  \   | |_| |  |  |/  /          
                |  |  |   |  __  | /  /__\  \  |    /   |      \           
                |  |  |   | |  | | |   __   |  |    \   |  |\   \          
                \     /   | |  | | |  |  |  |  | |\  \  |  | \   \       
                 \___/    |_|  |_| |__|  |__|  |_| \__\ |__|  \__/        
                                                                              
                      - O R C A' S   B I G   F R I E N D -                    
                                      &                                       
                       - I N T E G R A L  F E E D E R -                       
                                                                              
 v1 FN, 2020, v2 2021, v3 2022-2024                                           
------------------------------------------------------------------------------


----------------------
SHARK INTEGRAL PACKAGE
----------------------

Number of atoms                             ...     12
Number of basis functions                   ...    222
Number of shells                            ...     90
Maximum angular momentum                    ...      3
Integral batch strategy                     ... SHARK/LIBINT Hybrid
RI-J (if used) integral strategy            ... SPLIT-RIJ (Revised 2003 algorithm where possible)
Printlevel                                  ...      1
Contraction scheme used                     ... SEGMENTED contraction
Prescreening option                         ... SCHWARTZ
   Thresh                                   ... 1.000e-10
   Tcut                                     ... 1.000e-11
   Tpresel                                  ... 1.000e-11 
Coulomb Range Separation                    ... NOT USED
Exchange Range Separation                   ... NOT USED
Multipole approximations                    ... NOT USED
Finite Nucleus Model                        ... NOT USED
CABS basis                                  ... NOT available
Auxiliary Coulomb fitting basis             ... AVAILABLE
   # of basis functions in Aux-J            ...    246
   # of shells in Aux-J                     ...    102
   Maximum angular momentum in Aux-J        ...      2
Auxiliary J/K fitting basis                 ... NOT available
Auxiliary Correlation fitting basis         ... NOT available
Auxiliary 'external' fitting basis          ... NOT available

Checking pre-screening integrals            ... done (  0.0 sec) Dimension = 90
Check shell pair data                       ... done (  0.0 sec)
Shell pair information
Shell pair cut-off parameter TPreSel        ...   1.0e-11
Total number of shell pairs                 ...      4095
Shell pairs after pre-screening             ...      3955
Total number of primitive shell pairs       ...     12396
Primitive shell pairs kept                  ...      9473
          la=0 lb=0:   1089 shell pairs
          la=1 lb=0:   1110 shell pairs
          la=1 lb=1:    297 shell pairs
          la=2 lb=0:    568 shell pairs
          la=2 lb=1:    288 shell pairs
          la=2 lb=2:     78 shell pairs
          la=3 lb=0:    288 shell pairs
          la=3 lb=1:    144 shell pairs
          la=3 lb=2:     72 shell pairs
          la=3 lb=3:     21 shell pairs

Calculating one electron integrals          ... done (  0.0 sec)
Calculating RI/J V-Matrix + Cholesky decomp.... done (  0.0 sec)
Calculating Nuclear repulsion               ... done (  0.0 sec) ENN=    203.767659125637 Eh

Diagonalization of the overlap matrix:
Smallest eigenvalue                        ... 1.014e-05
Time for diagonalization                   ...    0.005 sec
Threshold for overlap eigenvalues          ... 1.000e-07
Number of eigenvalues below threshold      ... 0
Time for construction of square roots      ...    0.013 sec
Total time needed                          ...    0.028 sec

-------------------
DFT GRID GENERATION
-------------------

General Integration Accuracy     IntAcc      ... 4.388
Radial Grid Type                 RadialGrid  ... OptM3 with GC (2021)
Angular Grid (max. ang.)         AngularGrid ... 4 (Lebedev-302)
Angular grid pruning method      GridPruning ... 4 (adaptive)
Weight generation scheme         WeightScheme... mBecke (2022)
Basis function cutoff            BFCut       ... 1.0000e-10
Integration weight cutoff        WCut        ... 1.0000e-14
Partially contracted basis set               ... off
Rotationally invariant grid construction     ... off
Angular grids for H and He will be reduced by one unit

Total number of grid points                  ...    55498
Total number of batches                      ...      872
Average number of points per batch           ...       63
Average number of grid points per atom       ...     4625
Initializing property integral containers    ... done (  0.0 sec)

SHARK setup successfully completed in   0.8 seconds

Maximum memory used throughout the entire STARTUP-calculation: 29.3 MB
-------------------------------------------------------------------------------
                                 ORCA GUESS
                   Start orbitals & Density for SCF / CASSCF
-------------------------------------------------------------------------------

------------
SCF SETTINGS
------------
Hamiltonian:
 Density Functional     Method          .... DFT(GTOs)
  Functional kind                       .... Exchange
  Functional name                       .... Re-regularized SCAN exchange by Furness et al
  Functional family                     .... MGGA
  Functional refs                              
    [ 0] J. W. Furness, A. D. Kaplan, J. Ning, J. P. Perdew, and J. Sun.,  J. Phys. Chem. Lett. 11, 8208-8215 (2020), doi: 10.1021/acs.jpclett.0c02405
    [ 1] J. W. Furness, A. D. Kaplan, J. Ning, J. P. Perdew, and J. Sun.,  J. Phys. Chem. Lett. 11, 9248-9248 (2020), doi: 10.1021/acs.jpclett.0c03077
  Functional external parameters        .... 6
    Parameter  0 _c1        =  6.670000e-01 : c1 parameter        
    Parameter  1 _c2        =  8.000000e-01 : c2 parameter        
    Parameter  2 _d         =  1.240000e+00 : d parameter         
    Parameter  3 _k1        =  6.500000e-02 : k1 parameter        
    Parameter  4 _eta       =  1.000000e-03 : eta parameter       
    Parameter  5 _dp2       =  3.610000e-01 : dp2 parameter       
  Functional kind                       .... Correlation
  Functional name                       .... Re-regularized SCAN correlation by Furness et al
  Functional family                     .... MGGA
  Functional refs                              
    [ 0] J. W. Furness, A. D. Kaplan, J. Ning, J. P. Perdew, and J. Sun.,  J. Phys. Chem. Lett. 11, 8208-8215 (2020), doi: 10.1021/acs.jpclett.0c02405
    [ 1] J. W. Furness, A. D. Kaplan, J. Ning, J. P. Perdew, and J. Sun.,  J. Phys. Chem. Lett. 11, 9248-9248 (2020), doi: 10.1021/acs.jpclett.0c03077
  Functional external parameters        .... 1
    Parameter  0 _eta       =  1.000000e-03 : Regularization parameter
 Gradients option       PostSCFGGA      .... off
 RI-approximation to the Coulomb term is turned on
   Number of AuxJ basis functions       .... 246


General Settings:
 Integral files         IntName         .... vacuum_censo
 Hartree-Fock type      HFTyp           .... RHF
 Total Charge           Charge          ....    0
 Multiplicity           Mult            ....    1
 Number of Electrons    NEL             ....   42
 Basis Dimension        Dim             ....  222
 Nuclear Repulsion      ENuc            ....    203.7676591256 Eh

Convergence Acceleration:
 AO-DIIS                CNVDIIS         .... on
   Start iteration      DIISMaxIt       ....    12
   Startup error        DIISStart       ....  0.200000
   # of expansion vecs  DIISMaxEq       ....     5
   Bias factor          DIISBfac        ....   1.050
   Max. coefficient     DIISMaxC        ....  10.000
 MO-DIIS                CNVKDIIS        .... off
 Trust-Rad. Augm. Hess. CNVTRAH         .... auto
   Auto Start mean grad. ratio tolernc. ....  1.125000
   Auto Start start iteration           ....    50
   Auto Start num. interpolation iter.  ....    10
   Max. Number of Micro iterations      ....    24
   Max. Number of Macro iterations      .... Maxiter - #DIIS iter
   Number of Davidson start vectors     ....     2
   Converg. threshold    (grad. norm)   ....   5.000e-05
   Grad. Scal. Fac. for Micro threshold ....   0.100
   Minimum threshold for Micro iter.    ....   1.000e-02
   NR start threshold (gradient norm)   ....   1.000e-04
   Initial trust radius                 ....   0.400
   Minimum AH scaling param. (alpha)    ....   1.000
   Maximum AH scaling param. (alpha)    .... 1000.000
   Quad. conv. algorithm                .... NR
   White noise on init. David. guess    .... on
   Maximum white noise                  ....   0.010
   Pseudo random numbers                .... off
   Inactive MOs                         .... canonical
   Orbital update algorithm             .... Taylor
   Preconditioner                       .... Diag
   Full preconditioner red. dimension   ....   250
   COSX micro iterations for RIJONX calc.... off
 SOSCF                  CNVSOSCF        .... on
   Start iteration      SOSCFMaxIt      ....   150
   Startup grad/error   SOSCFStart      ....  0.003300
   Hessian update       SOSCFHessUp     .... L-BFGS
 Level Shifting         CNVShift        .... on
   Level shift para.    LevelShift      ....    0.2500
   Turn off err/grad.   ShiftErr        ....    0.0010
 Zerner damping         CNVZerner       .... off
 Static damping         CNVDamp         .... on
   Fraction old density DampFac         ....    0.7000
   Max. Damping (<1)    DampMax         ....    0.9800
   Min. Damping (>=0)   DampMin         ....    0.0000
   Turn off err/grad.   DampErr         ....    0.1000

SCF Procedure:
 Maximum # iterations   MaxIter         ....   125
 SCF integral mode      SCFMode         .... Direct
   Integral package                     .... SHARK and LIBINT hybrid scheme
 Reset frequency        DirectResetFreq ....    20
 Integral Threshold     Thresh          ....  1.000e-10 Eh
 Primitive CutOff       TCut            ....  1.000e-11 Eh

Convergence Tolerance:
 Convergence Check Mode ConvCheckMode   .... Total+1el-Energy
 Convergence forced     ConvForced      .... 0
 Energy Change          TolE            ....  1.000e-06 Eh
 1-El. energy change                    ....  1.000e-03 Eh
 Orbital Gradient       TolG            ....  5.000e-05
 Orbital Rotation angle TolX            ....  5.000e-05
 DIIS Error             TolErr          ....  1.000e-06

------------------------------
INITIAL GUESS: MODEL POTENTIAL
------------------------------
Loading Hartree-Fock densities                     ... done
Calculating cut-offs                               ... done
Initializing the effective Hamiltonian             ... done
Setting up the integral package (SHARK)            ... done
Starting the Coulomb interaction                   ... done (   0.2 sec)
Making the grid                                    ... done (   0.1 sec)
Mapping shells                                     ... done
Starting the XC term evaluation                    ... done (   0.3 sec)
  promolecular density results
     # of electrons  =     41.996824310
     EX              =    -32.430207882
     EC              =     -1.369069113
     EX+EC           =    -33.799276995
Transforming the Hamiltonian                       ... done (   0.0 sec)
Diagonalizing the Hamiltonian                      ... done (   0.0 sec)
Back transforming the eigenvectors                 ... done (   0.0 sec)
Now organizing SCF variables                       ... done
                      ------------------
                      INITIAL GUESS DONE (   0.6 sec)
                      ------------------
             **** ENERGY FILE WAS UPDATED (vacuum_censo.en.tmp) ****
Finished Guess after   0.8 sec
Maximum memory used throughout the entire GUESS-calculation: 18.5 MB

-------------------------------------------------------------------------------------------
                                      ORCA LEAN-SCF
                              memory conserving SCF solver
-------------------------------------------------------------------------------------------

----------------------------------------D-I-I-S--------------------------------------------
Iteration    Energy (Eh)           Delta-E    RMSDP     MaxDP     DIISErr   Damp  Time(sec)
-------------------------------------------------------------------------------------------
               ***  Starting incremental Fock matrix formation  ***
    1    -232.0466059243615575     0.00e+00  1.65e-03  2.45e-02  1.47e-01  0.700   2.4
    2    -232.1155432446745124    -6.89e-02  1.22e-03  1.64e-02  7.54e-02  0.700   2.3
                               ***Turning on AO-DIIS***
    3    -232.1433941819538802    -2.79e-02  6.35e-04  9.60e-03  2.79e-02  0.700   2.2
    4    -232.1595916703223281    -1.62e-02  1.26e-03  1.89e-02  1.46e-02  0.000   2.1
    5    -232.1950722628522783    -3.55e-02  1.40e-04  2.27e-03  5.53e-03  0.000   2.2
                              *** Initializing SOSCF ***
---------------------------------------S-O-S-C-F--------------------------------------
Iteration    Energy (Eh)           Delta-E    RMSDP     MaxDP     MaxGrad    Time(sec)
--------------------------------------------------------------------------------------
    6    -232.1953133715257138    -2.41e-04  6.65e-05  1.11e-03  8.52e-04     2.1
               *** Restarting incremental Fock matrix formation ***
    7    -232.1953245630643607    -1.12e-05  5.04e-05  7.79e-04  1.60e-04     2.4
    8    -232.1953251803228966    -6.17e-07  1.68e-05  2.35e-04  9.02e-05     2.0
                 **** Energy Check signals convergence ****

               *****************************************************
               *                     SUCCESS                       *
               *           SCF CONVERGED AFTER   8 CYCLES          *
               *****************************************************

             **** ENERGY FILE WAS UPDATED (vacuum_censo.en.tmp) ****

----------------
TOTAL SCF ENERGY
----------------

Total Energy       :       -232.19532518032290 Eh           -6318.35602 eV

Components:
Nuclear Repulsion  :        203.76765912563715 Eh            5544.79990 eV
Electronic Energy  :       -435.96298430596005 Eh          -11863.15591 eV
One Electron Energy:       -714.89524922248006 Eh          -19453.28872 eV
Two Electron Energy:        278.93226491652001 Eh            7590.13280 eV

Virial components:
Potential Energy   :       -463.26827058794083 Eh          -12606.17053 eV
Kinetic Energy     :        231.07294540761796 Eh            6287.81451 eV
Virial Ratio       :          2.00485725306667

DFT components:
N(Alpha)           :       21.000015697034 electrons
N(Beta)            :       21.000015697034 electrons
N(Total)           :       42.000031394068 electrons
E(X)               :      -33.357301825484 Eh       
E(C)               :       -1.330677767702 Eh       
E(XC)              :      -34.687979593185 Eh       

---------------
SCF CONVERGENCE
---------------

  Last Energy change         ...    6.1726e-07  Tolerance :   1.0000e-06
  Last MAX-Density change    ...    2.3454e-04  Tolerance :   1.0000e-05
  Last RMS-Density change    ...    1.6790e-05  Tolerance :   1.0000e-06
  Last DIIS Error            ...    8.5229e-04  Tolerance :   1.0000e-06
  Last Orbital Gradient      ...    9.0185e-05  Tolerance :   5.0000e-05
  Last Orbital Rotation      ...    9.4628e-05  Tolerance :   5.0000e-05


----------------
ORBITAL ENERGIES
----------------

  NO   OCC          E(Eh)            E(eV) 
   0   2.0000     -10.037425      -273.1322 
   1   2.0000     -10.037235      -273.1270 
   2   2.0000     -10.037229      -273.1269 
   3   2.0000     -10.036794      -273.1151 
   4   2.0000     -10.036789      -273.1149 
   5   2.0000     -10.036574      -273.1091 
   6   2.0000      -0.820774       -22.3344 
   7   2.0000      -0.713767       -19.4226 
   8   2.0000      -0.713763       -19.4225 
   9   2.0000      -0.571165       -15.5422 
  10   2.0000      -0.571141       -15.5415 
  11   2.0000      -0.491894       -13.3851 
  12   2.0000      -0.429940       -11.6993 
  13   2.0000      -0.414728       -11.2853 
  14   2.0000      -0.389826       -10.6077 
  15   2.0000      -0.389809       -10.6072 
  16   2.0000      -0.344939        -9.3863 
  17   2.0000      -0.312827        -8.5125 
  18   2.0000      -0.312790        -8.5114 
  19   2.0000      -0.237564        -6.4644 
  20   2.0000      -0.237556        -6.4642 
  21   0.0000      -0.034137        -0.9289 
  22   0.0000      -0.034111        -0.9282 
  23   0.0000       0.054549         1.4843 
  24   0.0000       0.099417         2.7053 
  25   0.0000       0.099440         2.7059 
  26   0.0000       0.119704         3.2573 
  27   0.0000       0.125945         3.4271 
  28   0.0000       0.125959         3.4275 
  29   0.0000       0.153541         4.1781 
  30   0.0000       0.157639         4.2896 
  31   0.0000       0.216891         5.9019 
*Only the first 10 virtual orbitals were printed.

                    ********************************
                    * MULLIKEN POPULATION ANALYSIS *
                    ********************************

-----------------------
MULLIKEN ATOMIC CHARGES
-----------------------
   0 C :   -0.108818
   1 C :   -0.108610
   2 C :   -0.108617
   3 C :   -0.108827
   4 C :   -0.108604
   5 C :   -0.108621
   6 H :    0.108715
   7 H :    0.108676
   8 H :    0.108658
   9 H :    0.108715
  10 H :    0.108676
  11 H :    0.108657
Sum of atomic charges:    0.0000000

--------------------------------
MULLIKEN REDUCED ORBITAL CHARGES
--------------------------------
  0 C s       :     3.212520  s :     3.212520
      pz      :     0.964242  p :     2.809960
      px      :     0.931376
      py      :     0.914341
      dz2     :     0.003754  d :     0.077686
      dxz     :     0.009894
      dyz     :     0.017137
      dx2y2   :     0.022826
      dxy     :     0.024075
      f0      :     0.001762  f :     0.008651
      f+1     :     0.000658
      f-1     :     0.000643
      f+2     :     0.001033
      f-2     :     0.000352
      f+3     :     0.002461
      f-3     :     0.001742

  1 C s       :     3.212273  s :     3.212273
      pz      :     0.964243  p :     2.810011
      px      :     0.901877
      py      :     0.943891
      dz2     :     0.003749  d :     0.077676
      dxz     :     0.022489
      dyz     :     0.004543
      dx2y2   :     0.024346
      dxy     :     0.022550
      f0      :     0.001762  f :     0.008650
      f+1     :     0.000632
      f-1     :     0.000669
      f+2     :     0.000203
      f-2     :     0.001182
      f+3     :     0.002460
      f-3     :     0.001742

  2 C s       :     3.212241  s :     3.212241
      pz      :     0.964247  p :     2.810054
      px      :     0.935409
      py      :     0.910398
      dz2     :     0.003746  d :     0.077672
      dxz     :     0.008166
      dyz     :     0.018866
      dx2y2   :     0.023168
      dxy     :     0.023726
      f0      :     0.001762  f :     0.008650
      f+1     :     0.000661
      f-1     :     0.000639
      f+2     :     0.000842
      f-2     :     0.000544
      f+3     :     0.002460
      f-3     :     0.001741

  3 C s       :     3.212549  s :     3.212549
      pz      :     0.964245  p :     2.809943
      px      :     0.931367
      py      :     0.914332
      dz2     :     0.003754  d :     0.077685
      dxz     :     0.009894
      dyz     :     0.017137
      dx2y2   :     0.022825
      dxy     :     0.024075
      f0      :     0.001762  f :     0.008651
      f+1     :     0.000658
      f-1     :     0.000643
      f+2     :     0.001033
      f-2     :     0.000352
      f+3     :     0.002461
      f-3     :     0.001742

  4 C s       :     3.212277  s :     3.212277
      pz      :     0.964244  p :     2.810001
      px      :     0.901872
      py      :     0.943885
      dz2     :     0.003749  d :     0.077676
      dxz     :     0.022488
      dyz     :     0.004543
      dx2y2   :     0.024346
      dxy     :     0.022549
      f0      :     0.001762  f :     0.008650
      f+1     :     0.000632
      f-1     :     0.000669
      f+2     :     0.000203
      f-2     :     0.001182
      f+3     :     0.002460
      f-3     :     0.001742

  5 C s       :     3.212235  s :     3.212235
      pz      :     0.964245  p :     2.810063
      px      :     0.935406
      py      :     0.910411
      dz2     :     0.003746  d :     0.077673
      dxz     :     0.008165
      dyz     :     0.018866
      dx2y2   :     0.023168
      dxy     :     0.023726
      f0      :     0.001762  f :     0.008650
      f+1     :     0.000661
      f-1     :     0.000639
      f+2     :     0.000842
      f-2     :     0.000544
      f+3     :     0.002460
      f-3     :     0.001741

  6 H s       :     0.867841  s :     0.867841
      pz      :     0.005577  p :     0.023444
      px      :     0.010729
      py      :     0.007138

  7 H s       :     0.867878  s :     0.867878
      pz      :     0.005577  p :     0.023446
      px      :     0.004488
      py      :     0.013381

  8 H s       :     0.867894  s :     0.867894
      pz      :     0.005577  p :     0.023447
      px      :     0.011586
      py      :     0.006284

  9 H s       :     0.867842  s :     0.867842
      pz      :     0.005576  p :     0.023443
      px      :     0.010729
      py      :     0.007138

 10 H s       :     0.867879  s :     0.867879
      pz      :     0.005576  p :     0.023445
      px      :     0.004488
      py      :     0.013381

 11 H s       :     0.867895  s :     0.867895
      pz      :     0.005577  p :     0.023448
      px      :     0.011587
      py      :     0.006284



                     *******************************
                     * LOEWDIN POPULATION ANALYSIS *
                     *******************************

----------------------
LOEWDIN ATOMIC CHARGES
----------------------
   0 C :   -0.142367
   1 C :   -0.142393
   2 C :   -0.142404
   3 C :   -0.142364
   4 C :   -0.142391
   5 C :   -0.142406
   6 H :    0.142386
   7 H :    0.142386
   8 H :    0.142389
   9 H :    0.142390
  10 H :    0.142388
  11 H :    0.142387

-------------------------------
LOEWDIN REDUCED ORBITAL CHARGES
-------------------------------
  0 C s       :     2.771636  s :     2.771636
      pz      :     0.883990  p :     2.937835
      px      :     1.010602
      py      :     1.043244
      dz2     :     0.025796  d :     0.389259
      dxz     :     0.031447
      dyz     :     0.058219
      dx2y2   :     0.115003
      dxy     :     0.158795
      f0      :     0.003208  f :     0.043637
      f+1     :     0.003603
      f-1     :     0.004078
      f+2     :     0.006647
      f-2     :     0.002310
      f+3     :     0.015414
      f-3     :     0.008376

  1 C s       :     2.771621  s :     2.771621
      pz      :     0.883990  p :     2.937835
      px      :     1.067347
      py      :     0.986498
      dz2     :     0.025798  d :     0.389297
      dxz     :     0.077998
      dyz     :     0.011678
      dx2y2   :     0.168427
      dxy     :     0.105396
      f0      :     0.003208  f :     0.043640
      f+1     :     0.004430
      f-1     :     0.003253
      f+2     :     0.001359
      f-2     :     0.007598
      f+3     :     0.015415
      f-3     :     0.008377

  2 C s       :     2.771619  s :     2.771619
      pz      :     0.883991  p :     2.937836
      px      :     1.002830
      py      :     1.051016
      dz2     :     0.025798  d :     0.389308
      dxz     :     0.025068
      dyz     :     0.064610
      dx2y2   :     0.127295
      dxy     :     0.146536
      f0      :     0.003208  f :     0.043641
      f+1     :     0.003490
      f-1     :     0.004192
      f+2     :     0.005431
      f-2     :     0.003527
      f+3     :     0.015415
      f-3     :     0.008377

  3 C s       :     2.771648  s :     2.771648
      pz      :     0.883995  p :     2.937834
      px      :     1.010599
      py      :     1.043240
      dz2     :     0.025795  d :     0.389247
      dxz     :     0.031446
      dyz     :     0.058217
      dx2y2   :     0.115000
      dxy     :     0.158791
      f0      :     0.003208  f :     0.043635
      f+1     :     0.003603
      f-1     :     0.004078
      f+2     :     0.006647
      f-2     :     0.002310
      f+3     :     0.015413
      f-3     :     0.008375

  4 C s       :     2.771626  s :     2.771626
      pz      :     0.883993  p :     2.937834
      px      :     1.067343
      py      :     0.986498
      dz2     :     0.025797  d :     0.389292
      dxz     :     0.077997
      dyz     :     0.011678
      dx2y2   :     0.168424
      dxy     :     0.105396
      f0      :     0.003208  f :     0.043639
      f+1     :     0.004430
      f-1     :     0.003253
      f+2     :     0.001359
      f-2     :     0.007598
      f+3     :     0.015414
      f-3     :     0.008377

  5 C s       :     2.771612  s :     2.771612
      pz      :     0.883988  p :     2.937837
      px      :     1.002828
      py      :     1.051022
      dz2     :     0.025798  d :     0.389314
      dxz     :     0.025068
      dyz     :     0.064612
      dx2y2   :     0.127300
      dxy     :     0.146536
      f0      :     0.003208  f :     0.043642
      f+1     :     0.003490
      f-1     :     0.004192
      f+2     :     0.005431
      f-2     :     0.003527
      f+3     :     0.015416
      f-3     :     0.008377

  6 H s       :     0.797365  s :     0.797365
      pz      :     0.014171  p :     0.060249
      px      :     0.027714
      py      :     0.018364

  7 H s       :     0.797368  s :     0.797368
      pz      :     0.014171  p :     0.060246
      px      :     0.011461
      py      :     0.034614

  8 H s       :     0.797367  s :     0.797367
      pz      :     0.014170  p :     0.060244
      px      :     0.029937
      py      :     0.016136

  9 H s       :     0.797365  s :     0.797365
      pz      :     0.014170  p :     0.060245
      px      :     0.027713
      py      :     0.018363

 10 H s       :     0.797368  s :     0.797368
      pz      :     0.014170  p :     0.060244
      px      :     0.011461
      py      :     0.034613

 11 H s       :     0.797368  s :     0.797368
      pz      :     0.014171  p :     0.060246
      px      :     0.029939
      py      :     0.016136



                      *****************************
                      * MAYER POPULATION ANALYSIS *
                      *****************************

  NA   - Mulliken gross atomic population
  ZA   - Total nuclear charge
  QA   - Mulliken gross atomic charge
  VA   - Mayer's total valence
  BVA  - Mayer's bonded valence
  FA   - Mayer's free valence

  ATOM       NA         ZA         QA         VA         BVA        FA
  0 C      6.1088     6.0000    -0.1088     3.8985     3.8985    -0.0000
  1 C      6.1086     6.0000    -0.1086     3.8986     3.8986    -0.0000
  2 C      6.1086     6.0000    -0.1086     3.8987     3.8987    -0.0000
  3 C      6.1088     6.0000    -0.1088     3.8985     3.8985     0.0000
  4 C      6.1086     6.0000    -0.1086     3.8985     3.8985     0.0000
  5 C      6.1086     6.0000    -0.1086     3.8987     3.8987    -0.0000
  6 H      0.8913     1.0000     0.1087     0.9757     0.9757    -0.0000
  7 H      0.8913     1.0000     0.1087     0.9757     0.9757    -0.0000
  8 H      0.8913     1.0000     0.1087     0.9757     0.9757     0.0000
  9 H      0.8913     1.0000     0.1087     0.9758     0.9758    -0.0000
 10 H      0.8913     1.0000     0.1087     0.9757     0.9757     0.0000
 11 H      0.8913     1.0000     0.1087     0.9757     0.9757     0.0000

  Mayer bond orders larger than 0.100000
B(  0-C ,  1-C ) :   1.4015 B(  0-C ,  5-C ) :   1.4016 B(  0-C ,  6-H ) :   0.9691 
B(  1-C ,  2-C ) :   1.4017 B(  1-C ,  7-H ) :   0.9691 B(  2-C ,  3-C ) :   1.4015 
B(  2-C ,  8-H ) :   0.9691 B(  3-C ,  4-C ) :   1.4015 B(  3-C ,  9-H ) :   0.9691 
B(  4-C ,  5-C ) :   1.4017 B(  4-C , 10-H ) :   0.9691 B(  5-C , 11-H ) :   0.9691 


-------
TIMINGS
-------

Total SCF time: 0 days 0 hours 0 min 17 sec 

Total time                  ....      17.971 sec
Sum of individual times     ....      17.569 sec  ( 97.8%)

SCF preparation             ....       0.173 sec  (  1.0%)
Fock matrix formation       ....      16.673 sec  ( 92.8%)
  Startup                   ....       0.050 sec  (  0.3% of F)
  Split-RI-J                ....       1.524 sec  (  9.1% of F)
  XC integration            ....      14.623 sec  ( 87.7% of F)
    XC Preparation          ....       0.000 sec  (  0.0% of XC)
    Basis function eval.    ....       2.182 sec  ( 14.9% of XC)
    Density eval.           ....       4.400 sec  ( 30.1% of XC)
    XC-Functional eval.     ....       1.258 sec  (  8.6% of XC)
    XC-Potential eval.      ....       6.163 sec  ( 42.1% of XC)
Diagonalization             ....       0.000 sec  (  0.0%)
Density matrix formation    ....       0.181 sec  (  1.0%)
Total Energy calculation    ....       0.024 sec  (  0.1%)
Population analysis         ....       0.032 sec  (  0.2%)
Orbital Transformation      ....       0.056 sec  (  0.3%)
Orbital Orthonormalization  ....       0.000 sec  (  0.0%)
DIIS solution               ....       0.317 sec  (  1.8%)
SOSCF solution              ....       0.113 sec  (  0.6%)
Finished LeanSCF after  18.1 sec

Maximum memory used throughout the entire LEANSCF-calculation: 22.4 MB

------------------------------------------------------------------------------
                         ORCA PROPERTY INTEGRAL CALCULATIONS
------------------------------------------------------------------------------

GBWName                                   ... vacuum_censo.gbw
Number of atoms                           ...     12
Number of basis functions                 ...    222
Max core memory                           ...   1024 MB

Dipole integrals                          ... YES
Quadrupole integrals                      ...  NO
Linear momentum integrals                 ...  NO
Angular momentum integrals                ...  NO
Higher moments length integrals           ...  NO
Higher moments velocity integrals         ...  NO
Kinetic energy integrals                  ...  NO
GIAO right hand sides                     ...  NO
GIAO dipole derivative integrals          ...  NO
SOC integrals                             ...  NO
EPR diamagnetic integrals (GIAO)          ...  NO
EPR gauge integrals                       ...  NO
Field gradient integrals                  ...  NO (   0 nuclei)
Spin-dipole/Fermi contact integrals       ...  NO (   0 nuclei)
Contact density integrals                 ...  NO (   0 nuclei)
Nucleus-orbit integrals                   ...  NO (   0 nuclei)
Geometric perturbations                   ... YES (  12 nuclei)

Choice of electric origin   ... Center of mass
Position of electric origin ... (  0.0000,  0.0000, -0.0000) 
Choice of magnetic origin   ... GIAO
Position of magnetic origin ... (  0.0000,  0.0000,  0.0000) 

Calculating integrals                     ... Electric Dipole (Length)     done (  0.0 sec)
Calculating integrals                     ... Geometrical perturbation right hand sides

-----------------------
GEOMETRIC PERTURBATIONS (12 nuclei)
-----------------------

MaxCore                            ...   1024 MB
Number of batches                  ...      1

BATCH   0: Atoms    0 -   11 ( 36 perturbations)
   => H(core) and overlap derivative integrals     ... done (     0.2 sec)
   => Making and storing internal U-coefficients   ... done (     0.3 sec)
   => RI-J derivative integrals                    ... done (     2.2 sec)
   => RI-J response operators                      ... done (     0.5 sec)
   => XC derivative integrals                      ... done (   147.7 sec)
   => XC response operators                        ... done (    39.7 sec)
   => Completing and storing right hand sides      ... done (     0.3 sec)
   => Total time for right hand sides = 192.8 sec

  geometrical perturbations done (192.8 sec)

Property integrals calculated in 192.8 sec

Maximum memory used throughout the entire PROPINT-calculation: 88.5 MB


-------------------------------------------------------------------------------
                          DFT DISPERSION CORRECTION                            
                                                                               
                                DFTD4 V3.4.0                                   
-------------------------------------------------------------------------------
The R2SCAN3C composite method is recognized
Using three-body term ABC
Active option DFTDOPT                   ...         5   

-------------------------   ----------------
Dispersion correction           -0.003315289
-------------------------   ----------------

------------------   -----------------
gCP correction             0.002381774
------------------   -----------------

-------------------------   --------------------
FINAL SINGLE POINT ENERGY      -232.196258695182
-------------------------   --------------------

------------------------------------------------------------------------------
                            ORCA SCF RESPONSE CALCULATION
------------------------------------------------------------------------------

GBWName                                 ... vacuum_censo.gbw
Number of atoms                         ...     12
Number of basis functions               ...    222
Max core memory                         ...   1024 MB

Electric field perturbation             ...  NO
Quadrupolar field perturbation          ...  NO
Magnetic field perturbation (no GIAO)   ...  NO
Magnetic field perturbation (with GIAO) ...  NO
Linear momentum (velocity) perturbation ...  NO
Spin-orbit coupling perturbation        ...  NO
Choice of electric origin               ... Center of mass
Position of electric origin             ...     0.000000     0.000004    -0.000017
Choice of magnetic origin               ... GIAO
Position of magnetic origin             ...     0.000000     0.000000     0.000000
Nuclear geometric perturbations         ... YES (  36 perturbations)
Nucleus-orbit perturbations             ...  NO (   0 perturbations)
Spin-dipole/Fermi contact perturbations ...  NO (   0 perturbations)

Total number of real perturbations      ...     36
Total number of imaginary perturbations ...      0
Total number of triplet perturbations   ...      0
Total number of SOC perturbations       ...      0


                                **********************
                                * REAL PERTURBATIONS *
                                **********************



-------------------
SHARK CP-SCF DRIVER
-------------------

Dimension of the orbital basis          ...    222
Dimension of the CPSCF-problem          ...   4221
Number of operators                     ...      1
Max. number of iterations               ...    128
Convergence Tolerance                   ... 1.0e-03
Number of perturbations                 ...     36
Perturbation type                       ... REAL

----------------------------
POPLE LINEAR EQUATION SOLVER
----------------------------

  ITERATION   0:   ||err||_max =   3.3054e-01 (  11.5 sec   0/ 36 done)
  ITERATION   1:   ||err||_max =   4.4840e-02 (  10.9 sec   0/ 36 done)
  ITERATION   2:   ||err||_max =   1.3930e-02 (  11.3 sec  12/ 36 done)
  ITERATION   3:   ||err||_max =   2.8343e-03 (   9.2 sec  18/ 36 done)
  ITERATION   4:   ||err||_max =   1.0672e-03 (   7.1 sec  32/ 36 done)
  ITERATION   5:   ||err||_max =   2.4763e-04 (   1.8 sec  36/ 36 done)

CP-SCF equations solved in  53.7 sec
Response densities calculated in   0.1 sec

Maximum memory used throughout the entire SCFRESP-calculation: 50.5 MB

------------------------------------------------------------------------------
                              ORCA PROPERTY CALCULATIONS
------------------------------------------------------------------------------

GBWName                                 ... vacuum_censo.gbw
Number of atoms                         ...     12
Number of basis functions               ...    222
Max core memory                         ...   1024 MB

Electric properties:
Dipole moment                           ... YES
Quadrupole moment                       ...  NO
Static polarizability (Dipole/Dipole)   ...  NO
Static polarizability (Dipole/Quad.)    ...  NO
Static polarizability (Quad./Quad.)     ...  NO
Static polarizability (Velocity)        ...  NO

Atomic electric properties:
Dipole moment                           ...  NO
Quadrupole moment                       ...  NO
Static polarizability                   ...  NO

Choice of electric origin               ... Center of mass
Position of electric origin             ...     0.000000     0.000004    -0.000017

General magnetic properties:
Magnetizability                         ...  NO

EPR properties:
g-Tensor (aka g-matrix)                 ...  NO
Zero-Field splitting spin-orbit         ...  NO
Zero-field splitting spin-spin          ...  NO
Hyperfine couplings                     ...  NO (   0 nuclei)
Quadrupole couplings                    ...  NO (   0 nuclei)
Contact density                         ...  NO (   0 nuclei)

NMR properties:
Chemical shifts                         ...  NO (   0 nuclei)
Spin-rotation constants                 ...  NO (   0 nuclei)
Spin-spin couplings                     ...  NO (   0 nuclei,    0 pairs)

Choice of magnetic origin               ... GIAO
Position of magnetic origin             ...     0.000000     0.000000     0.000000

Properties with geometric perturbations:
SCF Hessian                             ... YES
IR spectrum                             ... YES
VCD spectrum                            ...  NO
X-ray spectroscopy properties:
SCF XES/XAS/RIXS spectra                ...  NO


-------------
DIPOLE MOMENT
-------------

Method             : SCF
Type of density    : Electron Density
Multiplicity       :   1
Irrep              :   0
Energy             :  -232.1953251803228966 Eh
Relativity type    : 
Basis              : AO
                                X                 Y                 Z
Electronic contribution:      0.000021883       0.000014489      -0.000002119
Nuclear contribution   :     -0.000037091      -0.000023984       0.000002967
                        -----------------------------------------
Total Dipole Moment    :     -0.000015208      -0.000009495       0.000000849
                        -----------------------------------------
Magnitude (a.u.)       :      0.000017948
Magnitude (Debye)      :      0.000045621



--------------------
Rotational spectrum 
--------------------
 
Rotational constants in cm-1:             0.190675             0.190662             0.095334 
Rotational constants in MHz :          5716.304592          5715.905509          2858.052522 

Dipole components along the rotational axes: 
x,y,z [a.u.] :    -0.000018    -0.000000     0.000001 
x,y,z [Debye]:    -0.000046    -0.000000     0.000002 

 

Dipole moment calculation done in   0.0 sec 

-----------
SCF HESSIAN
-----------

Occupied/Occupied contributions to the Hessian:
   => Occupied/Occupied contributions              ... done (  0.0 sec)
Perturbed density contributions to the Hessian:
   => Perturbed density contributions              ... done (  0.0 sec)
Explicit contributions to the Hessian:
   => Nuclear repulsion Hessian                    ... done (  0.0 sec)
   => HCore and overlap Hessian                    ... done (  5.4 sec)
   => RI-J Hessian                                 ... done (  6.0 sec)
   => XC-Hessian                                   ... done ( 44.8 sec)
   => Van der Waals-Hessian                        ... done (  2.1 sec)
   => GCP-Hessian                                  ... done (  0.1 sec)
   => Explicit contributions done
Dipole derivatives                                 ... done (  0.1 sec)
Mass weighting the Hessian           ... done
Calculating normal modes             ... done
Scaling frequencies                  ... done

-----------------------
VIBRATIONAL FREQUENCIES
-----------------------

Scaling factor for frequencies =  1.000000000  (already applied!)

     0:       0.00 cm**-1
     1:       0.00 cm**-1
     2:       0.00 cm**-1
     3:       0.00 cm**-1
     4:       0.00 cm**-1
     5:       0.00 cm**-1
     6:     407.89 cm**-1
     7:     408.52 cm**-1
     8:     624.61 cm**-1
     9:     624.75 cm**-1
    10:     674.70 cm**-1
    11:     728.48 cm**-1
    12:     855.89 cm**-1
    13:     856.09 cm**-1
    14:     959.86 cm**-1
    15:     960.13 cm**-1
    16:     995.89 cm**-1
    17:    1012.61 cm**-1
    18:    1036.80 cm**-1
    19:    1059.83 cm**-1
    20:    1060.36 cm**-1
    21:    1174.53 cm**-1
    22:    1198.22 cm**-1
    23:    1198.44 cm**-1
    24:    1349.55 cm**-1
    25:    1375.62 cm**-1
    26:    1509.06 cm**-1
    27:    1509.19 cm**-1
    28:    1629.56 cm**-1
    29:    1630.13 cm**-1
    30:    3151.17 cm**-1
    31:    3159.64 cm**-1
    32:    3160.19 cm**-1
    33:    3175.16 cm**-1
    34:    3175.65 cm**-1
    35:    3185.40 cm**-1


------------
NORMAL MODES
------------

These modes are the Cartesian displacements weighted by the diagonal matrix
M(i,i)=1/sqrt(m[i]) where m[i] is the mass of the displaced atom
Thus, these vectors are normalized but *not* orthogonal

                  0          1          2          3          4          5    
      0       0.000000   0.000000   0.000000   0.000000   0.000000   0.000000
      1       0.000000   0.000000   0.000000   0.000000   0.000000   0.000000
      2       0.000000   0.000000   0.000000   0.000000   0.000000   0.000000
      3       0.000000   0.000000   0.000000   0.000000   0.000000   0.000000
      4       0.000000   0.000000   0.000000   0.000000   0.000000   0.000000
      5       0.000000   0.000000   0.000000   0.000000   0.000000   0.000000
      6       0.000000   0.000000   0.000000   0.000000   0.000000   0.000000
      7       0.000000   0.000000   0.000000   0.000000   0.000000   0.000000
      8       0.000000   0.000000   0.000000   0.000000   0.000000   0.000000
      9       0.000000   0.000000   0.000000   0.000000   0.000000   0.000000
     10       0.000000   0.000000   0.000000   0.000000   0.000000   0.000000
     11       0.000000   0.000000   0.000000   0.000000   0.000000   0.000000
     12       0.000000   0.000000   0.000000   0.000000   0.000000   0.000000
     13       0.000000   0.000000   0.000000   0.000000   0.000000   0.000000
     14       0.000000   0.000000   0.000000   0.000000   0.000000   0.000000
     15       0.000000   0.000000   0.000000   0.000000   0.000000   0.000000
     16       0.000000   0.000000   0.000000   0.000000   0.000000   0.000000
     17       0.000000   0.000000   0.000000   0.000000   0.000000   0.000000
     18       0.000000   0.000000   0.000000   0.000000   0.000000   0.000000
     19       0.000000   0.000000   0.000000   0.000000   0.000000   0.000000
     20       0.000000   0.000000   0.000000   0.000000   0.000000   0.000000
     21       0.000000   0.000000   0.000000   0.000000   0.000000   0.000000
     22       0.000000   0.000000   0.000000   0.000000   0.000000   0.000000
     23       0.000000   0.000000   0.000000   0.000000   0.000000   0.000000
     24       0.000000   0.000000   0.000000   0.000000   0.000000   0.000000
     25       0.000000   0.000000   0.000000   0.000000   0.000000   0.000000
     26       0.000000   0.000000   0.000000   0.000000   0.000000   0.000000
     27       0.000000   0.000000   0.000000   0.000000   0.000000   0.000000
     28       0.000000   0.000000   0.000000   0.000000   0.000000   0.000000
     29       0.000000   0.000000   0.000000   0.000000   0.000000   0.000000
     30       0.000000   0.000000   0.000000   0.000000   0.000000   0.000000
     31       0.000000   0.000000   0.000000   0.000000   0.000000   0.000000
     32       0.000000   0.000000   0.000000   0.000000   0.000000   0.000000
     33       0.000000   0.000000   0.000000   0.000000   0.000000   0.000000
     34       0.000000   0.000000   0.000000   0.000000   0.000000   0.000000
     35       0.000000   0.000000   0.000000   0.000000   0.000000   0.000000
                  6          7          8          9         10         11    
      0       0.000000  -0.000001   0.248783  -0.187341  -0.000000  -0.000001
      1       0.000001  -0.000001   0.016170  -0.234112   0.000002   0.000003
      2       0.233508  -0.045749   0.000000   0.000001   0.034231  -0.208739
      3       0.000000  -0.000001   0.039311  -0.150059   0.000001  -0.000001
      4      -0.000001  -0.000002  -0.353495  -0.053920   0.000003  -0.000002
      5      -0.156406  -0.179285   0.000002   0.000002   0.034044   0.208677
      6      -0.000000   0.000003  -0.187663  -0.267929   0.000003   0.000002
      7       0.000001  -0.000001  -0.064587   0.202085  -0.000001  -0.000000
      8      -0.077128   0.224989   0.000002   0.000003   0.034171  -0.208707
      9       0.000001   0.000000  -0.248780   0.187334   0.000001  -0.000001
     10      -0.000001   0.000001  -0.016165   0.234110  -0.000002   0.000002
     11       0.233505  -0.045749   0.000001   0.000001   0.034184   0.208760
     12      -0.000001   0.000000  -0.039317   0.150061  -0.000001  -0.000002
     13       0.000001   0.000002   0.353492   0.053911  -0.000003  -0.000002
     14      -0.156399  -0.179289   0.000002   0.000001   0.034022  -0.208687
     15      -0.000000  -0.000002   0.187671   0.267933  -0.000003   0.000003
     16      -0.000001   0.000000   0.064584  -0.202080   0.000001  -0.000000
     17      -0.077135   0.224988   0.000001   0.000002   0.034196   0.208697
     18       0.000001  -0.000001   0.079790  -0.314784   0.000003  -0.000000
     19       0.000002  -0.000001   0.273106  -0.037264  -0.000005   0.000002
     20       0.516373  -0.101025  -0.000017  -0.000018  -0.407209  -0.350509
     21      -0.000002  -0.000002  -0.009692   0.232707  -0.000006  -0.000000
     22       0.000001  -0.000000  -0.354864  -0.032485   0.000005  -0.000006
     23      -0.345595  -0.396317  -0.000019  -0.000020  -0.406665   0.351090
     24      -0.000000   0.000001  -0.026108  -0.334229   0.000004   0.000007
     25      -0.000000   0.000001   0.253576   0.068317  -0.000005  -0.000003
     26      -0.170410   0.497858  -0.000019  -0.000022  -0.406726  -0.350996
     27       0.000003   0.000000  -0.079816   0.314752  -0.000006   0.000001
     28      -0.000001   0.000001  -0.273053   0.037300   0.000004   0.000002
     29       0.516286  -0.101006  -0.000017  -0.000020  -0.406901   0.350512
     30       0.000000  -0.000000   0.009654  -0.232674   0.000004  -0.000001
     31      -0.000001   0.000001   0.354861   0.032462  -0.000005  -0.000006
     32      -0.345561  -0.396289  -0.000018  -0.000018  -0.406517  -0.351095
     33      -0.000001   0.000002   0.026119   0.334246  -0.000007   0.000008
     34       0.000001  -0.000001  -0.253608  -0.068272   0.000005  -0.000003
     35      -0.170436   0.497900  -0.000017  -0.000020  -0.406890   0.350988
                 12         13         14         15         16         17    
      0      -0.000002  -0.000001  -0.000001  -0.000000   0.000002  -0.231081
      1      -0.000000  -0.000001  -0.000000   0.000000  -0.000003  -0.151118
      2       0.076162  -0.038449  -0.104580  -0.012566   0.056859   0.000001
      3      -0.000000  -0.000001   0.000001  -0.000000   0.000002   0.015056
      4       0.000001   0.000003   0.000000   0.000000   0.000004  -0.275923
      5       0.004731  -0.085149   0.063214  -0.084316  -0.057046   0.000002
      6       0.000002   0.000002   0.000001   0.000001  -0.000005   0.246688
      7      -0.000001  -0.000002   0.000000  -0.000001   0.000001  -0.124676
      8      -0.071340  -0.046694   0.041397   0.096871   0.057112  -0.000004
      9      -0.000002  -0.000001  -0.000001  -0.000000   0.000001   0.231173
     10      -0.000000  -0.000001  -0.000000  -0.000000  -0.000003   0.151177
     11      -0.076134   0.038431  -0.104512  -0.012552  -0.057031   0.000000
     12      -0.000000  -0.000001  -0.000000  -0.000001   0.000003  -0.015135
     13       0.000002   0.000003   0.000000   0.000000   0.000004   0.275970
     14      -0.004797   0.085128   0.063083  -0.084375   0.057126   0.000002
     15       0.000003   0.000003   0.000000   0.000001  -0.000005  -0.246666
     16      -0.000001  -0.000002  -0.000001   0.000000   0.000001   0.124591
     17       0.071320   0.046760   0.041534   0.096852  -0.057020  -0.000002
     18      -0.000001  -0.000001  -0.000001  -0.000000   0.000010  -0.251950
     19      -0.000004   0.000001   0.000004   0.000000  -0.000019  -0.163516
     20      -0.510152   0.257608   0.563596   0.067729  -0.403166  -0.000001
     21      -0.000002   0.000004  -0.000001   0.000003   0.000015   0.015701
     22       0.000001  -0.000000   0.000003  -0.000003   0.000003  -0.300174
     23      -0.031403   0.569850  -0.341027   0.454338   0.404373   0.000005
     24       0.000002   0.000000   0.000002   0.000002  -0.000007   0.268996
     25       0.000002  -0.000002  -0.000000  -0.000004  -0.000004  -0.134229
     26       0.477430   0.312896  -0.223121  -0.521754  -0.404737  -0.000005
     27       0.000003  -0.000004   0.000005   0.000001   0.000013   0.252043
     28      -0.000002   0.000001  -0.000003  -0.000001  -0.000018   0.163592
     29       0.510166  -0.257595   0.563125   0.067632   0.404151   0.000001
     30      -0.000003   0.000001   0.000001  -0.000003   0.000014  -0.016101
     31       0.000001   0.000000  -0.000002   0.000003   0.000003   0.300208
     32       0.031848  -0.569825  -0.340143   0.454729  -0.404833   0.000001
     33      -0.000001  -0.000002  -0.000002  -0.000005  -0.000004  -0.269110
     34       0.000003  -0.000002   0.000001   0.000004  -0.000006   0.133863
     35      -0.477196  -0.313257  -0.224044  -0.521634   0.404208  -0.000000
                 18         19         20         21         22         23    
      0      -0.244074  -0.052594   0.095468  -0.017957  -0.030612  -0.016691
      1      -0.158662  -0.094258  -0.017735   0.027202   0.043494   0.030864
      2       0.000002  -0.000003  -0.000004   0.000000   0.000000   0.000000
      3      -0.016509   0.082656  -0.016358   0.032571  -0.003983   0.063410
      4       0.288563   0.018944   0.118234   0.001853   0.003480   0.003671
      5       0.000002   0.000003   0.000003   0.000000  -0.000000  -0.000000
      6       0.260767  -0.082441  -0.075793  -0.014603   0.026956  -0.009948
      7      -0.130547   0.078543  -0.048043  -0.029055   0.050067  -0.026941
      8       0.000002  -0.000003  -0.000003  -0.000000   0.000000   0.000000
      9      -0.244073  -0.052553   0.095447  -0.017944   0.030632   0.016721
     10      -0.158662  -0.094236  -0.017758   0.027183  -0.043543  -0.030883
     11       0.000002   0.000004   0.000003  -0.000000   0.000000   0.000000
     12      -0.016522   0.082657  -0.016357   0.032560   0.003947  -0.063442
     13       0.288563   0.019011   0.118200   0.001843  -0.003473  -0.003675
     14      -0.000002  -0.000004  -0.000003  -0.000000  -0.000000   0.000000
     15       0.260772  -0.082489  -0.075745  -0.014618  -0.026938   0.009948
     16      -0.130536   0.078568  -0.048062  -0.029061  -0.050026   0.026960
     17      -0.000005   0.000004   0.000003   0.000000   0.000000  -0.000000
     18      -0.243816   0.092887   0.301173  -0.222953  -0.263715  -0.170033
     19      -0.152082  -0.328731  -0.323481   0.340776   0.399956   0.265467
     20      -0.000001   0.000013   0.000012  -0.000003  -0.000004  -0.000003
     21      -0.017683   0.538285  -0.071186   0.406405  -0.033260   0.571891
     22       0.284479   0.045184   0.123172   0.022638   0.001954   0.031926
     23      -0.000026  -0.000014  -0.000018  -0.000003   0.000001  -0.000004
     24       0.259377  -0.006961  -0.269662  -0.183478   0.232935  -0.113240
     25      -0.124811   0.244304  -0.424250  -0.362992   0.457223  -0.231310
     26      -0.000034   0.000018   0.000015   0.000001  -0.000002   0.000002
     27      -0.243813   0.092910   0.301122  -0.222775   0.263790   0.170094
     28      -0.152085  -0.328672  -0.323461   0.340504  -0.400089  -0.265531
     29      -0.000010  -0.000015  -0.000011   0.000004  -0.000005  -0.000003
     30      -0.017790   0.538248  -0.071211   0.406251   0.033067  -0.571983
     31       0.284473   0.045271   0.123132   0.022634  -0.001955  -0.031951
     32       0.000022   0.000014   0.000017   0.000002   0.000001  -0.000002
     33       0.259426  -0.007025  -0.269615  -0.183552  -0.232845   0.113285
     34      -0.124715   0.244325  -0.424317  -0.363148  -0.457075   0.231439
     35       0.000037  -0.000019  -0.000014  -0.000001  -0.000001   0.000002
                 24         25         26         27         28         29    
      0       0.161578   0.033000   0.066352   0.090356   0.133117  -0.173851
      1      -0.246728  -0.050444  -0.130580   0.028859   0.070591   0.277200
      2       0.000002   0.000000  -0.000002  -0.000000  -0.000000  -0.000001
      3      -0.295285   0.060221   0.090007  -0.116155  -0.285833   0.158846
      4      -0.016792   0.003335   0.076274   0.053266  -0.085556  -0.124535
      5       0.000002  -0.000000   0.000001   0.000000   0.000002  -0.000000
      6       0.133248   0.027239  -0.100364  -0.034127   0.196377  -0.033879
      7       0.263785   0.053830  -0.005579  -0.138115   0.210384   0.213731
      8      -0.000001  -0.000000  -0.000001  -0.000000  -0.000002   0.000001
      9       0.161579  -0.032986   0.066366   0.090361  -0.133093   0.173812
     10      -0.246738   0.050424  -0.130597   0.028853  -0.070585  -0.277143
     11      -0.000003   0.000000   0.000001  -0.000000   0.000000  -0.000002
     12      -0.295287  -0.060213   0.090008  -0.116167   0.285810  -0.158816
     13      -0.016779  -0.003319   0.076282   0.053258   0.085574   0.124514
     14      -0.000001   0.000000  -0.000002   0.000000   0.000001   0.000000
     15       0.133264  -0.027257  -0.100356  -0.034110  -0.196381   0.033888
     16       0.263775  -0.053832  -0.005576  -0.138112  -0.210414  -0.213759
     17       0.000000   0.000000   0.000002   0.000000  -0.000000   0.000000
     18      -0.151977  -0.221114  -0.306666   0.042392   0.127623   0.235386
     19       0.232741   0.338307   0.433979   0.138043   0.104371  -0.347879
     20      -0.000002  -0.000002  -0.000005  -0.000002  -0.000001   0.000002
     21       0.284754  -0.403217  -0.349688   0.408848   0.376171  -0.186511
     22       0.015350  -0.022414   0.067094   0.095233  -0.055121  -0.156030
     23      -0.000004   0.000003   0.000001  -0.000005  -0.000000   0.000006
     24      -0.127439  -0.182004  -0.010940   0.262754  -0.081996  -0.225057
     25      -0.251506  -0.359920   0.212482   0.433960  -0.356375  -0.138511
     26       0.000002   0.000001   0.000002  -0.000003  -0.000002   0.000006
     27      -0.152232   0.221106  -0.306749   0.042377  -0.127609  -0.235394
     28       0.233120  -0.338292   0.434107   0.138074  -0.104343   0.347882
     29       0.000004  -0.000003   0.000006   0.000001  -0.000002   0.000003
     30       0.284950   0.403210  -0.349718   0.408918  -0.376151   0.186562
     31       0.015398   0.022448   0.067085   0.095248   0.055119   0.156020
     32       0.000000   0.000001   0.000000   0.000004   0.000002   0.000004
     33      -0.127298   0.181974  -0.010952   0.262708   0.081997   0.225031
     34      -0.251329   0.359941   0.212462   0.433895   0.356417   0.138445
     35       0.000000   0.000000  -0.000002   0.000002  -0.000003   0.000005
                 30         31         32         33         34         35    
      0       0.027212   0.009066   0.039527   0.005573  -0.042708  -0.032084
      1       0.017754   0.004139   0.026207   0.007472  -0.027276  -0.020962
      2      -0.000000   0.000000  -0.000000  -0.000000   0.000000   0.000000
      3       0.001919  -0.003026   0.000721   0.000169   0.004247   0.002119
      4      -0.033492   0.035809  -0.033503  -0.039957  -0.031527  -0.037034
      5      -0.000000   0.000000  -0.000000   0.000000  -0.000000  -0.000000
      6      -0.030848   0.041484   0.014317   0.042908  -0.014529   0.032457
      7       0.015614  -0.021507  -0.005586  -0.020431   0.010766  -0.016408
      8      -0.000000   0.000000   0.000000  -0.000000   0.000000   0.000000
      9       0.028013  -0.008995  -0.039337   0.005638  -0.042963   0.031278
     10       0.018276  -0.004061  -0.026090   0.007500  -0.027444   0.020434
     11      -0.000000   0.000000   0.000000   0.000000   0.000000  -0.000000
     12       0.001918   0.003049  -0.000653   0.000137   0.004284  -0.002042
     13      -0.033947  -0.036375   0.032725  -0.039448  -0.032359   0.036582
     14       0.000000   0.000000  -0.000000  -0.000000   0.000000  -0.000000
     15      -0.030355  -0.041340  -0.015140   0.043079  -0.013708  -0.032868
     16       0.015392   0.021451   0.006024  -0.020524   0.010361   0.016673
     17       0.000000   0.000000   0.000000   0.000000   0.000000   0.000000
     18      -0.329012  -0.098280  -0.467502  -0.080117   0.478171   0.352028
     19      -0.215056  -0.061830  -0.306144  -0.058047   0.311580   0.230135
     20       0.000001   0.000000   0.000002  -0.000000  -0.000002  -0.000001
     21      -0.022582   0.024841  -0.020362  -0.021916  -0.023437  -0.022600
     22       0.404630  -0.422356   0.393376   0.448871   0.355814   0.405516
     23       0.000003  -0.000003   0.000002   0.000003   0.000002   0.000002
     24       0.372036  -0.490238  -0.161143  -0.477655   0.176632  -0.355154
     25      -0.188177   0.248665   0.079263   0.239664  -0.094372   0.179636
     26       0.000002  -0.000003  -0.000001  -0.000002   0.000001  -0.000002
     27      -0.338438   0.097220   0.464953  -0.080723   0.480705  -0.342945
     28      -0.221218   0.061090   0.304489  -0.058423   0.313240  -0.224198
     29       0.000002  -0.000001  -0.000003   0.000001  -0.000003   0.000002
     30      -0.022857  -0.025204   0.019821  -0.021599  -0.023949   0.022254
     31       0.409959   0.428861  -0.384084   0.442982   0.365045  -0.400415
     32      -0.000002  -0.000002   0.000002  -0.000002  -0.000002   0.000002
     33       0.366364   0.488828   0.170962  -0.479799   0.167513   0.360009
     34      -0.185328  -0.247956  -0.084255   0.240735  -0.089765  -0.182159
     35      -0.000005  -0.000006  -0.000002   0.000006  -0.000002  -0.000005


-----------
IR SPECTRUM
-----------

 Mode   freq       eps      Int      T**2         TX        TY        TZ
       cm**-1   L/(mol*cm) km/mol    a.u.
----------------------------------------------------------------------------
  6:    407.89   0.000000    0.00  0.000000  ( 0.000002  0.000002 -0.000137)
  7:    408.52   0.000000    0.00  0.000000  (-0.000002  0.000002 -0.000156)
  8:    624.61   0.000000    0.00  0.000000  (-0.000001  0.000000 -0.000002)
  9:    624.75   0.000000    0.00  0.000000  ( 0.000000  0.000001 -0.000002)
 10:    674.70   0.021877  110.56  0.010119  ( 0.000001  0.000000 -0.100591)
 11:    728.48   0.000000    0.00  0.000000  ( 0.000036 -0.000037 -0.000000)
 12:    855.89   0.000000    0.00  0.000000  ( 0.000005 -0.000004  0.000024)
 13:    856.09   0.000000    0.00  0.000000  ( 0.000004  0.000005 -0.000011)
 14:    959.86   0.000000    0.00  0.000000  ( 0.000001  0.000000 -0.000055)
 15:    960.13   0.000000    0.00  0.000000  ( 0.000001 -0.000001  0.000110)
 16:    995.89   0.000000    0.00  0.000000  (-0.000006  0.000006 -0.000000)
 17:   1012.61   0.000000    0.00  0.000000  (-0.000003 -0.000002  0.000000)
 18:   1036.80   0.000000    0.00  0.000000  (-0.000052  0.000072 -0.000000)
 19:   1059.83   0.001181    5.97  0.000348  ( 0.018624 -0.000966 -0.000000)
 20:   1060.36   0.001058    5.34  0.000311  (-0.001192 -0.017603 -0.000000)
 21:   1174.53   0.000003    0.01  0.000001  (-0.000854 -0.000043  0.000000)
 22:   1198.22   0.000000    0.00  0.000000  ( 0.000001 -0.000000 -0.000000)
 23:   1198.44   0.000000    0.00  0.000000  (-0.000000 -0.000001 -0.000000)
 24:   1349.55   0.000000    0.00  0.000000  (-0.000154  0.000058  0.000000)
 25:   1375.62   0.000000    0.00  0.000000  (-0.000001  0.000002 -0.000000)
 26:   1509.06   0.001376    6.96  0.000285  (-0.011839  0.012020  0.000000)
 27:   1509.19   0.001410    7.13  0.000292  ( 0.012652  0.011470 -0.000000)
 28:   1629.56   0.000000    0.00  0.000000  (-0.000000 -0.000000  0.000000)
 29:   1630.13   0.000000    0.00  0.000000  (-0.000000  0.000000 -0.000000)
 30:   3151.17   0.000001    0.01  0.000000  (-0.000370 -0.000093  0.000000)
 31:   3159.64   0.000000    0.00  0.000000  ( 0.000044 -0.000100 -0.000000)
 32:   3160.19   0.000000    0.00  0.000000  (-0.000106 -0.000041  0.000000)
 33:   3175.16   0.007108   35.92  0.000699  ( 0.018050 -0.019307 -0.000000)
 34:   3175.65   0.007190   36.34  0.000707  (-0.019701 -0.017845  0.000000)
 35:   3185.40   0.000001    0.00  0.000000  (-0.000211 -0.000130  0.000000)

* The epsilon (eps) is given for a Dirac delta lineshape.
** The dipole moment derivative (T) already includes vibrational overlap.

The first frequency considered to be a vibration is 6
The total number of vibrations considered is 30


--------------------------
THERMOCHEMISTRY AT 298.15K
--------------------------

Temperature         ...   298.15 K
Pressure            ...     1.00 atm
Total Mass          ...    78.11 AMU
Quasi RRHO          ...     True
Cut-Off Frequency   ...     1.00 cm^-1

Throughout the following assumptions are being made:
  (1) The electronic state is orbitally nondegenerate
  (2) There are no thermally accessible electronically excited states
  (3) Hindered rotations indicated by low frequency modes are not
      treated as such but are treated as vibrations and this may
      cause some error
  (4) All equations used are the standard statistical mechanics
      equations for an ideal gas
  (5) All vibrations are strictly harmonic

freq.     407.89  E(vib)   ...       0.19 
freq.     408.52  E(vib)   ...       0.19 
freq.     624.61  E(vib)   ...       0.09 
freq.     624.75  E(vib)   ...       0.09 
freq.     674.70  E(vib)   ...       0.08 
freq.     728.48  E(vib)   ...       0.06 
freq.     855.89  E(vib)   ...       0.04 
freq.     856.09  E(vib)   ...       0.04 
freq.     959.86  E(vib)   ...       0.03 
freq.     960.13  E(vib)   ...       0.03 
freq.     995.89  E(vib)   ...       0.02 
freq.    1012.61  E(vib)   ...       0.02 
freq.    1036.80  E(vib)   ...       0.02 
freq.    1059.83  E(vib)   ...       0.02 
freq.    1060.36  E(vib)   ...       0.02 
freq.    1174.53  E(vib)   ...       0.01 
freq.    1198.22  E(vib)   ...       0.01 
freq.    1198.44  E(vib)   ...       0.01 
freq.    1349.55  E(vib)   ...       0.01 
freq.    1375.62  E(vib)   ...       0.01 
freq.    1509.06  E(vib)   ...       0.00 
freq.    1509.19  E(vib)   ...       0.00 
freq.    1629.56  E(vib)   ...       0.00 
freq.    1630.13  E(vib)   ...       0.00 
freq.    3151.17  E(vib)   ...       0.00 
freq.    3159.64  E(vib)   ...       0.00 
freq.    3160.19  E(vib)   ...       0.00 
freq.    3175.16  E(vib)   ...       0.00 
freq.    3175.65  E(vib)   ...       0.00 
freq.    3185.40  E(vib)   ...       0.00 

------------
INNER ENERGY
------------

The inner energy is: U= E(el) + E(ZPE) + E(vib) + E(rot) + E(trans)
    E(el)   - is the total energy from the electronic structure calculation
              = E(kin-el) + E(nuc-el) + E(el-el) + E(nuc-nuc)
    E(ZPE)  - the the zero temperature vibrational energy from the frequency calculation
    E(vib)  - the the finite temperature correction to E(ZPE) due to population
              of excited vibrational states
    E(rot)  - is the rotational thermal energy
    E(trans)- is the translational thermal energy

Summary of contributions to the inner energy U:
Electronic energy                ...   -232.19625870 Eh
Zero point energy                ...      0.09989296 Eh      62.68 kcal/mol
Thermal vibrational correction   ...      0.00158276 Eh       0.99 kcal/mol
Thermal rotational correction    ...      0.00141627 Eh       0.89 kcal/mol
Thermal translational correction ...      0.00141627 Eh       0.89 kcal/mol
-----------------------------------------------------------------------
Total thermal energy                   -232.09195043 Eh


Summary of corrections to the electronic energy:
(perhaps to be used in another calculation)
Total thermal correction                  0.00441530 Eh       2.77 kcal/mol
Non-thermal (ZPE) correction              0.09989296 Eh      62.68 kcal/mol
-----------------------------------------------------------------------
Total correction                          0.10430826 Eh      65.45 kcal/mol


--------
ENTHALPY
--------

The enthalpy is H = U + kB*T
                kB is Boltzmann's constant
Total thermal energy              ...   -232.09195043 Eh 
Thermal Enthalpy correction       ...      0.00094421 Eh       0.59 kcal/mol
-----------------------------------------------------------------------
Total Enthalpy                    ...   -232.09100622 Eh


Note: Rotational entropy computed according to Herzberg 
Infrared and Raman Spectra, Chapter V,1, Van Nostrand Reinhold, 1945 
Point Group:  D2h, Symmetry Number:   4  
Rotational constants in cm-1:     0.190675     0.190662     0.095334 

Vibrational entropy computed according to the QRRHO of S. Grimme
Chem.Eur.J. 2012 18 9955 using a reference frequency of 100.0 cm-1


-------
ENTROPY
-------

The entropy contributions are T*S = T*(S(el)+S(vib)+S(rot)+S(trans))
     S(el)   - electronic entropy
     S(vib)  - vibrational entropy
     S(rot)  - rotational entropy
     S(trans)- translational entropy
The entropies will be listed as multiplied by the temperature to get
units of energy

Electronic entropy                ...      0.00000000 Eh      0.00 kcal/mol
Vibrational entropy               ...      0.00212520 Eh      1.33 kcal/mol
Rotational entropy                ...      0.01087620 Eh      6.82 kcal/mol
Translational entropy             ...      0.01852142 Eh     11.62 kcal/mol
-----------------------------------------------------------------------
Final entropy term                ...      0.03152282 Eh     19.78 kcal/mol

In case the symmetry of your molecule has not been determined correctly
or in case you have a reason to use a different symmetry number we print 
out the resulting rotational entropy values for sn=1,12:

 non-linear molecules -----------------------------------
|  sn= 1 | S(rot)=       0.01218511 Eh      7.65 kcal/mol|
|  sn= 2 | S(rot)=       0.01153065 Eh      7.24 kcal/mol|
|  sn= 3 | S(rot)=       0.01114782 Eh      7.00 kcal/mol|
|  sn= 4 | S(rot)=       0.01087620 Eh      6.82 kcal/mol|
|  sn= 5 | S(rot)=       0.01066551 Eh      6.69 kcal/mol|
|  sn= 6 | S(rot)=       0.01049336 Eh      6.58 kcal/mol|
|  sn= 7 | S(rot)=       0.01034782 Eh      6.49 kcal/mol|
|  sn= 8 | S(rot)=       0.01022174 Eh      6.41 kcal/mol|
|  sn= 9 | S(rot)=       0.01011053 Eh      6.34 kcal/mol|
|  sn=10 | S(rot)=       0.01001105 Eh      6.28 kcal/mol|
|  sn=11 | S(rot)=       0.00992106 Eh      6.23 kcal/mol|
|  sn=12 | S(rot)=       0.00983891 Eh      6.17 kcal/mol|
 linear molecules ---------------------------------------
|  Dinfh | S(rot)=       0.00754498 Eh      4.73 kcal/mol|
|  Cinfv | S(rot)=       0.00819943 Eh      5.15 kcal/mol|
 --------------------------------------------------------


-------------------
GIBBS FREE ENERGY
-------------------

The Gibbs free energy is G = H - T*S

Total enthalpy                    ...   -232.09100622 Eh 
Total entropy correction          ...     -0.03152282 Eh    -19.78 kcal/mol
-----------------------------------------------------------------------
Final Gibbs free energy         ...   -232.12252904 Eh

For completeness - the Gibbs free energy minus the electronic energy
G-E(el)                           ...      0.07372965 Eh     46.27 kcal/mol


Maximum memory used throughout the entire PROP-calculation: 45.0 MB

--------------------------------
SUGGESTED CITATIONS FOR THIS RUN
--------------------------------

Below you find a list of papers that are relevant to this ORCA run
We neither can nor want to force you to cite these papers, but we appreciate if you do
You receive ORCA, which is the product of decades of hard work by many enthusiastic individuals, for free
The only thing we kindly ask in return is that you cite our papers,
We deeply appreciate it, if you show your appreciation for ORCA by not just citing the generic ORCA reference.

Please note that relegating all ORCA citations to the supporting information does *not* help us.
SI sections are not indexed - citations you put there will not count into any citation statistics
But we need these citations in order to attract the funding resources that allow us to do what we are doing

Therefore, if you are a happy ORCA user, please consider citing a few of the papers listed below in the main body of your paper

In addition to the list printed below, the program has created the file vacuum_censo.bibtex that contains the list in bibtex format
You can import this file easily into all common literature databanks and citation aid programs


List of essential papers. We consider these as the minimum necessary citations

  1. Neese,F.
     Software update: the ORCA program system, version 5.0
     WIRES Comput. Molec. Sci., 2022 12(1)e1606
     doi.org/10.1002/wcms.1606
  2. Grimme,S.; Hansen,A.; Ehlert,S.; Mewes,J.
     r2SCAN-3c: A 'Swiss army knife' composite electronic-structure method
     J. Chem. Phys., 2021 154 064103
     doi.org/10.1063/5.0040021

List of papers to cite with high priority. The work reported in these papers was absolutely
necessary for this run to complete.
Our perspective: the developers of density functionals and basis sets usually get cited in chemistry papers
Good! But without the algorithms to do something with them, the functionals or basis sets would not do anything.
Hence, in our opinion, the algorithm design and method developments papers are equally worthy of getting cited

  1. Neese,F.
     An improvement of the resolution of the identity approximation for the formation of the Coulomb matrix
     J. Comp. Chem., 2003 24(14)1740-1747
     doi.org/10.1002/jcc.10318
  2. Bykov,D.; Petrenko,T.; Izsak,R.; Kossmann,S.; Becker,U.; Valeev,E.; Neese,F.
     Efficient implementation of the analytic second derivatives of Hartree-Fock and hybrid DFT energies: a detailed analysis of different approximations
     Molec. Phys., 2015 113 1961-1977
     doi.org/10.1080/00268976.2015.1025114
  3. Neese,F.
     The SHARK Integral Generation and Digestion System
     J. Comp. Chem., 2022  1-16
     doi.org/10.1002/jcc.26942
  4. Lehtola,S.; Steigemann,C.; Oliveira,M.; Marques,M.
     Recent developments in Libxc - A comprehensive library of functionals for density functional theory
     Software X, 2018 7 
     doi.org/10.1016/j.softx.2017.11.002
  5. Caldeweyher,E.; Bannwarth,C.; Grimme,S.
     Extension of the D3 dispersion coefficient model
     J. Chem. Phys., 2017 147 034112-XXXX
     doi.org/10.1063/1.4993215
  6. Caldeweyher,E.; Ehlert,S.; Hansen,A.; Neugebauer,H.; Spicher,S.; Bannwarth,C.; Grimme,S.
     A generally applicable atomic-charge dependent London dispersion correction
     J. Chem. Phys., 2019 150 154122-XXXX
     doi.org/10.1063/1.5090222
  7. Caldeweyher,E.; Mewes,J.; Ehlert,S.; Grimme,S.
     Extension and evaluation of the D4 London-dispersion model for periodic systems
     Phys. Chem. Chem. Phys., 2020 22(16)8499-8512
     doi.org/10.1039/D0CP00502A

List of suggested additional citations. These are papers that are important in the 'surrounding' of 
of this run, or papers that preceded the highly important papers. If you like your results we are grateful for a citation.

  1. Neese,F.
     The ORCA program system
     WIRES Comput. Molec. Sci., 2012 2(1)73-78
     doi.org/10.1002/wcms.81
  2. Neese,F.
     Software update: the ORCA program system, version 4.0
     WIRES Comput. Molec. Sci., 2018 8(1)1-6
     doi.org/10.1002/wcms.1327
  3. Neese,F.; Wennmohs,F.; Becker,U.; Riplinger,C.
     The ORCA quantum chemistry program package
     J. Chem. Phys., 2020 152 Art. No. L224108
     doi.org/10.1063/5.0004608

List of optional additional citations

  1. Neese,F.
     Approximate second-order SCF convergence for spin unrestricted wavefunctions
     Chem. Phys. Lett., 2000 325(1-3)93-98
     doi.org/10.1016/s0009-2614(00)00662-x

Timings for individual modules:

Sum of individual times          ...      325.978 sec (=   5.433 min)
Startup calculation              ...        0.855 sec (=   0.014 min)   0.3 %
SCF iterations                   ...       18.945 sec (=   0.316 min)   5.8 %
Property integrals               ...      192.917 sec (=   3.215 min)  59.2 %
SCF Response                     ...       54.672 sec (=   0.911 min)  16.8 %
Property calculations            ...       58.589 sec (=   0.976 min)  18.0 %
                             ****ORCA TERMINATED NORMALLY****
TOTAL RUN TIME: 0 days 0 hours 5 minutes 26 seconds 635 msec
