24
 energy: -43.355883477258 gnorm: 0.045879755746 xtb: 6.7.1 (edcfbbe)
C           -2.51613761931227       -0.99355695506354        0.39555139969703
C           -1.10296983561084       -0.48424490460754        0.61648113074906
H           -0.92120487406228       -0.40397559775235        1.70382658879883
C           -0.83341749258657        0.87283272040858       -0.04011601552554
H           -1.00848625758355        0.78680526794166       -1.12080320025531
C            0.61532279335213        1.25003816684049        0.20944000958074
H            0.76356400579534        1.36073667050147        1.29909851170409
C            1.55923829906601        0.16695634115835       -0.29939832304489
H            1.46532410963859        0.09111686414921       -1.39580076704724
C            1.16323219840181       -1.18158583386979        0.29245262904822
H            1.31609967362825       -1.16731866030556        1.38914076994061
O           -0.22240610139660       -1.44838361891185        0.02787425170349
O            1.91472674282801       -2.17031791398721       -0.32511188022814
O            2.89665664062642        0.44264228466786        0.08617049781129
O            0.98065587778725        2.45608620115321       -0.45701196391840
O           -1.64020848212095        1.91190532420330        0.52675027891187
O           -2.87237143468655       -1.02797675248561       -0.98203650207598
H           -3.22555661866658       -0.32204177234769        0.88972078712114
H           -2.60898587043929       -1.98693786647490        0.85978051556019
H            1.75788351871809       -3.00365891466397        0.13436434700283
H            3.07255217993991        1.35622035091042       -0.17166916664717
H            0.36149339040716        3.13500484053737       -0.16162315020519
H           -2.47995448328933        1.92715887086851        0.05496581615921
H           -2.22291211663105       -1.58777941633003       -1.42588589323506
24
 energy: -43.357887545764 gnorm: 0.021767488039 xtb: 6.7.1 (edcfbbe)
C           -2.51809183142536       -0.98607577579309        0.39346044198663
C           -1.09346380043849       -0.48559785874602        0.61836659255234
H           -0.90863791905111       -0.40275700117863        1.70174488183411
C           -0.83124784470975        0.87763789985123       -0.03870795187655
H           -1.00792093833166        0.79004728822407       -1.11775761451773
C            0.62395684636414        1.25820604936679        0.20975079718314
H            0.76787831261777        1.38040225000367        1.29640703032685
C            1.56426870919760        0.16532583200048       -0.29677221130879
H            1.48494955406649        0.09393299649495       -1.39192664302400
C            1.16244307903380       -1.18703396931264        0.29224770702572
H            1.32853921532143       -1.16765422575046        1.38577533039260
O           -0.21810981296788       -1.45398430869406        0.05218921700535
O            1.89860408216073       -2.17795938794877       -0.32459508046409
O            2.88874017458055        0.44340059039802        0.08898115538530
O            0.97447080043708        2.46031139454479       -0.45047334276987
O           -1.64065930042703        1.90735950106068        0.51551664779910
O           -2.85972770113374       -1.02209832008560       -0.97402266526922
H           -3.23161166650580       -0.31325254837813        0.87621815850937
H           -2.61477608005585       -1.98374400508675        0.84194088691085
H            1.73350876118925       -3.01657900411617        0.12189636486981
H            3.06811190496040        1.35318011074240       -0.18168068227641
H            0.34274888170358        3.13240562392023       -0.16661189413705
H           -2.49351511784224        1.89703315294386        0.06749299858502
H           -2.20832006494079       -1.58278058792048       -1.41327945311683
24
 energy: -43.358680545452 gnorm: 0.006283109844 xtb: 6.7.1 (edcfbbe)
C           -2.51814772196455       -0.98173517993553        0.38801203485078
C           -1.08649455798711       -0.48459852688566        0.62752655664588
H           -0.90625968695364       -0.39307722428231        1.70990397702211
C           -0.83165840390039        0.88061709730666       -0.03791418929723
H           -1.00091297326907        0.78571625311132       -1.11781335454749
C            0.62873728165766        1.26685754971700        0.20946648444742
H            0.77057600835769        1.39214131883093        1.29498366630046
C            1.57055331556946        0.16755703459980       -0.29218382762366
H            1.49913606116711        0.09950582233222       -1.38725927084018
C            1.15898412424922       -1.18759835888063        0.29616553177725
H            1.34654290978759       -1.16275003200752        1.38802159290833
O           -0.21648524628126       -1.45346639111575        0.07926779909249
O            1.87890885983581       -2.17710229155238       -0.32871550792272
O            2.88457702602481        0.44044930098986        0.09973986026299
O            0.97172535567178        2.46079855242694       -0.44999980765992
O           -1.64056119809841        1.90343618188535        0.50184506289279
O           -2.84177090392418       -1.01395855233570       -0.97349372395727
H           -3.23074599910996       -0.30603483394185        0.86435778195883
H           -2.61710242556758       -1.97955620406850        0.83315169668376
H            1.69669650246874       -3.02628777926372        0.09248973655754
H            3.07630395738544        1.34351651728471       -0.18738275506718
H            0.32319089446858        3.12686832181481       -0.18826050456976
H           -2.51552304964691        1.85262995253676        0.09422048191693
H           -2.18813188613772       -1.57420283202641       -1.40996865022648
24
 energy: -43.358899767419 gnorm: 0.008763047433 xtb: 6.7.1 (edcfbbe)
C           -2.51785907266625       -0.98060088661530        0.38615343994849
C           -1.08573430133361       -0.48164381821906        0.63427593590470
H           -0.91345308969351       -0.38184281311072        1.71773730615842
C           -0.83125308277250        0.88159551562042       -0.03712531130518
H           -0.99333572983700        0.77821695743928       -1.11833721784587
C            0.62958465960501        1.27165202253932        0.21023916144541
H            0.77105409281297        1.39687742938756        1.29632097626257
C            1.57305595429957        0.17013576809697       -0.28814800092267
H            1.50288795747967        0.10286313478185       -1.38379344173396
C            1.15873975760420       -1.18670842324866        0.29926156108027
H            1.35951853336763       -1.16194354043236        1.39034740256266
O           -0.21596337412692       -1.45139959562532        0.09425016661973
O            1.87093832358514       -2.17469326439662       -0.33537173480025
O            2.88475352660184        0.43792789220275        0.11043609282606
O            0.97067614204971        2.46146095053886       -0.45354806741034
O           -1.64038914413730        1.90499221983251        0.49266890758711
O           -2.83063321717577       -1.01098096447067       -0.97624090406612
H           -3.23214525852943       -0.30535347513737        0.86070374887013
H           -2.61729555657603       -1.97758857915570        0.83379213775857
H            1.67128603093574       -3.03076953729035        0.06576123358205
H            3.08716524706378        1.33581752726429       -0.18596298550458
H            0.31124175565119        3.12401764386875       -0.20887490896008
H           -2.52714375120499        1.82653842569433        0.11252168308097
H           -2.17355815920002       -1.56884489302436       -1.41090650953240
24
 energy: -43.359100245685 gnorm: 0.009362211453 xtb: 6.7.1 (edcfbbe)
C           -2.51654936018261       -0.97991671306881        0.38573980793606
C           -1.08680448058552       -0.47585010169423        0.64369010218500
H           -0.92601011137185       -0.36594678751745        1.72899255557278
C           -0.82969838906301        0.88213449037956       -0.03669075782268
H           -0.98229663457347        0.76730379039246       -1.11970526973534
C            0.62949384557080        1.27672796065897        0.21236521714323
H            0.77093652271709        1.40390057464192        1.29914754878136
C            1.57555452978531        0.17399470283915       -0.28121833605328
H            1.50803827428289        0.10805413434486       -1.37779490650556
C            1.15977401790974       -1.18470046800734        0.30372377536465
H            1.37777005584551       -1.16532959325809        1.39304336170438
O           -0.21573971331495       -1.44865854474319        0.11343795947494
O            1.86276666399471       -2.17029107553738       -0.34719476744988
O            2.88624626945350        0.43556122186579        0.12748624511129
O            0.96919496206421        2.46248671283387       -0.45899801760874
O           -1.64033983199441        1.90979025169459        0.47845362561721
O           -2.81871494592715       -1.01051419980728       -0.97937820238713
H           -3.23620264098073       -0.30800006422523        0.85820156795174
H           -2.61519647116656       -1.97616048473959        0.83680330510140
H            1.63369520268752       -3.03399081470578        0.02434380888015
H            3.10386965051287        1.32566690192862       -0.18095753769134
H            0.29462981394133        3.11922195366005       -0.23904723721266
H           -2.53719460337906        1.79725637644483        0.13313809524763
H           -2.15508438242304       -1.56301452783992       -1.41142127199955
24
 energy: -43.359205416975 gnorm: 0.005750175291 xtb: 6.7.1 (edcfbbe)
C           -2.51501537268637       -0.97970109300776        0.38745196457337
C           -1.08834605193355       -0.47111688100779        0.64863390253614
H           -0.93294191385056       -0.35668405996205        1.73445665779939
C           -0.82781326632487        0.88210793538231       -0.03765493586096
H           -0.97615042787517        0.76098166019802       -1.12115113082371
C            0.62907688284140        1.27897750846386        0.21371520908014
H            0.76991986909191        1.41000076308229        1.30041883268861
C            1.57697555513394        0.17629104922152       -0.27545163571328
H            1.51439837383097        0.11175130252342       -1.37253143036632
C            1.16119266667417       -1.18332989261624        0.30604423485124
H            1.38900124657931       -1.17140181144231        1.39330981072279
O           -0.21574125755677       -1.44734949172900        0.12408191204334
O            1.85826346748761       -2.16770455734389       -0.35635969469166
O            2.88723827241185        0.43536860961689        0.14078814910942
O            0.96830553996448        2.46353010661170       -0.46220255040734
O           -1.64065736732823        1.91413729299484        0.46732937586618
O           -2.81440950484861       -1.01266653439755       -0.97934955119104
H           -3.23986020957814       -0.31147499276183        0.85817857767698
H           -2.61143264325494       -1.97609221552472        0.83942288440368
H            1.60747700581299       -3.03285442174388       -0.00369872643117
H            3.11410589490944        1.31999641212894       -0.17508572330794
H            0.28443128054703        3.11502708262171       -0.25775705480249
H           -2.54010669375717        1.78260671115012        0.14313257455197
H           -2.14577310248759       -1.56067478591823       -1.40956098070164
24
 energy: -43.359266800038 gnorm: 0.002501728219 xtb: 6.7.1 (edcfbbe)
C           -2.51316920717313       -0.97880439856156        0.39035801082950
C           -1.08900771236301       -0.46658906448650        0.65056501115523
H           -0.93402925660426       -0.35041514363214        1.73575302189119
C           -0.82569093403544        0.88235185128211       -0.04084592728722
H           -0.97329199484075        0.75709420824462       -1.12382984791266
C            0.62906265908059        1.28034168570172        0.21356225595001
H            0.76748701055241        1.41685666021570        1.29969476014016
C            1.57897864817690        0.17771294758088       -0.26958363054984
H            1.52496293325538        0.11459052750763       -1.36694373013254
C            1.16269096548892       -1.18256392651083        0.30714104580018
H            1.39592375520963       -1.17915466444692        1.39221593137700
O           -0.21542240742955       -1.44624637643793        0.12965312352536
O            1.85470182279694       -2.16652743578070       -0.36370822719271
O            2.88758008768040        0.43663911766639        0.15481166239161
O            0.96854501957622        2.46466782607677       -0.46467844721018
O           -1.64052443073490        1.91866909885245        0.45573038068147
O           -2.81396500125356       -1.01516934759681       -0.97688004446793
H           -3.24236632810420       -0.31400678074632        0.85936527319633
H           -2.60635647497491       -1.97579374633233        0.84156190722430
H            1.58395068098771       -3.03021613850640       -0.02629842517430
H            3.12075046177385        1.31680990111828       -0.16704756105259
H            0.27744882432858        3.11082618282445       -0.27195275545272
H           -2.54418266156846        1.76854841258597        0.15327567288972
H           -2.14193821602224       -1.55989570007817       -1.40575878901371
24
 energy: -43.359284456851 gnorm: 0.001579459534 xtb: 6.7.1 (edcfbbe)
C           -2.51228720701159       -0.97868551135159        0.39311760453822
C           -1.08855818058919       -0.46522334293243        0.64948928516431
H           -0.93007752034145       -0.34924792565587        1.73375681547906
C           -0.82505621007362        0.88222195853106       -0.04385587428393
H           -0.97305712449374        0.75668031830802       -1.12642399102612
C            0.62886514943068        1.28066535048026        0.21270667995502
H            0.76435743910380        1.42035915890974        1.29848609917540
C            1.58076510214090        0.17831353477574       -0.26611471719962
H            1.53340569797155        0.11585653683177       -1.36357255010878
C            1.16347475741616       -1.18256940996723        0.30682859554592
H            1.39630436035267       -1.18374930279247        1.39121161066015
O           -0.21483970354288       -1.44554185179789        0.12809110053075
O            1.85399973819577       -2.16626119659001       -0.36642178068994
O            2.88729710726580        0.43867096907776        0.16400149990846
O            0.96930925174094        2.46485841146139       -0.46599839052498
O           -1.64082065217159        1.91959257787107        0.45047536547803
O           -2.81637940775959       -1.01670960479348       -0.97358360133637
H           -3.24212683746584       -0.31503208945088        0.86220795605196
H           -2.60305952788556       -1.97589255392118        0.84381353113600
H            1.57229046320837       -3.02886410580907       -0.03715601380975
H            3.12187488457321        1.31745562459765       -0.15992383144691
H            0.27507949893629        3.10861164125032       -0.27831647098491
H           -2.54427176825154        1.76519180574505        0.15603547971161
H           -2.14435106694641       -1.56097529623734       -1.40269373031791
24
 energy: -43.359291171698 gnorm: 0.002434155780 xtb: 6.7.1 (edcfbbe)
C           -2.51118056852979       -0.97807818626099        0.39653597132731
C           -1.08685922775030       -0.46365611317303        0.64742688171913
H           -0.92301764189294       -0.34744784021736        1.73059485854318
C           -0.82448577585049        0.88265933292319       -0.04847179325364
H           -0.97297560349379        0.75537463343483       -1.13057508371723
C            0.62903514918636        1.28177076912516        0.21039007610535
H            0.76010406429983        1.42540185698488        1.29592906757412
C            1.58408914746877        0.17912749024394       -0.26158331594502
H            1.54597760427397        0.11752705297046       -1.35923758586291
C            1.16414639013471       -1.18291705794402        0.30616890634254
H            1.39509955971456       -1.18876151583016        1.39056720652173
O           -0.21397035969246       -1.44417463683080        0.12431859176044
O            1.85353326822886       -2.16603018551635       -0.36893620195669
O            2.88690697204942        0.44111456585107        0.17797332461516
O            0.97091488610150        2.46471766384165       -0.46959058762269
O           -1.64035522810822        1.92155942120715        0.44267070795263
O           -2.81984305893985       -1.01738018715715       -0.96901354382321
H           -3.24039675643007       -0.31508932189952        0.86680826874415
H           -2.59932600050681       -1.97535059004808        0.84701060145110
H            1.55656245176084       -3.02857788507579       -0.05247611591997
H            3.12324543008242        1.31890934548945       -0.14734154812540
H            0.27330850251369        3.10650953966306       -0.28830670245383
H           -2.54926075439597        1.75446169707455        0.16479936203142
H           -2.14911420642111       -1.56194415231576       -1.39950067440196
24
 energy: -43.359299716036 gnorm: 0.001111358486 xtb: 6.7.1 (edcfbbe)
C           -2.51133381253913       -0.97851453495793        0.39773646362174
C           -1.08611784069110       -0.46470995098972        0.64563313247267
H           -0.91959401000569       -0.34922245200546        1.72858000212964
C           -0.82498798301989        0.88240575734742       -0.04947014119202
H           -0.97356522601065        0.75586213188205       -1.13163717615432
C            0.62877396917463        1.28158727868805        0.20944871457861
H            0.75891120724866        1.42531038608975        1.29509200945839
C            1.58477416956403        0.17912757242941       -0.26145740038465
H            1.54820811885668        0.11777321306891       -1.35914853259623
C            1.16393755927543       -1.18336558102693        0.30502952868768
H            1.39182167609404       -1.18884394000356        1.39030909384475
O           -0.21388812663440       -1.44408281415450        0.11977233689432
O            1.85509113391126       -2.16614468245746       -0.36825147573686
O            2.88658440888280        0.44179697290795        0.18037474424760
O            0.97128371654213        2.46404763932339       -0.47089857397943
O           -1.64065859975236        1.92051095213542        0.44319889319989
O           -2.82289430289900       -1.01729181908969       -0.96715348723884
H           -3.23866756761907       -0.31482492019627        0.86985243095291
H           -2.59908985178822       -1.97560793656992        0.84863812322315
H            1.55856790384862       -3.02831589640841       -0.05236330435454
H            3.12162895843352        1.32094841239524       -0.14228679599759
H            0.27536992515504        3.10702164707191       -0.28813965459674
H           -2.54793252774577        1.75715875036520        0.16262751664415
H           -2.15408465447842       -1.56290048930448       -1.39932577611861
24
 energy: -43.359305996019 gnorm: 0.001357782243 xtb: 6.7.1 (edcfbbe)
C           -2.51154177633953       -0.97929604040144        0.39994017291359
C           -1.08468880587662       -0.46662175235059        0.64287126752160
H           -0.91503420789840       -0.35225966970681        1.72581357528951
C           -0.82553582194581        0.88189314782911       -0.05092252752626
H           -0.97316532401333        0.75547491103252       -1.13347863252763
C            0.62844407704668        1.28190128867107        0.20777453654745
H            0.75773094183821        1.42611138901570        1.29370133335634
C            1.58623114757291        0.17961475608907       -0.26101853503780
H            1.55213189710527        0.11903021659003       -1.35892592261837
C            1.16357224912305       -1.18384035645958        0.30327254492721
H            1.38594352660080       -1.18851625820743        1.39049835709730
O           -0.21364886132133       -1.44367306642470        0.11220240973823
O            1.85882561531131       -2.16544559088568       -0.36695645420076
O            2.88638429784590        0.44214367507899        0.18562098105074
O            0.97164412159414        2.46277670069287       -0.47455246870234
O           -1.64123038937680        1.91854480933101        0.44329664486932
O           -2.82896871039157       -1.01643077235934       -0.96352964807253
H           -3.23537168707152       -0.31457075133876        0.87650368028339
H           -2.59873866816884       -1.97617398279041        0.85180386383700
H            1.56079117035623       -3.02901942781191       -0.05559386481830
H            3.12039098845201        1.32401953842758       -0.13111347131080
H            0.27846240021201        3.10865697937277       -0.29017545344324
H           -2.54673702164873        1.75878869299385        0.15896375023180
H           -2.16375291520289       -1.56338273984754       -1.39983546779977
24
 energy: -43.359308028397 gnorm: 0.000512542847 xtb: 6.7.1 (edcfbbe)
C           -2.51141918971108       -0.97914975548683        0.40086626461648
C           -1.08431856768200       -0.46680535763532        0.64225408522183
H           -0.91404402628544       -0.35280632374590        1.72513240614721
C           -0.82524578472366        0.88164235789775       -0.05166069743935
H           -0.97248975983970        0.75464351671831       -1.13422367849549
C            0.62845304521795        1.28208814758610        0.20722038484706
H            0.75760050700172        1.42727757231800        1.29307861461092
C            1.58670804094436        0.17980036935398       -0.26052432031738
H            1.55418088053374        0.11974689819945       -1.35853184437598
C            1.16348879944293       -1.18386794137495        0.30275083436984
H            1.38503775941540       -1.18889808650658        1.39017568649584
O           -0.21362812786755       -1.44384066974743        0.11084997103699
O            1.85965273948852       -2.16512358732368       -0.36715729961784
O            2.88638528774354        0.44185026833163        0.18802832111260
O            0.97157592663416        2.46256232395534       -0.47590635349661
O           -1.64151271206179        1.91834859625430        0.44162010601410
O           -2.83145297214967       -1.01543750195271       -0.96203860433771
H           -3.23447602303529       -0.31467204443392        0.87910826770435
H           -2.59813167754122       -1.97630794320066        0.85236288565292
H            1.56082893799785       -3.02848918254708       -0.05759007355310
H            3.12089654557457        1.32425253176570       -0.12684894596505
H            0.27912296708919        3.10900580089935       -0.29122086904249
H           -2.54778901304355        1.75619316242619        0.15843141858560
H           -2.16728533933985       -1.56228745521067       -1.40001588816905
24
 energy: -43.359309198245 gnorm: 0.000559350927 xtb: 6.7.1 (edcfbbe)
C           -2.51101606070029       -0.97898665186247        0.40238766581265
C           -1.08373990564984       -0.46676234780856        0.64194932840601
H           -0.91274294943375       -0.35274176451364        1.72465359245308
C           -0.82468393418528        0.88118347996845       -0.05275911705209
H           -0.97092852831209        0.75319157132363       -1.13535576852658
C            0.62844740720599        1.28260166110420        0.20689211178990
H            0.75699431447482        1.42947279251715        1.29257428645906
C            1.58750546559957        0.18030577794602       -0.25902641272599
H            1.55755924282324        0.12090305280944       -1.35714461091112
C            1.16381887859416       -1.18371806385360        0.30276756228876
H            1.38511240085369       -1.19011575378277        1.39012857651301
O           -0.21310951228093       -1.44393061227083        0.11042866335318
O            1.86051249384678       -2.16431808954546       -0.36780643243875
O            2.88640460381653        0.44181475077793        0.19213459680021
O            0.97129410423090        2.46257979539579       -0.47731438430408
O           -1.64231360795574        1.91786372860082        0.43843331282389
O           -2.83414989397407       -1.01390477951702       -0.95980179779450
H           -3.23348212375539       -0.31533947444846        0.88274979595263
H           -2.59669399041614       -1.97675712828245        0.85280560978465
H            1.55687240785109       -3.02864149343219       -0.06354882606485
H            3.12225281745514        1.32414814085159       -0.12210100244092
H            0.27824298652146        3.10899157013715       -0.29387582572688
H           -2.54887344549195        1.75230768879052        0.15681912183666
H           -2.17114492731475       -1.56042215436485       -1.39982937468225
24
 energy: -43.359309951628 gnorm: 0.000229100080 xtb: 6.7.1 (edcfbbe)
C           -2.51094454316817       -0.97899054440211        0.40320948158222
C           -1.08345394731256       -0.46697450469308        0.64183007074802
H           -0.91180198736391       -0.35275082219790        1.72441256820325
C           -0.82457532293404        0.88077908882654       -0.05330984289696
H           -0.97022337538321        0.75239888078179       -1.13593257865952
C            0.62834475732726        1.28263366811954        0.20683472059670
H            0.75642868299849        1.42978823486851        1.29249089613502
C            1.58772913771050        0.18041897582963       -0.25858076837898
H            1.55859054430332        0.12128833446651       -1.35670505963451
C            1.16392314431342       -1.18382129823935        0.30260621128098
H            1.38526285136738       -1.19051689883739        1.38995601686585
O           -0.21292496367998       -1.44418492006724        0.11014937049700
O            1.86077508167032       -2.16417499318360       -0.36823494076574
O            2.88628287500094        0.44190487775499        0.19356388906488
O            0.97120505887656        2.46254164393579       -0.47752321862488
O           -1.64287684409286        1.91731304591679        0.43709363974283
O           -2.83562833397826       -1.01242306769683       -0.95868453785361
H           -3.23278261008997       -0.31576185351781        0.88504072137358
H           -2.59614042820168       -1.97721792816551        0.85266098104392
H            1.55694660432736       -3.02827593736157       -0.06475037457291
H            3.12239479097980        1.32425863037345       -0.12043820557206
H            0.27821397470639        3.10900571025107       -0.29391622846646
H           -2.54896771994839        1.75159492469892        0.15438812145356
H           -2.17363918362557       -1.55910755092079       -1.40000026155647
24
 energy: -43.359311004354 gnorm: 0.000346735136 xtb: 6.7.1 (edcfbbe)
C           -2.51069559203569       -0.97913144651528        0.40487117269733
C           -1.08285010291334       -0.46732491288150        0.64195617783530
H           -0.91035103902663       -0.35224041434043        1.72432319871840
C           -0.82443096668765        0.87992223998758       -0.05431584822600
H           -0.96858306989798        0.75025200304620       -1.13697365881506
C            0.62805913109807        1.28269381092497        0.20694822330068
H            0.75523455956474        1.43006359330570        1.29263524169633
C            1.58820762040614        0.18073447814479       -0.25762861488648
H            1.56023019322360        0.12199637097991       -1.35577352710035
C            1.16434563431193       -1.18399827488815        0.30256864487735
H            1.38620926991463       -1.19142587508106        1.38982741497085
O           -0.21237966957335       -1.44464248677502        0.11037429714234
O            1.86124427050783       -2.16375169756250       -0.36921769738535
O            2.88618232661414        0.44232292961056        0.19615778638903
O            0.97087064153695        2.46255897196551       -0.47754262272894
O           -1.64425485929211        1.91619634451784        0.43402403971834
O           -2.83836648851481       -1.00889851626948       -0.95647264810454
H           -3.23138201522206       -0.31709895373730        0.88999859666913
H           -2.59477932012771       -1.97847954701185        0.85191899538776
H            1.55649730940140       -3.02786249070207       -0.06749819852477
H            3.12287774336368        1.32436347803375       -0.11813700149054
H            0.27805983904313        3.10896117088437       -0.29350719400281
H           -2.54921789736892        1.75050372950573        0.14818700533604
H           -2.17858927452282       -1.55598880860190       -1.40056311186835
24
 energy: -43.359311489924 gnorm: 0.000348833292 xtb: 6.7.1 (edcfbbe)
C           -2.51046264460673       -0.97929153594042        0.40619511865899
C           -1.08236933050435       -0.46756473523313        0.64209107781838
H           -0.90936314724964       -0.35193397148592        1.72430503461536
C           -0.82420873514898        0.87925307138520       -0.05512128049111
H           -0.96717954543114        0.74849839225155       -1.13776701990806
C            0.62789643726292        1.28279226998174        0.20717645326184
H            0.75421247229001        1.43029359991683        1.29294847271123
C            1.58866510780717        0.18102682204394       -0.25671427518055
H            1.56170129959422        0.12255318860235       -1.35490718945873