15
 energy: -233.605292135620 gnorm: 0.000796992693 xtb: 6.7.1 (edcfbbe)
C            2.08551727966461        0.05496164756000       -0.07986281351891
C            0.75989663543560        0.72390100909341        0.27808958661742
C           -0.45716437620530        0.03303368131648       -0.33922227076104
H           -0.35043490968813        0.04748878690987       -1.43875246012468
C           -1.75593011579581        0.71974731477932        0.04307094787806
O           -0.57754628158863       -1.32663927130148        0.10827769700629
H            2.93216744701399        0.61159709514185        0.33214483097519
H            2.22147246153049       -0.00091515481726       -1.16631514252906
H            2.14672251884505       -0.96065912240914        0.32649407523930
H            0.77091279549991        1.76634645570651       -0.06460748262013
H            0.63022714029188        0.74376408880991        1.36746600253000
H           -2.60759740702166        0.20333189530299       -0.40716688092705
H           -1.88010808213380        0.70479403426226        1.13067206250610
H           -1.75540819740084        1.75992753461186       -0.29516679946955
H            0.18767811730119       -1.81585181680739       -0.21098818813340
15
 energy: -233.605294202704 gnorm: 0.000341735124 xtb: 6.7.1 (edcfbbe)
C            2.08539569361231        0.05502235046037       -0.08007769902633
C            0.75992991048490        0.72351414417205        0.27861835619353
C           -0.45715200831614        0.03331166776572       -0.33896509910424
H           -0.35000215381975        0.04708825323702       -1.43835079395719
C           -1.75585515806386        0.71992276126017        0.04279868549846
O           -0.57788711086534       -1.32692848241427        0.10845869250545
H            2.93217550092574        0.61321832750806        0.32932229710207
H            2.21967965124662       -0.00239225064928       -1.16656101354874
H            2.14828405372418       -0.95982921910324        0.32788382920202
H            0.77099379282149        1.76642010710040       -0.06330698933522
H            0.63034352791889        0.74263838744269        1.36806887651388
H           -2.60719895584255        0.20468227708738       -0.40904166217533
H           -1.88152258981083        0.70384557580187        1.13011638887160
H           -1.75457581467048        1.76044157399304       -0.29428623448251
H            0.18779675122813       -1.81612731787096       -0.21054450395841
15
 energy: -233.605294202704 gnorm: 0.000341735124 xtb: 6.7.1 (edcfbbe)
C            2.08539569361231        0.05502235046037       -0.08007769902633
C            0.75992991048490        0.72351414417205        0.27861835619353
C           -0.45715200831614        0.03331166776572       -0.33896509910424
H           -0.35000215381975        0.04708825323702       -1.43835079395719
C           -1.75585515806386        0.71992276126017        0.04279868549846
O           -0.57788711086534       -1.32692848241427        0.10845869250545
H            2.93217550092574        0.61321832750806        0.32932229710207
H            2.21967965124662       -0.00239225064928       -1.16656101354874
H            2.14828405372418       -0.95982921910324        0.32788382920202
H            0.77099379282149        1.76642010710040       -0.06330698933522
H            0.63034352791889        0.74263838744269        1.36806887651388
H           -2.60719895584255        0.20468227708738       -0.40904166217533
H           -1.88152258981083        0.70384557580187        1.13011638887160
H           -1.75457581467048        1.76044157399304       -0.29428623448251
H            0.18779675122813       -1.81612731787096       -0.21054450395841
