 Entering Gaussian System
 *********************************************
 Gaussian 98:
 frequency output generated by the xtb code
 *********************************************
                         Standard orientation:
 --------------------------------------------------------------------
  Center     Atomic     Atomic              Coordinates (Angstroms)
  Number     Number      Type              X           Y           Z
 --------------------------------------------------------------------
    1          6             0       -3.173144    0.176675   -0.007071
    2          8             0       -1.962195    0.889535    0.004475
    3          6             0       -0.792371    0.183026    0.001117
    4          6             0       -0.700656   -1.204010   -0.004758
    5          6             0        0.552160   -1.797562   -0.002289
    6          6             0        1.704178   -1.041781    0.006629
    7          6             0        1.620817    0.352862    0.010878
    8          6             0        0.367038    0.951530    0.011385
    9          7             0        2.764211    1.124561   -0.054832
   10          1             0       -3.959625    0.930166   -0.006417
   11          1             0       -3.278169   -0.454905    0.881525
   12          1             0       -3.268035   -0.442914   -0.905028
   13          1             0       -1.580820   -1.826057   -0.009906
   14          1             0        0.622339   -2.875650   -0.004576
   15          1             0        2.673479   -1.518207    0.008042
   16          1             0        0.272156    2.026541    0.015990
   17          1             0        2.666811    2.085752    0.229433
   18          1             0        3.616253    0.682520    0.249789
 --------------------------------------------------------------------
     1 basis functions        1 primitive gaussians
     1 alpha electrons        1 beta electrons
 
 Harmonic frequencies (cm**-1), IR intensities (km*mol⁻¹),
 Raman scattering activities (A**4/amu), Raman depolarization ratios,
 reduced masses (AMU), force constants (mDyne/A) and normal coordinates:
                      1                      2                      3
                        a                      a                      a 
 Frequencies --    85.6173               192.4836               220.5717
 Red. masses --     9.9663                 6.7919                10.8867
 Frc consts  --     0.0000                 0.0000                 0.0000
 IR Inten    --     6.7035                 1.8927                 1.2490
 Raman Activ --     0.0000                 0.0000                 0.0000
 Depolar     --     0.0000                 0.0000                 0.0000
 Atom AN      X      Y      Z        X      Y      Z        X      Y      Z
   1   6     0.00   0.01  -0.56    -0.00   0.00   0.02    -0.00  -0.01  -0.04
   2   8    -0.00  -0.00   0.43     0.00   0.00  -0.28    -0.01  -0.01   0.40
   3   6    -0.00  -0.00   0.27    -0.00  -0.00   0.11    -0.00   0.00  -0.13
   4   6     0.00  -0.00   0.22    -0.00  -0.00   0.38    -0.00   0.00   0.16
   5   6     0.00  -0.00   0.05    -0.00  -0.00  -0.06    -0.00   0.00   0.02
   6   6     0.00  -0.00  -0.11     0.00  -0.00  -0.43    -0.00   0.00  -0.11
   7   6     0.00  -0.00  -0.04     0.00  -0.00  -0.06    -0.00   0.00  -0.22
   8   6     0.00  -0.00   0.19     0.00  -0.00   0.06    -0.00   0.01  -0.63
   9   7    -0.01   0.00  -0.26     0.00   0.02   0.23     0.05  -0.00   0.39
  10   1     0.00   0.00  -0.25     0.00   0.00  -0.34    -0.00  -0.00   0.05
  11   1    -0.16  -0.06  -0.23    -0.11   0.29   0.20    -0.03  -0.10  -0.08
  12   1     0.17   0.07  -0.22     0.11  -0.29   0.20     0.03   0.09  -0.08
  13   1    -0.00  -0.00   0.09    -0.00  -0.00   0.22    -0.00   0.00   0.15
  14   1     0.00  -0.00   0.00    -0.00  -0.00  -0.03    -0.00   0.00   0.05
  15   1     0.00   0.00  -0.08     0.00   0.00  -0.23    -0.00   0.00   0.01
  16   1     0.00  -0.00   0.07     0.00  -0.00   0.02     0.00   0.00  -0.24
  17   1     0.01  -0.00  -0.06    -0.00  -0.02   0.16    -0.03  -0.01   0.11
  18   1     0.01  -0.00  -0.12    -0.00  -0.03   0.02    -0.04  -0.01   0.23
                      4                      5                      6
                        a                      a                      a 
 Frequencies --   224.7180               256.8208               342.8362
 Red. masses --     9.6978                 5.3532                 8.3903
 Frc consts  --     0.0000                 0.0000                 0.0000
 IR Inten    --     3.1352                 1.8769                 2.4400
 Raman Activ --     0.0000                 0.0000                 0.0000
 Depolar     --     0.0000                 0.0000                 0.0000
 Atom AN      X      Y      Z        X      Y      Z        X      Y      Z
   1   6    -0.16   0.53   0.00     0.00  -0.00  -0.05     0.40  -0.13  -0.00
   2   8     0.17  -0.04   0.00     0.00   0.00  -0.34     0.20   0.23  -0.01
   3   6    -0.01  -0.28  -0.01     0.00   0.00   0.07     0.05   0.06   0.01
   4   6     0.08  -0.28   0.00    -0.00  -0.00   0.33    -0.13   0.04   0.02
   5   6     0.17  -0.13   0.00    -0.00  -0.00   0.10    -0.19  -0.06  -0.02
   6   6     0.13  -0.03  -0.00     0.00  -0.00  -0.29    -0.07  -0.19  -0.03
   7   6    -0.00  -0.04  -0.00     0.00  -0.00  -0.03     0.01  -0.18   0.01
   8   6    -0.07  -0.22  -0.01     0.00  -0.00   0.14     0.08  -0.10   0.03
   9   7    -0.23   0.29   0.01    -0.01   0.02   0.07    -0.32   0.27   0.00
  10   1     0.06   0.26   0.01    -0.00  -0.00   0.45     0.04  -0.12   0.00
  11   1    -0.13   0.16  -0.00     0.22  -0.31  -0.21     0.18  -0.05  -0.00
  12   1    -0.13   0.17  -0.00    -0.22   0.31  -0.21     0.18  -0.05  -0.00
  13   1     0.03  -0.09   0.00    -0.00  -0.00   0.12    -0.04   0.03   0.01
  14   1     0.08  -0.03   0.00    -0.00  -0.00   0.04    -0.09  -0.02  -0.02
  15   1     0.05   0.01   0.00     0.00  -0.00  -0.18    -0.04  -0.09  -0.02
  16   1    -0.06  -0.07  -0.00     0.00  -0.00   0.05     0.05  -0.03   0.01
  17   1    -0.16   0.07  -0.01     0.01  -0.02   0.10    -0.31   0.11  -0.21
  18   1    -0.02   0.16   0.02     0.01  -0.02  -0.05    -0.05   0.29   0.21
                      7                      8                      9
                        a                      a                      a 
 Frequencies --   362.8175               421.3137               438.3588
 Red. masses --     3.5138                 9.1293                10.7364
 Frc consts  --     0.0000                 0.0000                 0.0000
 IR Inten    --    13.9833                 5.7268                 0.4709
 Raman Activ --     0.0000                 0.0000                 0.0000
 Depolar     --     0.0000                 0.0000                 0.0000
 Atom AN      X      Y      Z        X      Y      Z        X      Y      Z
   1   6     0.18  -0.03   0.01    -0.06  -0.01   0.01    -0.35  -0.05  -0.00
   2   8     0.11   0.09   0.06    -0.05  -0.01   0.13    -0.35   0.02  -0.01
   3   6     0.03  -0.01  -0.08    -0.01   0.03  -0.28    -0.05   0.26   0.03
   4   6    -0.05  -0.02  -0.08     0.01   0.03  -0.31     0.15   0.27   0.04
   5   6    -0.07  -0.04   0.09    -0.00   0.01   0.51     0.06   0.05  -0.06
   6   6    -0.04  -0.05   0.07     0.03  -0.03  -0.29     0.31  -0.29   0.05
   7   6    -0.02  -0.05  -0.04     0.04  -0.03  -0.32     0.21  -0.30   0.04
   8   6     0.00  -0.04  -0.09     0.03  -0.02   0.25     0.21  -0.12  -0.04
   9   7    -0.21   0.21   0.03     0.05   0.03   0.07    -0.08   0.14  -0.01
  10   1     0.02  -0.04  -0.02    -0.01   0.00  -0.04    -0.09  -0.01   0.00
  11   1     0.06  -0.00   0.01    -0.05   0.02   0.01    -0.10  -0.01  -0.00
  12   1     0.09  -0.02   0.01     0.01  -0.02   0.01    -0.11  -0.01  -0.00
  13   1    -0.02  -0.00  -0.02     0.00   0.01  -0.07     0.04   0.08   0.01
  14   1    -0.02  -0.01   0.08    -0.01   0.00   0.38    -0.08   0.01  -0.04
  15   1    -0.02  -0.03   0.06     0.00  -0.02  -0.05     0.07  -0.13   0.01
  16   1     0.01  -0.01  -0.02     0.02  -0.00   0.28     0.20  -0.02  -0.04
  17   1     0.05  -0.11   0.60    -0.05  -0.01   0.05    -0.14   0.01   0.07
  18   1     0.08  -0.12  -0.61    -0.03   0.02   0.16     0.07   0.14  -0.10
                     10                     11                     12
                        a                      a                      a 
 Frequencies --   500.4768               546.4253               553.5244
 Red. masses --    11.5034                 5.1379                11.3297
 Frc consts  --     0.0000                 0.0000                 0.0000
 IR Inten    --    33.1755               283.0704                13.1164
 Raman Activ --     0.0000                 0.0000                 0.0000
 Depolar     --     0.0000                 0.0000                 0.0000
 Atom AN      X      Y      Z        X      Y      Z        X      Y      Z
   1   6    -0.09  -0.05  -0.00     0.04   0.01  -0.01    -0.10   0.00  -0.00
   2   8    -0.01  -0.16  -0.02    -0.02   0.11  -0.09     0.19  -0.48  -0.01
   3   6     0.01  -0.12   0.06    -0.06   0.03   0.26     0.37   0.12   0.01
   4   6    -0.37  -0.11   0.01     0.12   0.02   0.00     0.11   0.14   0.01
   5   6    -0.29   0.13  -0.04     0.10  -0.06  -0.09    -0.15  -0.25  -0.01
   6   6    -0.16   0.06   0.06     0.06  -0.02   0.17    -0.26  -0.06   0.02
   7   6     0.36   0.11  -0.03    -0.14  -0.06  -0.27    -0.07  -0.01  -0.01
   8   6     0.16  -0.22   0.01    -0.07   0.02   0.06     0.16   0.41   0.01
   9   7     0.44   0.36  -0.11     0.03   0.00  -0.29    -0.12   0.07  -0.03
  10   1     0.00   0.02   0.00    -0.01  -0.02   0.01     0.11   0.14   0.00
  11   1    -0.05  -0.01   0.00     0.05   0.00  -0.00    -0.14   0.02   0.00
  12   1    -0.06  -0.01  -0.00     0.02  -0.00   0.00    -0.15   0.02  -0.00
  13   1    -0.11  -0.02  -0.01     0.04  -0.01  -0.06    -0.06   0.17   0.00
  14   1    -0.04   0.04  -0.03     0.01  -0.02  -0.05    -0.07  -0.07  -0.01
  15   1    -0.10  -0.10   0.02     0.04   0.03   0.10    -0.06   0.00   0.01
  16   1    -0.01  -0.06  -0.01    -0.00   0.01  -0.01     0.07   0.12  -0.00
  17   1     0.03   0.03   0.18    -0.12  -0.17   0.52    -0.11  -0.01   0.07
  18   1     0.08   0.11   0.13    -0.22  -0.09   0.50    -0.02   0.06   0.04
                     13                     14                     15
                        a                      a                      a 
 Frequencies --   593.0820               651.1524               738.9091
 Red. masses --    10.6596                10.0509                11.7712
 Frc consts  --     0.0000                 0.0000                 0.0000
 IR Inten    --    62.8728                17.7719                16.6807
 Raman Activ --     0.0000                 0.0000                 0.0000
 Depolar     --     0.0000                 0.0000                 0.0000
 Atom AN      X      Y      Z        X      Y      Z        X      Y      Z
   1   6    -0.01  -0.00  -0.02     0.00   0.00  -0.00    -0.10  -0.00  -0.00
   2   8     0.00  -0.02  -0.15    -0.00   0.01  -0.04    -0.23   0.36   0.00
   3   6     0.02  -0.01   0.61    -0.00   0.00   0.43    -0.01   0.02  -0.01
   4   6    -0.03  -0.00  -0.16     0.01   0.00  -0.32     0.19  -0.17   0.00
   5   6    -0.02   0.02   0.03     0.00  -0.02   0.36     0.05  -0.65  -0.01
   6   6    -0.01   0.00   0.08    -0.00  -0.00  -0.31    -0.24  -0.06   0.00
   7   6     0.04   0.02  -0.56    -0.01  -0.01   0.46     0.08   0.11  -0.01
   8   6     0.02  -0.00  -0.03    -0.00   0.01  -0.29     0.00   0.15   0.00
   9   7    -0.04  -0.02   0.32     0.02   0.01  -0.10     0.24   0.20   0.03
  10   1     0.00   0.01   0.01    -0.00  -0.00  -0.01    -0.14  -0.11  -0.00
  11   1     0.01   0.01   0.00     0.01   0.01   0.01     0.06  -0.02  -0.00
  12   1    -0.03  -0.01   0.00    -0.00  -0.01   0.01     0.06  -0.02   0.00
  13   1    -0.01   0.00  -0.17     0.00   0.00  -0.23     0.02  -0.00   0.00
  14   1    -0.00   0.01   0.01     0.00  -0.00  -0.00     0.05  -0.18   0.00
  15   1    -0.01  -0.01   0.15     0.00   0.01  -0.24    -0.03   0.04   0.00
  16   1     0.00  -0.00  -0.02     0.00   0.00  -0.25    -0.03   0.04   0.01
  17   1     0.03   0.07  -0.22    -0.00  -0.02   0.07     0.05   0.06  -0.04
  18   1     0.08   0.01  -0.19    -0.02   0.01   0.07     0.10   0.08  -0.05
                     16                     17                     18
                        a                      a                      a 
 Frequencies --   772.3766               843.1078               853.4653
 Red. masses --     3.7637                 3.8523                 3.4697
 Frc consts  --     0.0000                 0.0000                 0.0000
 IR Inten    --    63.8402                 3.2377                 3.2270
 Raman Activ --     0.0000                 0.0000                 0.0000
 Depolar     --     0.0000                 0.0000                 0.0000
 Atom AN      X      Y      Z        X      Y      Z        X      Y      Z
   1   6    -0.00  -0.00  -0.00     0.00  -0.00  -0.00     0.00   0.00   0.00
   2   8     0.00   0.00  -0.07     0.00  -0.00   0.00    -0.00   0.00   0.03
   3   6    -0.00  -0.00   0.22    -0.00   0.00  -0.02    -0.00  -0.00  -0.07
   4   6     0.00   0.00  -0.24     0.00   0.00   0.35    -0.00  -0.00   0.06
   5   6     0.00   0.00  -0.18     0.00   0.00  -0.01     0.00  -0.00  -0.09
   6   6    -0.00   0.00  -0.18    -0.00   0.00  -0.26    -0.00   0.00  -0.28
   7   6    -0.00  -0.00   0.21    -0.00  -0.00   0.11    -0.00   0.00   0.02
   8   6     0.00   0.00  -0.16     0.00  -0.00  -0.22    -0.00   0.00   0.36
   9   7    -0.00  -0.00  -0.07    -0.00  -0.00  -0.03    -0.00  -0.00   0.01
  10   1     0.00   0.00   0.03     0.00   0.00  -0.02    -0.00  -0.00  -0.00
  11   1     0.01  -0.01  -0.01     0.01   0.01   0.01    -0.00  -0.00  -0.00
  12   1    -0.01   0.01  -0.01    -0.01  -0.01   0.01     0.01   0.00  -0.00
  13   1    -0.00  -0.00   0.58     0.00   0.00  -0.59     0.00  -0.00  -0.11
  14   1    -0.00  -0.00   0.34     0.00   0.00  -0.03     0.00  -0.00   0.23
  15   1    -0.00  -0.01   0.46    -0.00  -0.01   0.47    -0.00  -0.01   0.46
  16   1    -0.00  -0.00   0.29    -0.01  -0.00   0.41     0.01   0.00  -0.71
  17   1     0.00  -0.00  -0.00     0.00  -0.00   0.00     0.00  -0.00  -0.00
  18   1    -0.00   0.01   0.01    -0.00   0.00   0.00     0.00   0.00   0.00
                     19                     20                     21
                        a                      a                      a 
 Frequencies --   914.5080               951.6080               987.2922
 Red. masses --     3.1854                 9.6665                10.8672
 Frc consts  --     0.0000                 0.0000                 0.0000
 IR Inten    --     0.0379                18.8261                 0.1450
 Raman Activ --     0.0000                 0.0000                 0.0000
 Depolar     --     0.0000                 0.0000                 0.0000
 Atom AN      X      Y      Z        X      Y      Z        X      Y      Z
   1   6     0.00   0.00   0.00     0.29   0.08   0.00    -0.03  -0.03  -0.00
   2   8     0.00  -0.00   0.00    -0.01  -0.25  -0.00     0.03   0.01   0.00
   3   6    -0.00   0.00  -0.07    -0.31   0.06  -0.00    -0.01   0.06   0.00
   4   6     0.00   0.00  -0.11     0.21   0.36   0.00     0.33   0.24   0.00
   5   6    -0.00  -0.00   0.38    -0.06  -0.15  -0.00     0.02  -0.04  -0.00
   6   6    -0.00   0.00  -0.16     0.05  -0.22  -0.00    -0.45   0.38   0.00
   7   6     0.00   0.00  -0.07    -0.08   0.07   0.00     0.08   0.02  -0.00
   8   6    -0.00  -0.00   0.07    -0.32  -0.18   0.00     0.14  -0.56  -0.00
   9   7    -0.00   0.00   0.00     0.20   0.23   0.02    -0.12  -0.10   0.00
  10   1     0.00   0.00   0.01     0.17   0.12   0.00     0.02   0.02   0.00
  11   1    -0.01  -0.01  -0.00    -0.01   0.03   0.00    -0.02  -0.00   0.00
  12   1     0.01   0.01  -0.00    -0.01   0.03  -0.00    -0.03  -0.00  -0.00
  13   1    -0.00  -0.00   0.27     0.04   0.13   0.00     0.07   0.10   0.00
  14   1     0.00   0.00  -0.77    -0.26  -0.06   0.00     0.10   0.01   0.00
  15   1    -0.00  -0.01   0.36     0.01  -0.08  -0.00    -0.10   0.16  -0.00
  16   1     0.00  -0.00  -0.01    -0.18  -0.06  -0.00     0.13  -0.15  -0.00
  17   1    -0.00  -0.00   0.01     0.24   0.10  -0.07    -0.08  -0.03   0.00
  18   1    -0.00  -0.01  -0.00    -0.01  -0.07   0.00    -0.03  -0.02  -0.01
                     22                     23                     24
                        a                      a                      a 
 Frequencies --  1035.2706              1075.4907              1123.9056
 Red. masses --     5.2261                 8.6806                 3.7473
 Frc consts  --     0.0000                 0.0000                 0.0000
 IR Inten    --     7.0928                32.1540                 2.2744
 Raman Activ --     0.0000                 0.0000                 0.0000
 Depolar     --     0.0000                 0.0000                 0.0000
 Atom AN      X      Y      Z        X      Y      Z        X      Y      Z
   1   6    -0.24  -0.10  -0.00     0.44   0.14   0.00     0.00   0.00  -0.42
   2   8     0.18   0.14   0.00    -0.46  -0.18  -0.00    -0.00  -0.00   0.22
   3   6     0.16  -0.02  -0.00    -0.12   0.13   0.00     0.00  -0.00  -0.00
   4   6    -0.07   0.00   0.00    -0.15  -0.18  -0.00     0.00   0.00  -0.00
   5   6    -0.02  -0.07  -0.00     0.05  -0.09  -0.00    -0.00   0.00   0.00
   6   6     0.08  -0.08  -0.01    -0.01   0.08  -0.00    -0.00  -0.00   0.00
   7   6    -0.05   0.10   0.00     0.04  -0.02   0.00     0.00   0.00  -0.00
   8   6     0.16  -0.13   0.00     0.16   0.04  -0.00    -0.00   0.00   0.00
   9   7    -0.24   0.25  -0.00    -0.10   0.06  -0.00    -0.00   0.00   0.00
  10   1    -0.09  -0.06  -0.00     0.19   0.13   0.00    -0.00  -0.00   0.22
  11   1    -0.01  -0.02   0.00    -0.03   0.04   0.00     0.49   0.31   0.18
  12   1    -0.01  -0.02  -0.00    -0.03   0.04   0.00    -0.48  -0.31   0.17
  13   1    -0.07   0.08  -0.00    -0.03  -0.07  -0.00     0.00  -0.00   0.02
  14   1    -0.04  -0.02   0.00     0.22  -0.01   0.00    -0.00   0.00  -0.00
  15   1     0.01  -0.07  -0.00     0.01   0.05   0.00    -0.00  -0.00   0.00
  16   1     0.15  -0.03   0.00     0.48   0.05   0.01    -0.00   0.00  -0.00
  17   1     0.50   0.15  -0.11     0.13   0.04  -0.03     0.00   0.00  -0.00
  18   1    -0.35  -0.42   0.12    -0.10  -0.11   0.04    -0.00  -0.00   0.00
                     25                     26                     27
                        a                      a                      a 
 Frequencies --  1131.7771              1162.6052              1174.1522
 Red. masses --     4.7233                 4.7670                 5.9596
 Frc consts  --     0.0000                 0.0000                 0.0000
 IR Inten    --     2.7709                 2.5111               200.6602
 Raman Activ --     0.0000                 0.0000                 0.0000
 Depolar     --     0.0000                 0.0000                 0.0000
 Atom AN      X      Y      Z        X      Y      Z        X      Y      Z
   1   6     0.02  -0.25  -0.00     0.03  -0.38  -0.00    -0.18  -0.12  -0.00
   2   8     0.06   0.16   0.00     0.05   0.32   0.00     0.39   0.01   0.00
   3   6     0.01   0.08   0.00    -0.02   0.07  -0.00    -0.33   0.07   0.00
   4   6    -0.29   0.04  -0.00     0.11  -0.09  -0.00    -0.02  -0.03   0.00
   5   6     0.02  -0.23  -0.00     0.03   0.07   0.00    -0.03  -0.01   0.00
   6   6     0.24   0.08  -0.00    -0.09  -0.05   0.00    -0.06  -0.00  -0.00
   7   6    -0.02   0.02  -0.00     0.02  -0.03   0.00    -0.18  -0.05  -0.00
   8   6    -0.02  -0.13  -0.00    -0.07   0.06   0.00    -0.07   0.05  -0.00
   9   7     0.03  -0.06   0.00    -0.01   0.02  -0.00     0.16   0.06   0.01
  10   1     0.21   0.16   0.00     0.39   0.31   0.00     0.03   0.04   0.00
  11   1    -0.19   0.02   0.03    -0.30   0.02   0.03    -0.01  -0.02   0.00
  12   1    -0.19   0.02  -0.03    -0.30   0.02  -0.04    -0.01  -0.02  -0.00
  13   1    -0.29   0.31  -0.00     0.13  -0.17   0.00     0.22  -0.33  -0.00
  14   1    -0.00  -0.07  -0.00     0.18   0.03   0.00    -0.20  -0.02  -0.00
  15   1     0.30   0.48   0.01    -0.20  -0.35  -0.01     0.10   0.23   0.01
  16   1    -0.08  -0.04  -0.00    -0.10   0.01  -0.00     0.57   0.07   0.01
  17   1    -0.06  -0.03   0.02     0.02   0.01  -0.01     0.02   0.02  -0.00
  18   1     0.05   0.06  -0.02    -0.02  -0.03   0.01     0.10   0.11  -0.03
                     28                     29                     30
                        a                      a                      a 
 Frequencies --  1206.6551              1274.1192              1321.4263
 Red. masses --     3.9217                 4.4560                 9.8120
 Frc consts  --     0.0000                 0.0000                 0.0000
 IR Inten    --    59.6933                27.9230                48.9235
 Raman Activ --     0.0000                 0.0000                 0.0000
 Depolar     --     0.0000                 0.0000                 0.0000
 Atom AN      X      Y      Z        X      Y      Z        X      Y      Z
   1   6     0.10  -0.00   0.00     0.07  -0.04  -0.00     0.06   0.02   0.00
   2   8    -0.25   0.07  -0.00    -0.10   0.13   0.00    -0.14   0.08   0.00
   3   6     0.21  -0.07  -0.00     0.12  -0.28  -0.00     0.35  -0.06   0.00
   4   6     0.07  -0.08   0.00     0.19  -0.19   0.00     0.23  -0.13   0.00
   5   6    -0.11   0.04   0.00     0.03   0.07   0.00    -0.22   0.27   0.00
   6   6    -0.03   0.03  -0.00     0.10   0.18   0.00    -0.12  -0.06  -0.00
   7   6     0.12   0.06   0.00    -0.07   0.14  -0.00    -0.25  -0.47  -0.01
   8   6     0.22   0.00   0.00    -0.17  -0.01  -0.00    -0.23  -0.03   0.00
   9   7    -0.12  -0.02  -0.01     0.03  -0.07  -0.00     0.18   0.19   0.00
  10   1     0.10   0.08   0.00     0.00  -0.02  -0.00    -0.04  -0.05  -0.00
  11   1    -0.07   0.00  -0.00    -0.07   0.02   0.02    -0.06   0.01  -0.00
  12   1    -0.07   0.00   0.00    -0.07   0.02  -0.02    -0.06   0.01   0.00
  13   1     0.26  -0.37  -0.00    -0.23   0.36   0.00    -0.00   0.07   0.00
  14   1    -0.61  -0.03  -0.00    -0.49  -0.01  -0.00     0.16   0.09   0.00
  15   1     0.13   0.28   0.00    -0.13  -0.27  -0.00     0.10   0.27   0.01
  16   1    -0.22  -0.03  -0.00     0.40   0.03   0.01     0.04  -0.01   0.00
  17   1     0.01  -0.00  -0.00    -0.09  -0.03   0.02     0.26   0.08  -0.02
  18   1    -0.08  -0.08   0.02     0.05   0.06  -0.01     0.07   0.09   0.02
                     31                     32                     33
                        a                      a                      a 
 Frequencies --  1350.4458              1403.4812              1451.0618
 Red. masses --    11.6232                 2.6164                 9.3420
 Frc consts  --     0.0000                 0.0000                 0.0000
 IR Inten    --    48.5959                 0.9451                19.4023
 Raman Activ --     0.0000                 0.0000                 0.0000
 Depolar     --     0.0000                 0.0000                 0.0000
 Atom AN      X      Y      Z        X      Y      Z        X      Y      Z
   1   6     0.06  -0.03  -0.00    -0.29  -0.13  -0.00    -0.04   0.06  -0.00
   2   8    -0.11   0.10   0.00    -0.13  -0.02  -0.00    -0.10  -0.02  -0.00
   3   6    -0.02  -0.48  -0.00     0.04  -0.06  -0.00     0.46   0.19   0.00
   4   6    -0.12   0.31   0.00     0.04  -0.04   0.00    -0.24   0.16  -0.00
   5   6     0.33   0.15   0.00     0.03   0.06   0.00     0.00  -0.19  -0.00
   6   6    -0.25  -0.39  -0.00    -0.04  -0.02  -0.00     0.20   0.10   0.00
   7   6    -0.31   0.19  -0.00    -0.04  -0.04  -0.00    -0.42   0.21  -0.01
   8   6     0.33   0.03   0.00     0.04   0.01   0.00    -0.09  -0.29  -0.00
   9   7     0.06   0.02   0.00     0.01   0.02   0.00     0.08  -0.06  -0.01
  10   1     0.01  -0.01   0.00     0.37   0.41   0.01     0.03   0.05   0.00
  11   1    -0.07   0.00  -0.00     0.49   0.11   0.14     0.04  -0.08  -0.06
  12   1    -0.07   0.00   0.00     0.49   0.12  -0.14     0.04  -0.08   0.05
  13   1     0.00   0.04   0.00    -0.05   0.08   0.00     0.14  -0.24  -0.00
  14   1     0.06   0.04  -0.00    -0.03   0.01  -0.00     0.03  -0.06  -0.00
  15   1     0.02   0.09   0.00     0.00   0.02   0.00    -0.07  -0.22  -0.00
  16   1     0.06  -0.00  -0.00    -0.01  -0.00  -0.00     0.07  -0.08  -0.00
  17   1     0.01   0.00   0.02     0.03   0.01   0.00     0.07  -0.02   0.05
  18   1     0.07   0.10  -0.01     0.01   0.02   0.00     0.14   0.22   0.01
                     34                     35                     36
                        a                      a                      a 
 Frequencies --  1473.4186              1481.0445              1487.9754
 Red. masses --     1.5536                 6.8338                 1.7366
 Frc consts  --     0.0000                 0.0000                 0.0000
 IR Inten    --     4.4639                54.7166                 4.9722
 Raman Activ --     0.0000                 0.0000                 0.0000
 Depolar     --     0.0000                 0.0000                 0.0000
 Atom AN      X      Y      Z        X      Y      Z        X      Y      Z
   1   6     0.00   0.00  -0.22     0.02   0.00   0.00    -0.08   0.19   0.00
   2   8     0.00   0.00  -0.03     0.07  -0.06  -0.00     0.01   0.06   0.00
   3   6    -0.00   0.00  -0.00    -0.19   0.23   0.00    -0.06  -0.04  -0.00
   4   6     0.00  -0.00   0.00    -0.10  -0.17  -0.00     0.03  -0.05  -0.00
   5   6     0.00   0.00   0.00     0.37   0.01   0.00     0.03   0.04   0.00
   6   6    -0.00   0.00  -0.00    -0.11   0.21   0.00    -0.04  -0.00  -0.00
   7   6     0.00  -0.00   0.00    -0.16  -0.30  -0.03     0.05  -0.06   0.00
   8   6     0.00   0.00   0.00     0.27   0.02   0.00     0.01   0.04   0.00
   9   7    -0.00   0.00   0.00    -0.09  -0.01  -0.02    -0.01   0.01  -0.00
  10   1    -0.00  -0.01   0.72    -0.04  -0.04  -0.00     0.20   0.22   0.00
  11   1    -0.41   0.20   0.09    -0.02   0.02   0.01     0.05  -0.53  -0.37
  12   1     0.41  -0.20   0.09    -0.03   0.02  -0.01     0.04  -0.53   0.36
  13   1    -0.00   0.00  -0.02    -0.12   0.07  -0.00    -0.06   0.10   0.00
  14   1    -0.00   0.00   0.00    -0.25  -0.02  -0.00    -0.02   0.01  -0.00
  15   1    -0.00   0.00  -0.00    -0.12  -0.11  -0.00     0.00   0.03   0.00
  16   1    -0.00   0.00   0.00    -0.22  -0.02  -0.00    -0.01   0.01   0.00
  17   1     0.00   0.00   0.00     0.42   0.03   0.07     0.01   0.00  -0.00
  18   1     0.00   0.00   0.00     0.13   0.33   0.08    -0.01  -0.02   0.00
                     37                     38                     39
                        a                      a                      a 
 Frequencies --  1513.6844              1585.4951              1615.4258
 Red. masses --     6.7461                11.5206                11.5525
 Frc consts  --     0.0000                 0.0000                 0.0000
 IR Inten    --   139.6960                85.1792               259.5517
 Raman Activ --     0.0000                 0.0000                 0.0000
 Depolar     --     0.0000                 0.0000                 0.0000
 Atom AN      X      Y      Z        X      Y      Z        X      Y      Z
   1   6     0.00   0.01   0.00     0.00   0.01   0.00     0.02  -0.01  -0.00
   2   8     0.01  -0.04  -0.00     0.03  -0.05  -0.00    -0.00   0.02   0.00
   3   6     0.06   0.22  -0.00    -0.06   0.41   0.00    -0.26  -0.21  -0.00
   4   6    -0.13  -0.11  -0.00     0.25  -0.45  -0.00     0.20   0.01   0.00
   5   6     0.31   0.04  -0.00    -0.13   0.20   0.00    -0.46  -0.10  -0.00
   6   6    -0.10   0.06  -0.00    -0.05  -0.39  -0.00     0.31   0.28   0.00
   7   6    -0.29  -0.21   0.04    -0.19   0.45  -0.00    -0.38  -0.07   0.00
   8   6     0.07  -0.07  -0.00     0.17  -0.17  -0.00     0.49   0.06   0.00
   9   7     0.33   0.23   0.05    -0.00  -0.06  -0.00     0.10   0.05   0.02
  10   1    -0.02  -0.01  -0.00    -0.02  -0.01  -0.00     0.01   0.01   0.00
  11   1    -0.00   0.00   0.00    -0.00  -0.00  -0.01    -0.01  -0.01  -0.00
  12   1    -0.00   0.00  -0.00    -0.00  -0.00   0.01    -0.01  -0.01   0.00
  13   1    -0.06   0.00   0.00    -0.09   0.11  -0.00     0.03   0.03   0.00
  14   1    -0.14  -0.00   0.00     0.02   0.06   0.00     0.11  -0.01   0.00
  15   1    -0.06  -0.04   0.00     0.07   0.07   0.00    -0.01  -0.10  -0.00
  16   1    -0.08  -0.03   0.00    -0.04  -0.05  -0.00    -0.11  -0.01  -0.00
  17   1    -0.46   0.03  -0.15    -0.04  -0.02   0.03    -0.06   0.01  -0.03
  18   1    -0.15  -0.44  -0.14     0.04   0.07  -0.01     0.01  -0.03  -0.04
                     40                     41                     42
                        a                      a                      a 
 Frequencies --  2924.6085              2940.0182              3022.2967
 Red. masses --     1.9442                 1.4534                 1.6840
 Frc consts  --     0.0000                 0.0000                 0.0000
 IR Inten    --    46.3995                34.6601                19.7241
 Raman Activ --     0.0000                 0.0000                 0.0000
 Depolar     --     0.0000                 0.0000                 0.0000
 Atom AN      X      Y      Z        X      Y      Z        X      Y      Z
   1   6     0.00   0.01  -0.29    -0.01  -0.20  -0.02     0.18  -0.17  -0.00
   2   8     0.00   0.00  -0.01    -0.02  -0.01  -0.00     0.01   0.00   0.00
   3   6    -0.00   0.00   0.00     0.00  -0.00   0.00    -0.00  -0.00   0.00
   4   6    -0.00  -0.00   0.00     0.00   0.00   0.00     0.00   0.00   0.00
   5   6    -0.00  -0.00  -0.00     0.00   0.00  -0.00    -0.00  -0.00  -0.00
   6   6    -0.00  -0.00   0.00     0.00   0.00  -0.00     0.00  -0.00   0.00
   7   6    -0.00   0.00  -0.00     0.00  -0.00  -0.00    -0.00  -0.00   0.00
   8   6     0.00  -0.00   0.00    -0.00   0.00  -0.00    -0.00   0.00   0.00
   9   7     0.00  -0.00   0.00    -0.00  -0.00   0.00     0.00   0.00  -0.00
  10   1     0.00  -0.00  -0.05    -0.03   0.00  -0.00    -0.69   0.67   0.00
  11   1    -0.06  -0.43   0.57     0.06   0.35  -0.55     0.02  -0.04   0.02
  12   1     0.04   0.38   0.50     0.06   0.39   0.62     0.02  -0.04  -0.02
  13   1     0.00   0.00   0.00    -0.02  -0.01  -0.00    -0.01  -0.00  -0.00
  14   1    -0.00   0.00   0.00     0.00  -0.00  -0.00    -0.00   0.00   0.00
  15   1    -0.00  -0.00   0.00     0.00   0.00   0.00    -0.00   0.00   0.00
  16   1    -0.00   0.00  -0.00     0.00  -0.01  -0.00     0.00  -0.00   0.00
  17   1     0.00   0.00  -0.00     0.00   0.00  -0.00    -0.00  -0.00   0.00
  18   1    -0.00   0.00  -0.00     0.00  -0.00  -0.00    -0.00  -0.00   0.00
                     43                     44                     45
                        a                      a                      a 
 Frequencies --  3072.8162              3085.0159              3097.0638
 Red. masses --     1.7676                 1.8662                 1.8224
 Frc consts  --     0.0000                 0.0000                 0.0000
 IR Inten    --    13.8916                66.5960                27.6026
 Raman Activ --     0.0000                 0.0000                 0.0000
 Depolar     --     0.0000                 0.0000                 0.0000
 Atom AN      X      Y      Z        X      Y      Z        X      Y      Z
   1   6     0.00   0.00   0.00     0.00  -0.00  -0.00     0.00  -0.00  -0.00
   2   8     0.00  -0.00   0.00    -0.00   0.00   0.00    -0.00   0.00   0.00
   3   6     0.00   0.00   0.00    -0.00  -0.00  -0.00     0.01  -0.01   0.00
   4   6     0.02   0.01   0.00    -0.04  -0.03  -0.00    -0.02  -0.01  -0.00
   5   6     0.01  -0.20  -0.00    -0.01   0.17   0.00    -0.00   0.00   0.00
   6   6    -0.15   0.07  -0.00    -0.19   0.09  -0.00    -0.01   0.01  -0.00
   7   6    -0.01  -0.00   0.00    -0.01  -0.00   0.00    -0.01  -0.01  -0.00
   8   6     0.00   0.01   0.00     0.00   0.02   0.00     0.02  -0.27  -0.00
   9   7     0.00  -0.00   0.00     0.00  -0.00  -0.00    -0.00   0.00  -0.00
  10   1    -0.00   0.00  -0.00    -0.00   0.00   0.00    -0.00   0.00   0.00
  11   1    -0.00  -0.00   0.00     0.00   0.00  -0.00     0.00   0.00  -0.00
  12   1    -0.00  -0.00  -0.00     0.00   0.00   0.00     0.00   0.00   0.00
  13   1    -0.09  -0.06  -0.00     0.16   0.11   0.00     0.06   0.04   0.00
  14   1    -0.05   0.73   0.00     0.04  -0.59  -0.00     0.00  -0.00   0.00
  15   1     0.56  -0.28   0.00     0.65  -0.32   0.00     0.05  -0.03   0.00
  16   1     0.00  -0.03  -0.00     0.00  -0.06  -0.00    -0.08   0.95   0.00
  17   1    -0.00   0.00   0.00     0.00   0.00   0.00     0.00  -0.00   0.00
  18   1    -0.00   0.00  -0.00     0.00   0.00   0.00     0.00  -0.00   0.00
                     46                     47                     48
                        a                      a                      a 
 Frequencies --  3109.3649              3459.7633              3513.5258
 Red. masses --     1.8504                 1.4511                 2.1524
 Frc consts  --     0.0000                 0.0000                 0.0000
 IR Inten    --    33.7770                 1.6703                 0.2961
 Raman Activ --     0.0000                 0.0000                 0.0000
 Depolar     --     0.0000                 0.0000                 0.0000
 Atom AN      X      Y      Z        X      Y      Z        X      Y      Z
   1   6     0.00  -0.00  -0.00     0.00   0.00  -0.00    -0.00   0.00  -0.00
   2   8     0.00  -0.00  -0.00     0.00  -0.00  -0.00    -0.00  -0.00   0.00
   3   6    -0.01   0.00  -0.00    -0.00  -0.00   0.00     0.00   0.00   0.00
   4   6    -0.22  -0.16  -0.00     0.00   0.00   0.00     0.00  -0.00   0.00
   5   6     0.00  -0.07  -0.00    -0.00  -0.00   0.00    -0.00   0.00  -0.00
   6   6     0.02  -0.01   0.00     0.00   0.00  -0.00     0.00  -0.00   0.00
   7   6     0.00   0.00   0.00    -0.00  -0.00  -0.01    -0.01   0.01  -0.00
   8   6     0.00   0.02   0.00     0.00   0.00  -0.00    -0.00  -0.00  -0.00
   9   7     0.00  -0.00  -0.00    -0.13  -0.09  -0.09    -0.17   0.25  -0.00
  10   1    -0.01   0.01   0.00    -0.00   0.00  -0.00    -0.00  -0.00  -0.00
  11   1     0.00   0.01  -0.01     0.00  -0.00   0.00    -0.00  -0.00   0.00
  12   1     0.00   0.01   0.01    -0.00  -0.00  -0.00    -0.00  -0.00  -0.00
  13   1     0.76   0.53   0.00    -0.00  -0.00  -0.00     0.00  -0.00   0.00
  14   1    -0.01   0.20   0.00    -0.00   0.00  -0.00     0.00   0.00   0.00
  15   1    -0.07   0.03  -0.00    -0.00  -0.00  -0.00     0.00  -0.00  -0.00
  16   1     0.00  -0.06  -0.00    -0.00  -0.00  -0.00     0.00  -0.00   0.00
  17   1    -0.00   0.00   0.00    -0.09   0.67   0.17     0.05  -0.65  -0.19
  18   1     0.00  -0.00   0.00     0.59  -0.33   0.18     0.58  -0.29   0.20
