21
 energy: -25.383069384173 gnorm: 0.017725808047 xtb: 6.7.1 (edcfbbe)
C           -2.65510384441898       -0.68494654719264       -0.75603773271325
C           -1.88021705277616       -0.45600995394100        0.54985815294183
C           -0.39935855688934       -0.30283721058452        0.30644220907703
C            0.40613917677964       -1.44289113178751        0.26427138674544
C            1.76626697689229       -1.36361585883235       -0.01175316103270
C            2.34321124879623       -0.12155588614641       -0.24901062794616
C            1.55288157667286        1.02159355222807       -0.20486573444105
C            0.18445034171397        0.95458055214953        0.06807688889453
C           -0.62962550858464        2.22048932241631        0.11964287733959
H           -2.30285027517449       -1.59326744032524       -1.25423970805107
H           -2.51269144604417        0.14761767750787       -1.45178857241241
H           -3.72756760200241       -0.79099310721291       -0.56458529285757
H           -2.04760112223297       -1.30798752178888        1.21848862239863
H           -2.27804469621149        0.42601525775817        1.06174493148115
H           -0.04789956132857       -2.41259474224928        0.45413752553045
H            2.37038099347361       -2.26493422103907       -0.03736905845095
H            3.40376864140307       -0.04040796934153       -0.46478738369963
H            2.00603895210692        1.99270785031798       -0.38534792763129
H           -0.01886582439255        3.08302952934740       -0.15702911629898
H           -1.48687315307621        2.18447526410526       -0.56062140068401
H           -1.02459103722583        2.40192357469224        1.12591773669322
21
 energy: -25.383902303485 gnorm: 0.004808722383 xtb: 6.7.1 (edcfbbe)
C           -2.64247855663656       -0.68421434854140       -0.75225249500214
C           -1.87770621608482       -0.45550329377150        0.55301062336110
C           -0.40274726193067       -0.29967570286362        0.29541356573121
C            0.39865667231532       -1.43499118852644        0.25685958983957
C            1.75395465275743       -1.35483288669284       -0.01031292125596
C            2.32911197737086       -0.11838645157858       -0.24481932617906
C            1.54306470917704        1.01980373052804       -0.20181868092162
C            0.18015651738905        0.95167836570250        0.06403559023588
C           -0.62632893377418        2.21596314050220        0.11567174056033
H           -2.29083243464479       -1.58947027892178       -1.24590338897511
H           -2.50051856298245        0.14974003050456       -1.43851158737229
H           -3.70848993361809       -0.78973488543725       -0.55453297434947
H           -2.04165598023153       -1.31387231604348        1.21112476611128
H           -2.27498307927297        0.42801313561713        1.05697524643608
H           -0.05243092835035       -2.40121104096102        0.44489415470360
H            2.35622887625270       -2.25257984010307       -0.03624274712109
H            3.38599112279438       -0.03830250705782       -0.45932548934900
H            1.99632213757164        1.98632752838991       -0.38157745753030
H           -0.01214375468190        3.07265447461742       -0.15737259074484
H           -1.47607071940708        2.17310372887215       -0.56598747916218
H           -1.01525207653225        2.38588159584640        1.12181647586683
21
 energy: -25.383945384676 gnorm: 0.001294938222 xtb: 6.7.1 (edcfbbe)
C           -2.63862119545603       -0.68348045204626       -0.75103383869324
C           -1.87655755760183       -0.45487563209812        0.55558465622300
C           -0.40259982390881       -0.29778376732105        0.29831303567248
C            0.39581332937304       -1.43329236650313        0.25579576212379
C            1.74943980596023       -1.35369099338587       -0.01321115558880
C            2.32524230695096       -0.11821245555477       -0.24508224735098
C            1.54037454869437        1.01930992318961       -0.20226702766309
C            0.17920446478459        0.95115908482577        0.06495421889096
C           -0.62712957623345        2.21514209186879        0.11394973366249
H           -2.28315777699866       -1.58648740351954       -1.24237264478659
H           -2.49480420395520        0.15071373313193       -1.43396724833640
H           -3.70363623158287       -0.79090601903155       -0.55635398836209
H           -2.03778525824976       -1.31425700893433        1.21096529952386
H           -2.27447440290676        0.42763181073812        1.05769135128015
H           -0.05570734622549       -2.39852728654673        0.43994722625395
H            2.35103492812315       -2.25049805929918       -0.03827684886006
H            3.38176123220024       -0.03846145368763       -0.45562136967694
H            1.99406581108033        1.98463562299265       -0.37995740488922
H           -0.01213266280407        3.06927982777132       -0.15954174985684
H           -1.47447025850790        2.16949089529726       -0.56778420531953
H           -1.01401190525532        2.38350089819422        1.11941306063592
21
 energy: -25.383949676164 gnorm: 0.000416040409 xtb: 6.7.1 (edcfbbe)
C           -2.63587552781868       -0.68330881024642       -0.75047787166595
C           -1.87673177846862       -0.45433191849954        0.55843310459692
C           -0.40304374181049       -0.29697178888756        0.29926371242839
C            0.39406507598275       -1.43354843172664        0.25472582415801
C            1.74791934670840       -1.35423426788538       -0.01375794495512
C            2.32469636219952       -0.11852278313128       -0.24360048001123
C            1.54025950934272        1.01951813489912       -0.20108798066999
C            0.17878748952098        0.95141637494700        0.06542455951941
C           -0.62837748260316        2.21576613729316        0.11310994802133
H           -2.27700579407992       -1.58514866376217       -1.24117244516224
H           -2.49117147389250        0.15185119624108       -1.43173999247302
H           -3.70095384189142       -0.79259591601364       -0.55824526450176
H           -2.03687244269601       -1.31410744673929        1.21292068518580
H           -2.27556600586489        0.42754117183484        1.06021011341028
H           -0.05819018643006       -2.39852886924551        0.43745148063800
H            2.34854462312555       -2.25146946579539       -0.04242404174648
H            3.38092752097787       -0.03948831501572       -0.45509266290520
H            1.99400170914230        1.98438093676011       -0.38038877519239
H           -0.01303080847792        3.06927553289099       -0.16056664006769
H           -1.47434443295801        2.16867745984420       -0.56968645088327
H           -1.01618989252765        2.38422072231953        1.11784573715902
21
 energy: -25.383950594504 gnorm: 0.000293261907 xtb: 6.7.1 (edcfbbe)
C           -2.63482051867232       -0.68354851976223       -0.75020487338273
C           -1.87687326724805       -0.45406335781292        0.55950687732354
C           -0.40296789762465       -0.29647182163345        0.30113480399640
C            0.39357895560308       -1.43363858638795        0.25504507985730
C            1.74714338994838       -1.35471384916502       -0.01524081189111
C            2.32426918904112       -0.11892769501897       -0.24462761002679
C            1.54039629218710        1.01957459874997       -0.20096040365609
C            0.17893521564597        0.95178133499120        0.06659854998933
C           -0.62868604836119        2.21623733610894        0.11295537941516
H           -2.27368395662007       -1.58469642817613       -1.24075620534975
H           -2.49004823985882        0.15220894343991       -1.43089157721416
H           -3.70015628833554       -0.79441231320691       -0.55975661619863
H           -2.03739690603712       -1.31369169686922        1.21411011840479
H           -2.27656820415964        0.42773241612654        1.06083067777238
H           -0.05919737714602       -2.39860197647044        0.43714847818419
H            2.34760038055767       -2.25218027041439       -0.04467574370285
H            3.38086145921652       -0.04018021919784       -0.45498287382408
H            1.99459119912614        1.98446437189747       -0.37959857094330
H           -0.01338554403246        3.06980831062388       -0.16108111865788
H           -1.47417224020344        2.16820432254974       -0.57061474260558
H           -1.01757136554589        2.38550608970930        1.11720579739265
21
 energy: -25.383950916543 gnorm: 0.000097010196 xtb: 6.7.1 (edcfbbe)
C           -2.63437929415752       -0.68389218870785       -0.75018717557704
C           -1.87696163592006       -0.45383551635140        0.55959917215071
C           -0.40306290816314       -0.29631236868971        0.30137136263289
C            0.39341473270015       -1.43350644603403        0.25521417426472
C            1.74686523329679       -1.35473656479713       -0.01537156521354
C            2.32407004182262       -0.11901007402491       -0.24460473341263
C            1.54041717313119        1.01954900645304       -0.20060751213696
C            0.17895971495265        0.95190797400646        0.06691555349573
C           -0.62850148308902        2.21633056929316        0.11311520700715
H           -2.27247214744821       -1.58470661862882       -1.24081129949140
H           -2.49032444700661        0.15197680026373       -1.43092774274074
H           -3.69965077552274       -0.79570348087812       -0.55998927053448
H           -2.03771606807619       -1.31317227065145        1.21465267847033
H           -2.27685556810463        0.42819948631254        1.06048685619869
H           -0.05947266328743       -2.39837677530642        0.43761649237220
H            2.34715318394061       -2.25231426092014       -0.04559302890285
H            3.38050150151844       -0.04050947102041       -0.45598518833375
H            1.99471837021533        1.98439909232487       -0.37925706467637
H           -0.01312118176921        3.06998877547550       -0.16060298511348
H           -1.47362810853601        2.16833567371754       -0.57099194485172
H           -1.01810544301625        2.38577964824505        1.11710262927536
21
 energy: -25.383951163270 gnorm: 0.000118727634 xtb: 6.7.1 (edcfbbe)
C           -2.63378237233897       -0.68466845825314       -0.75016970069618
C           -1.87713731226947       -0.45332014354170        0.55967930172715
C           -0.40324169321526       -0.29597403018979        0.30168407009270
C            0.39303979528370       -1.43325604039392        0.25542917942469
C            1.74633961051218       -1.35480959865154       -0.01575355828355
C            2.32369869248519       -0.11919848926654       -0.24508306928263
C            1.54040921338341        1.01951403611896       -0.20025947247085
C            0.17899447718875        0.95216572449646        0.06740821532585
C           -0.62817623837618        2.21659682357665        0.11337596484129
H           -2.27032062286965       -1.58486377563871       -1.24076627385599
H           -2.49106417747357        0.15141884052366       -1.43091597261652
H           -3.69888326962211       -0.79826759441144       -0.56017731648040
H           -2.03805474282061       -1.31208368308992        1.21550187042447
H           -2.27730557296063        0.42913397070372        1.05963730365719
H           -0.06006199964642       -2.39796424306239        0.43808165655384
H            2.34638118928665       -2.25249669260699       -0.04655933609895
H            3.37999462401446       -0.04097702817164       -0.45720029984375
H            1.99489056354040        1.98429560534788       -0.37867686617635
H           -0.01242897737567        3.07026761744952       -0.15943375160528
H           -1.47260446240786        2.16900044152542       -0.57163164089491
H           -1.01883849683756        2.38587770761694        1.11697431114099
21
 energy: -25.383951149329 gnorm: 0.000267902950 xtb: 6.7.1 (edcfbbe)
C           -2.63328868024274       -0.68525328943995       -0.75015504100462
C           -1.87727164512367       -0.45292033352870        0.55974819135320
C           -0.40338423515835       -0.29571808462460        0.30193361060425
C            0.39275062686135       -1.43305993993387        0.25561076709827
C            1.74592457113464       -1.35486352997979       -0.01605348445804
C            2.32339535379055       -0.11934340827732       -0.24546039877923
C            1.54039665201405        1.01948522882769       -0.19995035135581
C            0.17901656074061        0.95236062238073        0.06781516746283
C           -0.62792978838911        2.21678275699441        0.11356643400320
H           -2.26863719337758       -1.58496712719913       -1.24074287322504
H           -2.49160145206926        0.15100617355639       -1.43089967304475
H           -3.69825676071292       -0.80022716188833       -0.56032676382062
H           -2.03832461361098       -1.31124877132540        1.21615814657851
H           -2.27764691682636        0.42985752763941        1.05899979149183
H           -0.06051762654453       -2.39763854416835        0.43846848684465
H            2.34577323701453       -2.25263327275252       -0.04734961804002
H            3.37957877540945       -0.04134288700894       -0.45818739681902
H            1.99501562956895        1.98421353737877       -0.37818036702240
H           -0.01191013936023        3.07046237395882       -0.15856524360987
H           -1.47181553963791        2.16947049369746       -0.57213916296589
H           -1.01941858799974        2.38596862577473        1.11685439359140
21
 energy: -25.383951308952 gnorm: 0.000125220487 xtb: 6.7.1 (edcfbbe)
C           -2.63353505814546       -0.68550279877287       -0.75016316157495
C           -1.87730931562296       -0.45287849947997        0.55970127759367
C           -0.40336495497282       -0.29562393379745        0.30187354952285
C            0.39269656234942       -1.43305801852690        0.25546856511156
C            1.74595771071324       -1.35489286539035       -0.01600601059019
C            2.32353630271251       -0.11936357761754       -0.24532593672431
C            1.54046757007376        1.01950101992296       -0.20028794786543
C            0.17906685656210        0.95243423802943        0.06758578438807
C           -0.62783795616189        2.21702304776071        0.11372062376222
H           -2.26859193052201       -1.58518151945634       -1.24061029897732
H           -2.49202881650989        0.15073965685019       -1.43098066823455
H           -3.69849281970268       -0.80075544146441       -0.56032268424301
H           -2.03829080742649       -1.31105123035909        1.21628889458698
H           -2.27776792669841        0.42997195232344        1.05868842541853
H           -0.06058398876167       -2.39766334939593        0.43825348365410
H            2.34577938706003       -2.25271189650133       -0.04709121078852
H            3.37974730413265       -0.04136165314002       -0.45791499191461
H            1.99511465661235        1.98421989521017       -0.37864040875433
H           -0.01166534456189        3.07072536309728       -0.15804606886437
H           -1.47164750877992        2.17000036103385       -0.57210135275863
H           -1.01940169486922        2.38582023975568        1.11705475213503
21
 energy: -25.383951401697 gnorm: 0.000047571681 xtb: 6.7.1 (edcfbbe)
C           -2.63372299522968       -0.68599870940304       -0.75018911607108
C           -1.87738786222251       -0.45270769499839        0.55962481717757
C           -0.40341584645860       -0.29544861434636        0.30166267839380
C            0.39254559481921       -1.43297582233560        0.25524608080151
C            1.74589663431244       -1.35487829940185       -0.01595345088182
C            2.32357282849522       -0.11941702332778       -0.24542514300986
C            1.54052888965570        1.01951667924365       -0.20062555050411
C            0.17914182196108        0.95255772504403        0.06741862451957
C           -0.62765175900497        2.21734947699054        0.11393563566885
H           -2.26844129016546       -1.58563232307744       -1.24046149958005
H           -2.49267419324058        0.15020639386030       -1.43113886212255
H           -3.69858403857754       -0.80167696412226       -0.56009484108157
H           -2.03820801522566       -1.31064342144061        1.21650671280593
H           -2.27793950683529        0.43029901242401        1.05819485322199
H           -0.06075791359623       -2.39761111237201        0.43783297310715
H            2.34568809000872       -2.25274968219929       -0.04659981896340
H            3.37987214736540       -0.04140249007819       -0.45755460937224
H            1.99521545565639        1.98417688175873       -0.37926967314302
H           -0.01116069667563        3.07107591105815       -0.15701415975868
H           -1.47121379432010        2.17091989925440       -0.57222695583264
H           -1.01945532324112        2.38543116755050        1.11727591950744
