24
 energy: -43.360448342376 gnorm: 0.046168386640 xtb: 6.7.1 (edcfbbe)
C           -2.57780357560825       -0.64768158380611       -0.29733224319845
C           -1.21071619603573       -0.26539330492835        0.23787814955887
H           -1.25221069801713       -0.21037400875316        1.33850084792196
C           -0.70721464358594        1.06491928277643       -0.31939015481854
H           -0.70263677656509        1.01266874063003       -1.42224287264459
C            0.71628335867996        1.30726011241686        0.16021798711598
H            0.70256311322018        1.41144832864035        1.25924283992236
C            1.60056776224620        0.12685719453574       -0.20144953013977
H            1.64916471254199        0.03596959604305       -1.30179289231363
C            0.99513331936257       -1.16222515965286        0.35982544137294
H            0.98305222813444       -1.12964937489340        1.46137082975127
O           -0.31772426364612       -1.32377056802708       -0.15838479394478
O            1.75544946595681       -2.28546820590203        0.01244457896615
O            2.88820681405441        0.38071188135998        0.34988569222297
O            1.16300383799419        2.52013222934535       -0.44347126485261
O           -1.58390236041693        2.08708229458256        0.13497501565462
O           -3.04131160160110       -1.86607632274576        0.26641954468205
H           -2.52256321742309       -0.70658334708977       -1.39715538825959
H           -3.29729826841147        0.12928232186842       -0.02814259389597
H            1.67534514717659       -2.40335795847729       -0.94452492864331
H            3.42539689208990       -0.40947453717010        0.21065862288030
H            2.06929118433214        2.67206706776187       -0.14896442251900
H           -1.16091226828041        2.92972124995644       -0.07413792095918
H           -2.35374398684206       -2.52509674520253        0.10986873065596
24
 energy: -43.362407823768 gnorm: 0.021496306257 xtb: 6.7.1 (edcfbbe)
C           -2.58178102526372       -0.65049131553146       -0.30148758618675
C           -1.20609323636779       -0.27727645217692        0.23757551765437
H           -1.24455830276026       -0.22083382394736        1.33535517703026
C           -0.71538470336630        1.06286598570587       -0.31410693441605
H           -0.71321501257564        1.02286833731171       -1.41542471560354
C            0.71260453902614        1.31837457543691        0.16477810650071
H            0.71259886246621        1.42763824037196        1.26120341465839
C            1.60615845353730        0.13823665980623       -0.20100720028159
H            1.66421438555833        0.05125825264142       -1.29953206861236
C            0.99603293574920       -1.15645259518592        0.35563420019499
H            0.98939520092193       -1.12515661340591        1.45583094605860
O           -0.31170403313906       -1.32429134445722       -0.15033830189319
O            1.75449315979584       -2.26888364789840        0.00621975738530
O            2.88996594841871        0.37869304742676        0.34165626594532
O            1.16097844916049        2.51998317065285       -0.43366918442610
O           -1.58276230981608        2.08024219530102        0.13114115446862
O           -3.04251562399404       -1.85790288321353        0.25572703583768
H           -2.52793933372221       -0.72494013883973       -1.39718205819691
H           -3.30074047057908        0.12360514523743       -0.02857477042456
H            1.65046296523778       -2.41206164077532       -0.94450094144858
H            3.41683526235708       -0.42287939554130        0.22963061300406
H            2.07641327363269        2.65477177190371       -0.15970547133731
H           -1.15698737492382        2.92182223315536       -0.07842825832998
H           -2.35105202999763       -2.51622058070954        0.11350457693465
24
 energy: -43.363097209339 gnorm: 0.006430147035 xtb: 6.7.1 (edcfbbe)
C           -2.57985264088769       -0.65859746113010       -0.30472503552597
C           -1.19806339185841       -0.28369823903073        0.23616658330104
H           -1.24115028803985       -0.22678582943450        1.33277585341851
C           -0.71919681629539        1.06664544290417       -0.30951845556506
H           -0.71340285165949        1.03019355113712       -1.41060326396015
C            0.71375791853333        1.33159526692509        0.16778290546445
H            0.71775263430129        1.43719967691077        1.26378691489713
C            1.61147103066002        0.14909495007427       -0.20220536825894
H            1.67180925429592        0.07027920271379       -1.30086190169827
C            0.99667288870108       -1.15256633279425        0.34754092604738
H            0.99861388032118       -1.11830756006154        1.44832520773834
O           -0.30647583001685       -1.32074570334590       -0.14777824782087
O            1.75402594964804       -2.25490557794566       -0.00636419587544
O            2.88939629936860        0.37729196683956        0.33811940348281
O            1.15566737989500        2.52689755752712       -0.42593021398913
O           -1.58526595425894        2.07298232856121        0.13235297075235
O           -3.04342925284412       -1.85644019156229        0.24803594090251
H           -2.52149040994269       -0.73508396991026       -1.39850261618637
H           -3.29264696976682        0.11900284754361       -0.03041584715705
H            1.61365134999331       -2.43087607389161       -0.94850124841472
H            3.40064977377083       -0.44165148162705        0.26858281647032
H            2.08457902451891        2.64128442177040       -0.18493391142854
H           -1.16222463848211        2.91693322261782       -0.07464145963001
H           -2.34942836059909       -2.51677283152241        0.12581151755168
24
 energy: -43.363254689632 gnorm: 0.007726915699 xtb: 6.7.1 (edcfbbe)
C           -2.57718007151353       -0.66133247267507       -0.30680830331348
C           -1.19437449462182       -0.28476617241621        0.23593652738252
H           -1.24076689730709       -0.22694606600879        1.33312235518206
C           -0.71951689337556        1.06864450759038       -0.30798770857982
H           -0.71033542978525        1.03053869951644       -1.40975603585027
C            0.71495596997123        1.33606638415762        0.16931329282842
H            0.71764975533893        1.43774664302013        1.26635376090721
C            1.61367596986716        0.15405812928492       -0.20372753212158
H            1.67177007208512        0.07984455637584       -1.30344830307468
C            0.99859505596818       -1.15095734109275        0.34242988165517
H            1.00516556420040       -1.11542606380812        1.44433731868781
O           -0.30383677878860       -1.31876786556469       -0.14881622508785
O            1.75749895932716       -2.24982098919601       -0.01602094003746
O            2.88997421859701        0.37716327055368        0.33828952201340
O            1.15278195215973        2.53140195302343       -0.42371169411637
O           -1.58876543465898        2.06937490668025        0.13565008849223
O           -3.04227136267026       -1.85649474394207        0.24757513963887
H           -2.51464991760848       -0.73664246537297       -1.40098489282646
H           -3.28748319701041        0.11968008438543       -0.03522435167863
H            1.59281612090978       -2.44269297410566       -0.95136479297231
H            3.38926229605158       -0.45197329106987        0.29513850969912
H            2.08802286875286        2.63642535914511       -0.20272914059085
H           -1.16968669640427        2.91606440159648       -0.06852541418338
H           -2.34788165012882       -2.51821926680889        0.13525821246232
24
 energy: -43.363384788365 gnorm: 0.007468563121 xtb: 6.7.1 (edcfbbe)
C           -2.57316387205648       -0.66366717673917       -0.30927637307636
C           -1.19072192621110       -0.28515613208828        0.23530077619921
H           -1.24025072700638       -0.22706913698366        1.33337571957292
C           -0.71851794677482        1.07029984380274       -0.30650647380499
H           -0.70631528411859        1.03090530628352       -1.40910707716355
C            0.71641427776441        1.33987739572383        0.17125082659457
H            0.71668324964895        1.43773506294027        1.26961588957651
C            1.61565196281948        0.15988506575400       -0.20560992062112
H            1.67083403326384        0.09112137643051       -1.30664624417521
C            1.00197170795773       -1.14855343461308        0.33637386595471
H            1.01289949011176       -1.11362262397853        1.43962595316084
O           -0.30037397697306       -1.31739616070024       -0.15129277595777
O            1.76448435208639       -2.24429729074164       -0.02896870136694
O            2.89208298534510        0.37744294524779        0.33781159083416
O            1.15023320111412        2.53753769524697       -0.42079051185679
O           -1.59294825737057        2.06540403403538        0.14028676632389
O           -3.04110749191694       -1.85638489972359        0.24902622832650
H           -2.50582925423009       -0.73959803974368       -1.40411085239123
H           -3.28196757577165        0.12128928160300       -0.04368274882751
H            1.56683826559258       -2.45711146921668       -0.95326638423998
H            3.37305295766646       -0.46368475021878        0.32780931321110
H            2.09169637884794        2.63180715398071       -0.22483496335017
H           -1.17940872344681        2.91580644539182       -0.05962445274037
H           -2.34681784698621       -2.51960130842458        0.14753982433357
24
 energy: -43.363447706424 gnorm: 0.004413184830 xtb: 6.7.1 (edcfbbe)
C           -2.57043160479478       -0.66445072361861       -0.31106778528921
C           -1.18928949890078       -0.28522378607610        0.23432183680266
H           -1.23921319130644       -0.22845728737683        1.33269004912597
C           -0.71748754006828        1.07070346201447       -0.30570220398615
H           -0.70527994163561        1.03277292339381       -1.40849977055840
C            0.71672571155591        1.34102883549000        0.17259112551053
H            0.71618576957620        1.43810946430201        1.27131396115419
C            1.61622420393065        0.16318726247635       -0.20668404783890
H            1.67055468080236        0.09690877107688       -1.30806802062064
C            1.00442807398297       -1.14636255285321        0.33334866475324
H            1.01628844728431       -1.11341141172333        1.43699213643066
O           -0.29785441364893       -1.31743086448916       -0.15341011692049
O            1.76980391360984       -2.24081401428214       -0.03611971209056
O            2.89436164575052        0.37795159901879        0.33583472534183
O            1.14928113593144        2.54116722227309       -0.41793643310090
O           -1.59455397686953        2.06372155576076        0.14320670084858
O           -3.04070478287411       -1.85552707533517        0.25086496087918
H           -2.50127538033812       -0.74390215597497       -1.40589585358347
H           -3.27950110077156        0.12202188635576       -0.05014394941043
H            1.55140737901576       -2.46555328439563       -0.95153548042729
H            3.36267051556874       -0.46867908931839        0.34450720639433
H            2.09343873441351        2.62875595154084       -0.23671915604897
H           -1.18353382194191        2.91587828208753       -0.05381704036358
H           -2.34682497891610       -2.51942578707814        0.15422747751384
24
 energy: -43.363483040017 gnorm: 0.001783657251 xtb: 6.7.1 (edcfbbe)
C           -2.56818837008887       -0.66507454771356       -0.31315449422638
C           -1.18871128446524       -0.28553062241090        0.23297020397259
H           -1.23788764817012       -0.23129797139975        1.33118069637225
C           -0.71695112232261        1.07091162310458       -0.30468415408551
H           -0.70653048239443        1.03666644344940       -1.40729496769351
C            0.71639214662466        1.34166034745336        0.17354591885721
H            0.71675911570572        1.43865147332918        1.27210663639882
C            1.61631508776822        0.16599029933372       -0.20839549486746
H            1.67037796194406        0.10022216811521       -1.30950522038064
C            1.00684328285404       -1.14344796609453        0.33152096426141
H            1.01834876203358       -1.11204637258706        1.43498982822471
O           -0.29509481288013       -1.31776311575774       -0.15511991374141
O            1.77453722136405       -2.23713674034899       -0.03992374084050
O            2.89695947081029        0.37960218784387        0.33090200283408
O            1.14856287821657        2.54427181454466       -0.41430350233375
O           -1.59480220100615        2.06313686483861        0.14633322942212
O           -3.04055370001540       -1.85440992322313        0.25212014979150
H           -2.49827989147614       -0.74996839611031       -1.40734619785462
H           -3.27821895001099        0.12169384943769       -0.05612048772009
H            1.53750437388350       -2.47432435456168       -0.94657818143862
H            3.35450116075252       -0.47135465683742        0.35636104366817
H            2.09480288540101        2.62540548486817       -0.24463749717431
H           -1.18409770073013        2.91588510865529       -0.04810839701693
H           -2.34716820444195       -2.51877381466005        0.15744085008690
24
 energy: -43.363492853833 gnorm: 0.001272777838 xtb: 6.7.1 (edcfbbe)
C           -2.56684977585968       -0.66572407353884       -0.31535237556662
C           -1.18883369293112       -0.28571798523615        0.23180179565793
H           -1.23757564292858       -0.23388587647178        1.32966617393548
C           -0.71713575740831        1.07141839259258       -0.30367391396976
H           -0.70910561963041        1.04092636495425       -1.40600187038228
C            0.71593891330207        1.34177837898597        0.17378181485190
H            0.71814647360817        1.43793369430684        1.27209055912057
C            1.61605561654727        0.16730122072343       -0.21067925818259
H            1.66892875303846        0.10072281024543       -1.31135464735140
C            1.00839662979762       -1.14105566991856        0.33128201837807
H            1.01855302090068       -1.10881218820847        1.43436590221299
O           -0.29295736638207       -1.31770812599567       -0.15606316636381
O            1.77692016375508       -2.23491219642760       -0.03883129634406
O            2.89900337566080        0.38165132708497        0.32424674525931
O            1.14811004446150        2.54600248198320       -0.41139574920306
O           -1.59414503081714        2.06368847780651        0.14973213394588
O           -3.04059052487289       -1.85365795290971        0.25241080021258
H           -2.49633982300664       -0.75525366189469       -1.40866118697617
H           -3.27771025129464        0.12085622455269       -0.06077034597260
H            1.52923947755513       -2.48217773059056       -0.93888727485136
H            3.35159269565471       -0.47056494338499        0.35965197490105
H            2.09533013600655        2.62294953625304       -0.24696488414478
H           -1.18152885267363        2.91597022751434       -0.04262892081882
H           -2.34802298312686       -2.51875954915762        0.15653424616757
24
 energy: -43.363496617168 gnorm: 0.000912296250 xtb: 6.7.1 (edcfbbe)
C           -2.56655598081584       -0.66617871050474       -0.31641914018688
C           -1.18882045643576       -0.28581197233686        0.23177366881732
H           -1.23845274666703       -0.23413988518936        1.32957442565962
C           -0.71745619857105        1.07182643831712       -0.30311072381281
H           -0.71010567620710        1.04207234872074       -1.40545382410458
C            0.71609517553862        1.34193424599742        0.17349983895215
H            0.71900939955886        1.43677989776478        1.27193903997070
C            1.61605415813935        0.16741565209342       -0.21222101019219
H            1.66701299972201        0.10010043869080       -1.31290938747931
C            1.00879548719566       -1.14039776370908        0.33173747804044
H            1.01875248985799       -1.10582938670159        1.43481575411005
O           -0.29245329229488       -1.31741915057037       -0.15557496681368
O            1.77722956324675       -2.23460504742380       -0.03625725762235
O            2.89955923447990        0.38283238534866        0.32054104123213
O            1.14796282476249        2.54630307032958       -0.41091524352251
O           -1.59383644496513        2.06392749526396        0.15165062129855
O           -3.04067993539184       -1.85375882258902        0.25157449616732
H           -2.49503595545221       -0.75618286421808       -1.40951076451369
H           -3.27748383706446        0.12058633691779       -0.06261408317627
H            1.52681526573054       -2.48650278609001       -0.93477557743302
H            3.35272333073634       -0.46947759971723        0.35813257290494
H            2.09521887211883        2.62311248638975       -0.24582995415985
H           -1.18010796622405        2.91597217693073       -0.03975165837472
H           -2.34882033164194       -2.51958980044600        0.15440392875463
24
 energy: -43.363499345307 gnorm: 0.001157815748 xtb: 6.7.1 (edcfbbe)
C           -2.56625875220455       -0.66679161360270       -0.31844454696265
C           -1.18908012829494       -0.28571835348049        0.23188520790875
H           -1.24098126945474       -0.23372789742008        1.32963000130212
C           -0.71790240360950        1.07248148085854       -0.30231544725258
H           -0.71187071563723        1.04357303247182       -1.40475948798635
C            0.71657926255889        1.34144922026293        0.17281582798448
H            0.72046105680346        1.43363291118406        1.27158754827827
C            1.61575637490444        0.16646645912134       -0.21487649169289
H            1.66204767574786        0.09748898178800       -1.31571001173132
C            1.00885332196219       -1.13995783954227        0.33371776774963
H            1.01748225071367       -1.10020998258789        1.43682892138007
O           -0.29222178178592       -1.31695842263484       -0.15433134295388
O            1.77654769523273       -2.23574244372783       -0.02901424431073
O            2.90039452449675        0.38446106175558        0.31334123729652
O            1.14808278268000        2.54600660611574       -0.41041973135482
O           -1.59291360986939        2.06468368028442        0.15504201145909
O           -3.04136807338370       -1.85375419874688        0.25003873790246
H           -2.49251477233191       -0.75721613595733       -1.41128916027315
H           -3.27724014717622        0.12052303193147       -0.06634264236539
H            1.52752919264478       -2.49237961004080       -0.92540834100726
H            3.35807844087882       -0.46494932705193        0.34753755646425
H            2.09436849214735        2.62497422055281       -0.24012339285368
H           -1.17686432483752        2.91614571124088       -0.03453221820240
H           -2.35154511282926       -2.52151138950594        0.14944151573745
24
 energy: -43.363501370121 gnorm: 0.000624109416 xtb: 6.7.1 (edcfbbe)
C           -2.56539934258489       -0.66696588037290       -0.31942812918093
C           -1.18871277753279       -0.28597489923226        0.23207867345263
H           -1.24140633653795       -0.23399942415811        1.32983549371332
C           -0.71769892683677        1.07242213106117       -0.30166038664534
H           -0.71202197554599        1.04413806683703       -1.40415279099867
C            0.71678652113509        1.34169921585263        0.17304388278569
H            0.72097840298709        1.43372691644510        1.27188590421094
C            1.61584279014955        0.16720522433530       -0.21558730440570
H            1.66086161992172        0.09785797879546       -1.31646123781377
C            1.00960647901766       -1.13906641671829        0.33403259819489
H            1.01867857351502       -1.09875792529070        1.43714618192581
O           -0.29155509572960       -1.31719882841938       -0.15345650827976
O            1.77799959754341       -2.23482126883616       -0.02858203085906
O            2.90123925465827        0.38486491967788        0.31090696171366
O            1.14767922531468        2.54682815848047       -0.40974220213487
O           -1.59309008599972        2.06405536708322        0.15637220723987
O           -3.04162443400345       -1.85355176797458        0.24884936830776
H           -2.49048995168634       -0.75787416112397       -1.41228911594519
H           -3.27660213778690        0.12059904907233       -0.06869299091442
H            1.52303210777832       -2.49580970031075       -0.92300661714385
H            3.35684132687904       -0.46603318830889        0.34769864836564
H            2.09453011306272        2.62534276699701       -0.24148057389109
H           -1.17779879723129        2.91602691576259       -0.03224218683896
H           -2.35225617113082       -2.52174406638560        0.14923142965739
24
 energy: -43.363502054171 gnorm: 0.000306341492 xtb: 6.7.1 (edcfbbe)
C           -2.56500687890819       -0.66693636716986       -0.31997145378166
C           -1.18862953606292       -0.28616361432753        0.23234208560646
H           -1.24179745053146       -0.23411329278373        1.33006466602621
C           -0.71756322168699        1.07227970404673       -0.30120885189634
H           -0.71204373236730        1.04426415248692       -1.40369372757428
C            0.71692399024979        1.34180288730402        0.17319822325813
H            0.72141071458145        1.43423402246429        1.27198927366915
C            1.61578656453469        0.16737625424970       -0.21560099363524
H            1.66019803991772        0.09763174978469       -1.31646117402672
C            1.00978213832902       -1.13874321417349        0.33457133070286
H            1.01916386421657       -1.09836837165442        1.43761847975166
O           -0.29136768231512       -1.31744396161550       -0.15260727432787
O            1.77837720092210       -2.23450624399210       -0.02824557936399
O            2.90159564320368        0.38455866261272        0.30997533074086
O            1.14747502101227        2.54698588270839       -0.40986207494078
O           -1.59315724673805        2.06357232518597        0.15698639561795
O           -3.04193443577365       -1.85344004695016        0.24763897505230
H           -2.48937386884931       -0.75771466158662       -1.41282256025669
H           -3.27625877715544        0.12067638178508       -0.06964854938808
H            1.52209628026671       -2.49601219176203       -0.92190518947698
H            3.35647902969769       -0.46704625247115        0.34633747634005
H            2.09437475311691        2.62588548755653       -0.24211477400226
H           -1.17857462580312        2.91587695614163       -0.03143836831727
H           -2.35253580450098       -2.52168706457147        0.14915760873851
24
 energy: -43.363502643332 gnorm: 0.000507261252 xtb: 6.7.1 (edcfbbe)
C           -2.56431821014267       -0.66688126194727       -0.32122686648947
C           -1.18859519534344       -0.28644687075992        0.23287414217376
H           -1.24294940706103       -0.23412821142262        1.33051732969007
C           -0.71738885967397        1.07209810217909       -0.30035081474740
H           -0.71210219516999        1.04452772175464       -1.40284142550067
C            0.71714982603644        1.34185760949710        0.17361353838946
H            0.72220255755901        1.43472547119306        1.27233600973939
C            1.61563112964296        0.16744357569955       -0.21556473557321
H            1.65877984684185        0.09724953327067       -1.31645289908966
C            1.01007677208821       -1.13832165945635        0.33578727831139
H            1.02003461443239       -1.09728921283709        1.43873335094486
O           -0.29109698701106       -1.31795021187954       -0.15080402713549
O            1.77901406561957       -2.23413738545250       -0.02691236371279
O            2.90206234889443        0.38399605639504        0.30860018772439
O            1.14709757906940        2.54709116453664       -0.40997444070055
O           -1.59319788326934        2.06290476814351        0.15829493394471
O           -3.04251287367917       -1.85328768299912        0.24525762636083
H           -2.48717253957989       -0.75735592885310       -1.41403827886352
H           -3.27567541671383        0.12087017805326       -0.07170645363680
H            1.51984279996138       -2.49762797182563       -0.91921221967977
H            3.35719823840052       -0.46721339222216        0.34125895122035
H            2.09394827798950        2.62684792993299       -0.24246127770086
H           -1.17958769079987        2.91563511398716       -0.03008752644227
H           -2.35302081873537       -2.52163825171880        0.14865925528923
24
 energy: -43.363502942522 gnorm: 0.000172793660 xtb: 6.7.1 (edcfbbe)
C           -2.56409355636255       -0.66693999861800       -0.32182091302388
C           -1.18869017337694       -0.28645044724487        0.23309664895490
H           -1.24364995822368       -0.23410861081175        1.33071138465117
C           -0.71742336899207        1.07218624759743       -0.29990269689181
H           -0.71235037463604        1.04487976544781       -1.40241508999940
C            0.71727505477683        1.34191289441941        0.17368014890303
H            0.72268543408316        1.43474163669383        1.27240077329189
C            1.61557459313476        0.16739279232846       -0.21569979259290
H            1.65819637445727        0.09699889236257       -1.31660241500881
C            1.01012870187749       -1.13823447360152        0.33620163870683
H            1.02024310491185       -1.09673938835929        1.43916789556443
O           -0.29105159152873       -1.31803336700004       -0.15021974817051
O            1.77895440889589       -2.23418723596629       -0.02635247820398
O            2.90217956709595        0.38421969671671        0.30792951560477
O            1.14696594569794        2.54712655538734       -0.41015108969832
O           -1.59315661454414        2.06285192708478        0.15929994952394
O           -3.04259083372407       -1.85344286684311        0.24432411438869
H           -2.48630057575909       -0.75729555263307       -1.41460115863335
H           -3.27559642635808        0.12082556237056       -0.07265170044835
H            1.51895232947053       -2.49865625512827       -0.91788968155162
H            3.35788575252058       -0.46696809640591        0.33959088306417
H            2.09385763121511        2.62694222402199       -0.24276510972935
H           -1.17968670784969        2.91560608416326       -0.02937736387153
H           -2.35288873742622       -2.52165880271341        0.14834555968597
24
 energy: -43.363503133618 gnorm: 0.000062340012 xtb: 6.7.1 (edcfbbe)
C           -2.56398481023689       -0.66702541999011       -0.32228494833502
C           -1.18885991091988       -0.28637272558474        0.23323957709506
H           -1.24427477713587       -0.23411987237477        1.33081710191398
C           -0.71753652277770        1.07233204089188       -0.29950094433956
H           -0.71272833866226        1.04534294012687       -1.40201722013529
C            0.71731724198646        1.34194953665245        0.17372891822896
H            0.72299373367109        1.43479653291051        1.27243628517243
C            1.61555708366583        0.16736199910045       -0.21573904391870
H            1.65802323483447        0.09680503494422       -1.31662197450234
C            1.01016807899375       -1.13818592361664        0.33647642008673
H            1.02041189652695       -1.09636081780404        1.43945974255340
O           -0.29103915623639       -1.31795030233623       -0.14982252715367
O            1.77880845622549       -2.23424781399877       -0.02598782866973
O            2.90213845332360        0.38460016482439        0.30776826293111
O            1.14701977207610        2.54700400578394       -0.41035187031996
O           -1.59305334504190        2.06298681081572        0.16023676293950
O           -3.04247404418701       -1.85374136402503        0.24352594631007
H           -2.48569675919934       -0.75729007567264       -1.41501588297936
H           -3.27575536013386        0.12057809504211       -0.07335773905981
H            1.51759517029631       -2.50001466567463       -0.91671911309562
H            3.35885187781105       -0.46616898023227        0.33802683583815
H            2.09388797519597        2.62665574112535       -0.24305237515343
H           -1.17956689101513        2.91565314537692       -0.02891314850615
H           -2.35238307970480       -2.52161890301634        0.14796803761524
24
 energy: -43.363503214422 gnorm: 0.000100693705 xtb: 6.7.1 (edcfbbe)
C           -2.56390410776102       -0.66707465022055       -0.32246232186472
C           -1.18890622918234       -0.28628936018964        0.23328008892671
H           -1.24443715096651       -0.23411207992246        1.33085456712559
C           -0.71762753872166        1.07245354477114       -0.29935312165609
H           -0.71297395710308        1.04563591039247       -1.40186987876005
C            0.71727986082697        1.34198946703066        0.17376329716099
H            0.72304274589169        1.43491916100480        1.27246173073020
C            1.61556119061399        0.16737799231786       -0.21555566239413
H            1.65825894802139        0.09682478431114       -1.31641748596042