      -----------------------------------------------------------      
     |                   =====================                   |     
     |                           x T B                           |     
     |                   =====================                   |     
     |                         S. Grimme                         |     
     |          Mulliken Center for Theoretical Chemistry        |     
     |                    University of Bonn                     |     
      -----------------------------------------------------------      

   * xtb version 6.7.1 (edcfbbe) compiled by 'albert@albert-system' on 2024-07-22

   xtb is free software: you can redistribute it and/or modify it under
   the terms of the GNU Lesser General Public License as published by
   the Free Software Foundation, either version 3 of the License, or
   (at your option) any later version.
   
   xtb is distributed in the hope that it will be useful,
   but WITHOUT ANY WARRANTY; without even the implied warranty of
   MERCHANTABILITY or FITNESS FOR A PARTICULAR PURPOSE.  See the
   GNU Lesser General Public License for more details.
   
   Cite this work as:
   * C. Bannwarth, E. Caldeweyher, S. Ehlert, A. Hansen, P. Pracht,
     J. Seibert, S. Spicher, S. Grimme, WIREs Comput. Mol. Sci., 2020, 11,
     e01493. DOI: 10.1002/wcms.1493
   
   for GFN2-xTB:
   * C. Bannwarth, S. Ehlert and S. Grimme., J. Chem. Theory Comput., 2019,
     15, 1652-1671. DOI: 10.1021/acs.jctc.8b01176
   for GFN1-xTB:
   * S. Grimme, C. Bannwarth, P. Shushkov, J. Chem. Theory Comput., 2017,
     13, 1989-2009. DOI: 10.1021/acs.jctc.7b00118
   for GFN0-xTB:
   * P. Pracht, E. Caldeweyher, S. Ehlert, S. Grimme, ChemRxiv, 2019, preprint.
     DOI: 10.26434/chemrxiv.8326202.v1
   for GFN-FF:
   * S. Spicher and S. Grimme, Angew. Chem. Int. Ed., 2020, 59, 15665-15673.
     DOI: 10.1002/anie.202004239
   
   for ALPB and GBSA implicit solvation:
   * S. Ehlert, M. Stahn, S. Spicher, S. Grimme, J. Chem. Theory Comput.,
     2021, 17, 4250-4261. DOI: 10.1021/acs.jctc.1c00471
   
   for ddCOSMO and CPCM-X implicit solvation:
   * M. Stahn, S. Ehlert, S. Grimme, J. Phys. Chem. A,
     2023, XX, XXXX-XXXX. DOI: 10.1021/acs.jpca.3c04382
   
   for DFT-D4:
   * E. Caldeweyher, C. Bannwarth and S. Grimme, J. Chem. Phys., 2017,
     147, 034112. DOI: 10.1063/1.4993215
   * E. Caldeweyher, S. Ehlert, A. Hansen, H. Neugebauer, S. Spicher,
     C. Bannwarth and S. Grimme, J. Chem. Phys., 2019, 150, 154122.
     DOI: 10.1063/1.5090222
   * E. Caldeweyher, J.-M. Mewes, S. Ehlert and S. Grimme, Phys. Chem. Chem. Phys.
     2020, 22, 8499-8512. DOI: 10.1039/D0CP00502A
   
   for sTDA-xTB:
   * S. Grimme and C. Bannwarth, J. Chem. Phys., 2016, 145, 054103.
     DOI: 10.1063/1.4959605
   
   in the mass-spec context:
   * V. Asgeirsson, C. Bauer and S. Grimme, Chem. Sci., 2017, 8, 4879.
     DOI: 10.1039/c7sc00601b
   * J. Koopman and S. Grimme, ACS Omega 2019, 4, 12, 15120-15133.
     DOI: 10.1021/acsomega.9b02011
   
   for metadynamics refer to:
   * S. Grimme, J. Chem. Theory Comput., 2019, 155, 2847-2862
     DOI: 10.1021/acs.jctc.9b00143
   
   for SPH calculations refer to:
   * S. Spicher and S. Grimme, J. Chem. Theory Comput., 2021, 17, 1701-1714
     DOI: 10.1021/acs.jctc.0c01306
   
   for ONIOM refer to:
   * C. Plett, A. Katbashev, S. Ehlert, S. Grimme, M. Bursch,
     Phys. Chem. Chem. Phys., 2023, 25, 17860-17868. DOI: 10.1039/D3CP02178E
   
   for DIPRO refer to:
   * J. Kohn, N. Gildemeister, S. Grimme, D. Fazzi, A. Hansen,
     J. Chem. Phys., 2023, just accepted.
   
   for PTB refer to:
   * S. Grimme, M. Mueller, A. Hansen, J. Chem. Phys., 2023, 158, 124111.
     DOI: 10.1063/5.0137838
   
   with help from (in alphabetical order)
   P. Atkinson, C. Bannwarth, F. Bohle, G. Brandenburg, E. Caldeweyher
   M. Checinski, S. Dohm, S. Ehlert, S. Ehrlich, I. Gerasimov, C. Hölzer
   A. Katbashev, J. Kohn, J. Koopman, C. Lavigne, S. Lehtola, F. März, M. Müller,
   F. Musil, H. Neugebauer, J. Pisarek, C. Plett, P. Pracht, F. Pultar,
   J. Seibert, P. Shushkov, S. Spicher, M. Stahn, M. Steiner, T. Strunk,
   J. Stückrath, T. Rose, and J. Unsleber
   
 * started run on 2025/04/15 at 19:06:53.139     
   ID    Z sym.   atoms
    1    6 C      1-5, 7, 8
    2    7 N      6
    3    1 H      9-17

           -------------------------------------------------
          |                Calculation Setup                |
           -------------------------------------------------

          program call               : /software/projects/pawsey0265/mwang1/xtb/bin/xtb xtb_rrho.coord --gfn2 --ohess vtight --chrg 0 --enso --norestart -I rrho-xcontrol-inp --parallel 1
          hostname                   : nid002793
          coordinate file            : xtb_rrho.coord
          omp threads                :                     1


           -------------------------------------------------
          |                 G F N 2 - x T B                 |
           -------------------------------------------------

        Reference                      10.1021/acs.jctc.8b01176
      * Hamiltonian:
        H0-scaling (s, p, d)           1.850000    2.230000    2.230000
        zeta-weighting                 0.500000
      * Dispersion:
        s8                             2.700000
        a1                             0.520000
        a2                             5.000000
        s9                             5.000000
      * Repulsion:
        kExp                           1.500000    1.000000
        rExp                           1.000000
      * Coulomb:
        alpha                          2.000000
        third order                    shell-resolved
        anisotropic                    true
        a3                             3.000000
        a5                             4.000000
        cn-shift                       1.200000
        cn-exp                         4.000000
        max-rad                        5.000000


          ...................................................
          :                      SETUP                      :
          :.................................................:
          :  # basis functions                  41          :
          :  # atomic orbitals                  41          :
          :  # shells                           25          :
          :  # electrons                        42          :
          :  max. iterations                   250          :
          :  Hamiltonian                  GFN2-xTB          :
          :  restarted?                      false          :
          :  GBSA solvation                  false          :
          :  PC potential                    false          :
          :  electronic temp.          300.0000000     K    :
          :  accuracy                    1.0000000          :
          :  -> integral cutoff          0.2500000E+02      :
          :  -> integral neglect         0.1000000E-07      :
          :  -> SCF convergence          0.1000000E-05 Eh   :
          :  -> wf. convergence          0.1000000E-03 e    :
          :  Broyden damping             0.4000000          :
          :  net charge                          0          :
          :  unpaired electrons                  0          :
          ...................................................

 iter      E             dE          RMSdq      gap      omega  full diag
   1    -22.8407033 -0.228407E+02  0.401E+00    3.66       0.0  T
   2    -22.8562829 -0.155796E-01  0.239E+00    3.54       1.0  T
   3    -22.8554257  0.857136E-03  0.647E-01    3.34       1.0  T
   4    -22.8570901 -0.166438E-02  0.280E-01    3.28       1.0  T
   5    -22.8579214 -0.831291E-03  0.681E-02    3.30       1.0  T
   6    -22.8579506 -0.292156E-04  0.316E-02    3.29       1.0  T
   7    -22.8579516 -0.995071E-06  0.101E-02    3.29       2.4  T
   8    -22.8579519 -0.303903E-06  0.302E-03    3.30       8.0  T
   9    -22.8579520 -0.930926E-07  0.121E-03    3.30      20.0  T
  10    -22.8579520 -0.157771E-08  0.224E-04    3.30     108.4  T
  11    -22.8579520 -0.215309E-09  0.124E-04    3.30     196.2  T

   *** convergence criteria satisfied after 11 iterations ***

         #    Occupation            Energy/Eh            Energy/eV
      -------------------------------------------------------------
         1        2.0000           -0.6532414             -17.7756
       ...           ...                  ...                  ...
        15        2.0000           -0.4703957             -12.8001
        16        2.0000           -0.4678328             -12.7304
        17        2.0000           -0.4517048             -12.2915
        18        2.0000           -0.4306841             -11.7195
        19        2.0000           -0.4210528             -11.4574
        20        2.0000           -0.3952251             -10.7546
        21        2.0000           -0.3610373              -9.8243 (HOMO)
        22                         -0.2399262              -6.5287 (LUMO)
        23                         -0.2267560              -6.1703
        24                         -0.1075196              -2.9258
        25                          0.0914964               2.4897
        26                          0.0997646               2.7147
       ...                                ...                  ...
        41                          0.6143714              16.7179
      -------------------------------------------------------------
                  HL-Gap            0.1211112 Eh            3.2956 eV
             Fermi-level           -0.3004818 Eh           -8.1765 eV

 SCC (total)                   0 d,  0 h,  0 min,  0.023 sec
 SCC setup                      ...        0 min,  0.000 sec (  1.009%)
 Dispersion                     ...        0 min,  0.000 sec (  0.594%)
 classical contributions        ...        0 min,  0.000 sec (  0.168%)
 integral evaluation            ...        0 min,  0.002 sec (  9.875%)
 iterations                     ...        0 min,  0.014 sec ( 62.605%)
 molecular gradient             ...        0 min,  0.006 sec ( 25.024%)
 printout                       ...        0 min,  0.000 sec (  0.620%)

         :::::::::::::::::::::::::::::::::::::::::::::::::::::
         ::                     SUMMARY                     ::
         :::::::::::::::::::::::::::::::::::::::::::::::::::::
         :: total energy             -22.493420847018 Eh    ::
         :: gradient norm              0.023922133793 Eh/a0 ::
         :: HOMO-LUMO gap              3.295602480942 eV    ::
         ::.................................................::
         :: SCC energy               -22.857911517231 Eh    ::
         :: -> isotropic ES            0.010190674881 Eh    ::
         :: -> anisotropic ES          0.004172023187 Eh    ::
         :: -> anisotropic XC          0.019151008967 Eh    ::
         :: -> dispersion             -0.012631269086 Eh    ::
         :: repulsion energy           0.364490670212 Eh    ::
         :: add. restraining           0.000000000000 Eh    ::
         :: total charge               0.000000000000 e     ::
         :::::::::::::::::::::::::::::::::::::::::::::::::::::

      ----------------------------------------------------------- 
     |                   =====================                   |
     |                        A N C O P T                        |
     |                   =====================                   |
     |               Approximate Normal Coordinate               |
     |                Rational Function Optimizer                |
      ----------------------------------------------------------- 
      ----------------------------------------------------------- 
     |                   =====================                   |
     |                        A N C O P T                        |
     |                   =====================                   |
     |               Approximate Normal Coordinate               |
     |                Rational Function Optimizer                |
      ----------------------------------------------------------- 

          ...................................................
          :                      SETUP                      :
          :.................................................:
          :   optimization level         verytight          :
          :   max. optcycles                   340          :
          :   ANC micro-cycles                  20          :
          :   degrees of freedom                45          :
          :.................................................:
          :   RF solver                   davidson          :
          :   write xtbopt.log                true          :
          :   linear?                        false          :
          :   energy convergence         0.1000000E-06 Eh   :
          :   grad. convergence          0.2000000E-03 Eh/α :
          :   maxmium RF displ.          1.0000000          :
          :   Hlow (freq-cutoff)         0.1000000E-01      :
          :   Hmax (freq-cutoff)         5.0000000          :
          :   S6 in model hess.         20.0000000          :
          ...................................................

generating ANC from exact Hessian ...
Using Lindh-Hessian (1995)
 Shifting diagonal of input Hessian by   6.338622941250770E-003
 Lowest  eigenvalues of input Hessian
    0.000000    0.000000    0.000000    0.000000    0.000000    0.000000
    0.010000    0.014562    0.015408    0.016071    0.016306    0.025760
    0.030879    0.044434    0.047149    0.050343    0.060926    0.072805
 Highest eigenvalues
    1.375204    1.543801    1.567996    1.885285    1.970682    2.060075
 

........................................................................
.............................. CYCLE    1 ..............................
........................................................................

 iter      E             dE          RMSdq      gap      omega  full diag
   1    -22.8579520 -0.228580E+02  0.413E-05    3.30       0.0  T
   2    -22.8579520 -0.117630E-10  0.239E-05    3.30    1015.6  T
   3    -22.8579520 -0.522959E-11  0.130E-05    3.30    1867.8  T
     SCC iter.                  ...        0 min,  0.001 sec
     gradient                   ...        0 min,  0.006 sec
 * total energy  :   -22.4934208 Eh     change       -0.5872991E-10 Eh
   gradient norm :     0.0239226 Eh/α   predicted     0.0000000E+00 (-100.00%)
   displ. norm   :     0.1191068 α      lambda       -0.1629042E-02
   maximum displ.:     0.0859956 α      in ANC's #11, #12, #14, ...

........................................................................
.............................. CYCLE    2 ..............................
........................................................................

 iter      E             dE          RMSdq      gap      omega  full diag
   1    -22.8736614 -0.228737E+02  0.128E-01    3.32       0.0  T
   2    -22.8736703 -0.882361E-05  0.798E-02    3.34       1.0  T
   3    -22.8736554  0.148615E-04  0.346E-02    3.33       1.0  T
   4    -22.8736748 -0.194467E-04  0.523E-03    3.33       4.6  T
   5    -22.8736750 -0.126588E-06  0.223E-03    3.33      10.9  T
   6    -22.8736750 -0.626656E-09  0.932E-04    3.33      26.0  T
   7    -22.8736750 -0.674773E-08  0.138E-04    3.33     175.4  T
     SCC iter.                  ...        0 min,  0.003 sec
     gradient                   ...        0 min,  0.006 sec
 * total energy  :   -22.4944021 Eh     change       -0.9812329E-03 Eh
   gradient norm :     0.0072514 Eh/α   predicted    -0.8260777E-03 ( -15.81%)
   displ. norm   :     0.0319880 α      lambda       -0.1106016E-03
   maximum displ.:     0.0189765 α      in ANC's #11, #7, #26, ...

........................................................................
.............................. CYCLE    3 ..............................
........................................................................

 iter      E             dE          RMSdq      gap      omega  full diag
   1    -22.8775948 -0.228776E+02  0.301E-02    3.33       0.0  T
   2    -22.8775958 -0.998842E-06  0.195E-02    3.34       1.2  T
   3    -22.8775953  0.565510E-06  0.905E-03    3.34       2.7  T
   4    -22.8775962 -0.958817E-06  0.176E-03    3.34      13.8  T
   5    -22.8775962 -0.204465E-07  0.575E-04    3.34      42.2  T
   6    -22.8775962 -0.381668E-09  0.321E-04    3.34      75.6  T
     SCC iter.                  ...        0 min,  0.003 sec
     gradient                   ...        0 min,  0.006 sec
 * total energy  :   -22.4944614 Eh     change       -0.5931877E-04 Eh
   gradient norm :     0.0012975 Eh/α   predicted    -0.5535828E-04 (  -6.68%)
   displ. norm   :     0.0122302 α      lambda       -0.4771842E-05
   maximum displ.:     0.0074709 α      in ANC's #7, #5, #17, ...

........................................................................
.............................. CYCLE    4 ..............................
........................................................................

 iter      E             dE          RMSdq      gap      omega  full diag
   1    -22.8774975 -0.228775E+02  0.917E-03    3.33       0.0  T
   2    -22.8774975 -0.240082E-07  0.547E-03    3.33       4.4  T
   3    -22.8774974  0.686149E-07  0.203E-03    3.33      11.9  T
   4    -22.8774975 -0.841728E-07  0.247E-04    3.33      98.3  T
   5    -22.8774975 -0.159371E-09  0.116E-04    3.33     209.3  T
     SCC iter.                  ...        0 min,  0.002 sec
     gradient                   ...        0 min,  0.006 sec
 * total energy  :   -22.4944650 Eh     change       -0.3641359E-05 Eh
   gradient norm :     0.0004710 Eh/α   predicted    -0.2384461E-05 ( -34.52%)
   displ. norm   :     0.0036599 α      lambda       -0.3410236E-06
   maximum displ.:     0.0031593 α      in ANC's #5, #11, #16, ...

........................................................................
.............................. CYCLE    5 ..............................
........................................................................

 iter      E             dE          RMSdq      gap      omega  full diag
   1    -22.8772731 -0.228773E+02  0.196E-03    3.33       0.0  T
   2    -22.8772731 -0.848329E-08  0.135E-03    3.33      18.0  T
   3    -22.8772731 -0.539952E-09  0.671E-04    3.33      36.2  T
   4    -22.8772731 -0.288670E-08  0.163E-04    3.33     149.0  T
     SCC iter.                  ...        0 min,  0.002 sec
     gradient                   ...        0 min,  0.006 sec
 * total energy  :   -22.4944653 Eh     change       -0.2409247E-06 Eh
   gradient norm :     0.0000977 Eh/α   predicted    -0.1697097E-06 ( -29.56%)
   displ. norm   :     0.0012021 α      lambda       -0.3170751E-07
   maximum displ.:     0.0010222 α      in ANC's #5, #11, #26, ...

........................................................................
.............................. CYCLE    6 ..............................
........................................................................

 iter      E             dE          RMSdq      gap      omega  full diag
   1    -22.8773451 -0.228773E+02  0.661E-04    3.33       0.0  T
   2    -22.8773451 -0.152898E-09  0.394E-04    3.33      61.6  T
   3    -22.8773451  0.263569E-09  0.141E-04    3.33     171.9  T
     SCC iter.                  ...        0 min,  0.001 sec
     gradient                   ...        0 min,  0.006 sec
 * total energy  :   -22.4944653 Eh     change       -0.2267300E-07 Eh
   gradient norm :     0.0000318 Eh/α   predicted    -0.1479641E-07 ( -34.74%)
   displ. norm   :     0.0001651 α      lambda       -0.9441188E-09
   maximum displ.:     0.0001191 α      in ANC's #5, #10, #1, ...

   *** GEOMETRY OPTIMIZATION CONVERGED AFTER 6 ITERATIONS ***

------------------------------------------------------------------------
 total energy gain   :        -0.0010445 Eh       -0.6554 kcal/mol
 total RMSD          :         0.0365068 a0        0.0193 Å
 total power (kW/mol):        -0.4570368 (step)  -40.8928 (real)
------------------------------------------------------------------------

 ANCopt (total)                0 d,  0 h,  0 min,  0.067 sec
 optimizer setup                ...        0 min,  0.000 sec (  0.692%)
 model hessian                  ...        0 min,  0.004 sec (  5.531%)
 ANC generation                 ...        0 min,  0.001 sec (  0.777%)
 coordinate transformation      ...        0 min,  0.000 sec (  0.074%)
 single point calculation       ...        0 min,  0.060 sec ( 89.449%)
 optimization log               ...        0 min,  0.001 sec (  1.582%)
 hessian update                 ...        0 min,  0.000 sec (  0.068%)
 rational function              ...        0 min,  0.001 sec (  1.309%)

================
 final structure:
================
$coord
       -3.48059484322948        2.72510372958966       -0.00001436609390      C
       -1.00733643747361        1.35625476033409        0.00001635294425      C
        1.26953632113631        2.65637964956677       -0.00003284901155      C
        3.52727503366021        1.32920909638938       -0.00001141103371      C
        3.41024937788628       -1.28352236881000        0.00005646397175      C
        1.25852225744240       -2.55025666648229        0.00010086743859      N
       -0.90428021001603       -1.29056843133730        0.00008963818017      C
       -3.25869902493062       -2.85692067936276        0.00018922773497      C
       -3.18541287607461        4.75883710465832        0.00006302761006      H
       -4.58599218764019        2.21978737175996       -1.66216813535483      H
       -4.58612256247107        2.21967292762566        1.66201638559424      H
        1.27431330964038        4.70075167807701       -0.00008068588729      H
        5.32029379616058        2.30022846759343       -0.00006816069285      H
        5.10538016094124       -2.42800256654815        0.00000945889002      H
       -4.39810170657328       -2.44971728184197       -1.66467540888671      H
       -2.74653550537592       -4.84372942641133        0.00022324003811      H
       -4.39801561593862       -2.44964244728832        1.66509583534419      H
$end
 
 Bond Distances (Angstroems)
 ---------------------------
C1-C2=1.4959         C1-H9=1.0875         C1-H10=1.0896        C1-H11=1.0896        C2-C1=1.4959         C2-C3=1.3875         
C2-C7=1.4017         C3-C2=1.3875         C3-C4=1.3859         C3-H12=1.0818        C4-C3=1.3859         C4-C5=1.3840         
C4-H13=1.0790        C5-C4=1.3840         C5-N6=1.3213         C5-H14=1.0823        N6-C5=1.3213         N6-C7=1.3245         
C7-C2=1.4017         C7-N6=1.3245         C7-C8=1.4964         C8-C7=1.4964         C8-H15=1.0891        C8-H16=1.0857        
C8-H17=1.0891        H9-C1=1.0875         H10-C1=1.0896        H11-C1=1.0896        H12-C3=1.0818        H13-C4=1.0790        
H14-C5=1.0823        H15-C8=1.0891        H16-C8=1.0857        H17-C8=1.0891        
 C  H  Rav=1.0860 sigma=0.0038  Rmin=1.0790  Rmax=1.0896     9
 C  C  Rav=1.4252 sigma=0.0505  Rmin=1.3840  Rmax=1.4964     6
 N  C  Rav=1.3229 sigma=0.0016  Rmin=1.3213  Rmax=1.3245     2
 
 selected bond angles (degree)
 --------------------
H9-C1-C2=110.70                H10-C1-C2=110.54               H10-C1-H9=108.66               H11-C1-C2=110.54               
H11-C1-H9=108.66               H11-C1-H10=107.64              C3-C2-C1=121.31                C7-C2-C1=121.19                
C7-C2-C3=117.50                C4-C3-C2=119.82                H12-C3-C2=119.86               H12-C3-C4=120.31               
C5-C4-C3=117.88                H13-C4-C3=121.11               H13-C4-C5=121.00               N6-C5-C4=123.05                
H14-C5-C4=121.46               H14-C5-N6=115.49               C7-N6-C5=119.30                N6-C7-C2=122.45                
C8-C7-C2=121.41                C8-C7-N6=116.15                H15-C8-C7=110.57               H16-C8-C7=109.18               
H16-C8-H15=109.26              H17-C8-C7=110.57               H17-C8-H15=107.98              H17-C8-H16=109.26              
 
 selected dihedral angles (degree)
 ---------------------------------
C3-C2-C1-H9=  0.00            C3-C2-C1-H10=120.46           C3-C2-C1-H11=239.54           C7-C2-C1-H9=180.00            
C7-C2-C1-H10=300.46           C7-C2-C1-H11= 59.54           C4-C3-C2-C1=180.00            C4-C3-C2-C7=  0.00            
H12-C3-C2-C1=  0.00           H12-C3-C2-C7=180.00           C5-C4-C3-C2=  0.00            C5-C4-C3-H12=180.00           
H13-C4-C3-C2=180.00           H13-C4-C3-H12=  0.00          N6-C5-C4-C3=  0.00            N6-C5-C4-H13=180.00           
H14-C5-C4-C3=180.00           H14-C5-C4-H13=  0.00          C7-N6-C5-C4=  0.00            C7-N6-C5-H14=180.00           
N6-C7-C2-C1=180.00            N6-C7-C2-C3=  0.00            C8-C7-C2-C1=  0.00            C8-C7-C2-C3=180.00            
C2-C7-N6-C5=  0.00            C8-C7-N6-C5=180.00            H15-C8-C7-C2= 59.77           H15-C8-C7-N6=239.77           
H16-C8-C7-C2=180.00           H16-C8-C7-N6=  0.00           H17-C8-C7-C2=300.23           H17-C8-C7-N6=120.23           
           -------------------------------------------------
          |                Final Singlepoint                |
           -------------------------------------------------

          ...................................................
          :                      SETUP                      :
          :.................................................:
          :  # basis functions                  41          :
          :  # atomic orbitals                  41          :
          :  # shells                           25          :
          :  # electrons                        42          :
          :  max. iterations                   250          :
          :  Hamiltonian                  GFN2-xTB          :
          :  restarted?                      false          :
          :  GBSA solvation                  false          :
          :  PC potential                    false          :
          :  electronic temp.          300.0000000     K    :
          :  accuracy                    1.0000000          :
          :  -> integral cutoff          0.2500000E+02      :
          :  -> integral neglect         0.1000000E-07      :
          :  -> SCF convergence          0.1000000E-05 Eh   :
          :  -> wf. convergence          0.1000000E-03 e    :
          :  Broyden damping             0.4000000          :
          :  net charge                          0          :
          :  unpaired electrons                  0          :
          ...................................................

 iter      E             dE          RMSdq      gap      omega  full diag
   1    -22.8773451 -0.228773E+02  0.261E-05    3.33       0.0  T
   2    -22.8773451 -0.254019E-11  0.141E-05    3.33    1718.8  T
   3    -22.8773451 -0.180123E-11  0.918E-06    3.33    2642.3  T

   *** convergence criteria satisfied after 3 iterations ***

         #    Occupation            Energy/Eh            Energy/eV
      -------------------------------------------------------------
         1        2.0000           -0.6555461             -17.8383
       ...           ...                  ...                  ...
        15        2.0000           -0.4719000             -12.8411
        16        2.0000           -0.4679749             -12.7342
        17        2.0000           -0.4519002             -12.2968
        18        2.0000           -0.4297231             -11.6934
        19        2.0000           -0.4218614             -11.4794
        20        2.0000           -0.3953165             -10.7571
        21        2.0000           -0.3590055              -9.7690 (HOMO)
        22                         -0.2364679              -6.4346 (LUMO)
        23                         -0.2247197              -6.1149
        24                         -0.1018834              -2.7724
        25                          0.1052431               2.8638
        26                          0.1097154               2.9855
       ...                                ...                  ...
        41                          0.6395900              17.4041
      -------------------------------------------------------------
                  HL-Gap            0.1225376 Eh            3.3344 eV
             Fermi-level           -0.2977367 Eh           -8.1018 eV

 SCC (total)                   0 d,  0 h,  0 min,  0.009 sec
 SCC setup                      ...        0 min,  0.000 sec (  1.300%)
 Dispersion                     ...        0 min,  0.000 sec (  0.617%)
 classical contributions        ...        0 min,  0.000 sec (  0.190%)
 integral evaluation            ...        0 min,  0.002 sec ( 23.197%)
 iterations                     ...        0 min,  0.001 sec ( 13.889%)
 molecular gradient             ...        0 min,  0.006 sec ( 59.468%)
 printout                       ...        0 min,  0.000 sec (  1.087%)

         :::::::::::::::::::::::::::::::::::::::::::::::::::::
         ::                     SUMMARY                     ::
         :::::::::::::::::::::::::::::::::::::::::::::::::::::
         :: total energy             -22.494465304051 Eh    ::
         :: gradient norm              0.000031170083 Eh/a0 ::
         :: HOMO-LUMO gap              3.334417104725 eV    ::
         ::.................................................::
         :: SCC energy               -22.877304870529 Eh    ::
         :: -> isotropic ES            0.010285908977 Eh    ::
         :: -> anisotropic ES          0.003726671005 Eh    ::
         :: -> anisotropic XC          0.018660126281 Eh    ::
         :: -> dispersion             -0.012688041461 Eh    ::
         :: repulsion energy           0.382839566477 Eh    ::
         :: add. restraining           0.000000000000 Eh    ::
         :: total charge              -0.000000000000 e     ::
         :::::::::::::::::::::::::::::::::::::::::::::::::::::

           ------------------------------------------------- 
          |                Numerical Hessian                |
           ------------------------------------------------- 
step length          :   0.00500
SCC accuracy         :   0.30000
Hessian scale factor :   1.00000
frozen atoms in %    :   0.00000    0
RMS gradient         :   0.00003
estimated CPU  time      0.02 min
estimated wall time      0.02 min

writing file <hessian>.

 projected vibrational frequencies (cm⁻¹)
eigval :       -0.00    -0.00    -0.00     0.00     0.00     0.00
eigval :      121.23   143.73   169.41   254.98   286.41   394.76
eigval :      410.36   482.05   502.77   570.49   691.62   774.96
eigval :      789.58   851.46   909.21   920.78   990.64  1007.83
eigval :     1019.24  1032.42  1114.71  1139.04  1193.27  1244.64
eigval :     1269.12  1294.20  1388.03  1406.32  1428.05  1445.30
eigval :     1469.31  1471.31  1483.11  1486.51  1571.00  1586.43
eigval :     3000.54  3005.12  3013.14  3018.39  3038.60  3053.58
eigval :     3057.85  3066.91  3091.01
           -------------------------------------------------
          |                Property Printout                |
           -------------------------------------------------

    * Orbital Energies and Occupations

         #    Occupation            Energy/Eh            Energy/eV
      -------------------------------------------------------------
         1        2.0000           -0.6555460             -17.8383
       ...           ...                  ...                  ...
         9        2.0000           -0.5185753             -14.1112
        10        2.0000           -0.5137061             -13.9787
        11        2.0000           -0.4931911             -13.4204
        12        2.0000           -0.4826844             -13.1345
        13        2.0000           -0.4744690             -12.9110
        14        2.0000           -0.4719026             -12.8411
        15        2.0000           -0.4719000             -12.8411
        16        2.0000           -0.4679749             -12.7342
        17        2.0000           -0.4519002             -12.2968
        18        2.0000           -0.4297231             -11.6934
        19        2.0000           -0.4218614             -11.4794
        20        2.0000           -0.3953165             -10.7571
        21        2.0000           -0.3590054              -9.7690 (HOMO)
        22                         -0.2364679              -6.4346 (LUMO)
        23                         -0.2247197              -6.1149
        24                         -0.1018834              -2.7724
        25                          0.1052431               2.8638
        26                          0.1097154               2.9855
        27                          0.1353609               3.6834
        28                          0.1494756               4.0674
        29                          0.1705354               4.6405
        30                          0.1795125               4.8848
        31                          0.1909574               5.1962
        32                          0.2012540               5.4764
       ...                                ...                  ...
        41                          0.6395900              17.4041
      -------------------------------------------------------------
                  HL-Gap            0.1225375 Eh            3.3344 eV
             Fermi-level           -0.2977367 Eh           -8.1018 eV

     #   Z          covCN         q      C6AA      α(0)
     1   6 C        3.757    -0.107    22.605     6.779
     2   6 C        2.964    -0.003    28.097     8.694
     3   6 C        2.933    -0.024    28.611     8.772
     4   6 C        2.912    -0.047    29.155     8.854
     5   6 C        2.905     0.053    26.805     8.489
     6   7 N        1.843    -0.237    27.058     7.709
     7   6 C        2.956     0.094    25.916     8.350
     8   6 C        3.760    -0.117    22.790     6.806
     9   1 H        0.925     0.041     2.434     2.440
    10   1 H        0.925     0.047     2.356     2.400
    11   1 H        0.925     0.047     2.356     2.400
    12   1 H        0.925     0.029     2.603     2.523
    13   1 H        0.926     0.030     2.587     2.515
    14   1 H        0.925     0.033     2.546     2.495
    15   1 H        0.925     0.049     2.329     2.386
    16   1 H        0.925     0.063     2.163     2.300
    17   1 H        0.925     0.049     2.329     2.386

 Mol. C6AA /au·bohr⁶  :       3019.681402
 Mol. C8AA /au·bohr⁸  :      70470.181221
 Mol. α(0) /au        :         86.299837


Wiberg/Mayer (AO) data.
largest (>0.10) Wiberg bond orders for each atom

 ---------------------------------------------------------------------------
     #   Z sym  total        # sym  WBO       # sym  WBO       # sym  WBO
 ---------------------------------------------------------------------------
     1   6 C    3.996 --     2 C    1.029     9 H    0.985    11 H    0.970
                            10 H    0.970
     2   6 C    3.989 --     3 C    1.431     7 C    1.352     1 C    1.029
                             5 C    0.112
     3   6 C    3.992 --     4 C    1.433     2 C    1.431    12 H    0.968
     4   6 C    3.992 --     3 C    1.433     5 C    1.431    13 H    0.971
                             7 C    0.109
     5   6 C    3.984 --     6 N    1.432     4 C    1.431    14 H    0.964
                             2 C    0.112
     6   7 N    3.061 --     5 C    1.432     7 C    1.423
     7   6 C    3.980 --     6 N    1.423     2 C    1.352     8 C    1.026
                             4 C    0.109
     8   6 C    3.995 --     7 C    1.026    16 H    0.984    15 H    0.968
                            17 H    0.968
     9   1 H    0.998 --     1 C    0.985
    10   1 H    0.998 --     1 C    0.970
    11   1 H    0.998 --     1 C    0.970
    12   1 H    0.999 --     3 C    0.968
    13   1 H    0.998 --     4 C    0.971
    14   1 H    0.998 --     5 C    0.964
    15   1 H    0.998 --     8 C    0.968
    16   1 H    0.996 --     8 C    0.984
    17   1 H    0.998 --     8 C    0.968
 ---------------------------------------------------------------------------

Topologies differ in total number of bonds
Writing topology from bond orders to xtbtopo.mol

molecular dipole:
                 x           y           z       tot (Debye)
 q only:       -0.445       0.310      -0.000
   full:       -0.446       0.735      -0.000       2.185
molecular quadrupole (traceless):
                xx          xy          yy          xz          yz          zz
 q only:        2.849       1.082      -0.966      -0.000      -0.000      -1.882
  q+dip:        4.801       1.706      -1.211      -0.000      -0.000      -3.590
   full:        4.083       1.732      -2.799      -0.000       0.000      -1.285

           -------------------------------------------------
          |                Geometry Summary                 |
           -------------------------------------------------

      molecular mass/u    :      107.1533213
   center of mass at/Å    :       -0.0000014      -0.0000049       0.0000264
  moments of inertia/u·Å² :        0.1566446E+03   0.2219320E+03   0.3723282E+03
rotational constants/cm⁻¹ :        0.1076171E+00   0.7595856E-01   0.4527627E-01

 * 15 selected distances

     #   Z          #   Z                                           value/Å
     2   6 C        3   6 C                                       1.3874614
     3   6 C        4   6 C                                       1.3858753
     4   6 C        5   6 C                                       1.3839843
     5   6 C        6   7 N                                       1.3213065
     2   6 C        7   6 C                                       1.4016999 (max)
     6   7 N        7   6 C                                       1.3244799
     1   6 C        9   1 H                                       1.0874823
     1   6 C       10   1 H                                       1.0896431
     1   6 C       11   1 H                                       1.0896424
     3   6 C       12   1 H                                       1.0818381
     4   6 C       13   1 H                                       1.0790280 (min)
     5   6 C       14   1 H                                       1.0823329
     8   6 C       15   1 H                                       1.0891064
     8   6 C       16   1 H                                       1.0857449
     8   6 C       17   1 H                                       1.0891070

 * 3 distinct bonds (by element types)

   Z      Z             #   av. dist./Å        max./Å        min./Å
   1 H    6 C           9     1.0859917     1.0896431     1.0790280
   6 C    6 C           4     1.3897552     1.4016999     1.3839843
   6 C    7 N           2     1.3228932     1.3244799     1.3213065

           -------------------------------------------------
          |               Frequency Printout                |
           -------------------------------------------------
 projected vibrational frequencies (cm⁻¹)
eigval :       -0.00    -0.00    -0.00     0.00     0.00     0.00
eigval :      121.23   143.73   169.41   254.98   286.41   394.76
eigval :      410.36   482.05   502.77   570.49   691.62   774.96
eigval :      789.58   851.46   909.21   920.78   990.64  1007.83
eigval :     1019.24  1032.42  1114.71  1139.04  1193.27  1244.64
eigval :     1269.12  1294.20  1388.03  1406.32  1428.05  1445.30
eigval :     1469.31  1471.31  1483.11  1486.51  1571.00  1586.43
eigval :     3000.54  3005.12  3013.14  3018.39  3038.60  3053.58
eigval :     3057.85  3066.91  3091.01
 reduced masses (amu)
   1:  9.87   2: 11.12   3: 10.34   4: 11.23   5: 10.03   6: 11.35   7:  1.44   8:  9.20
   9:  1.66  10:  8.65  11:  8.36  12:  8.80  13: 10.07  14:  9.14  15: 10.75  16: 11.57
  17: 10.89  18: 10.51  19:  2.90  20: 10.88  21:  3.94  22:  3.59  23:  4.72  24:  4.85
  25:  4.49  26:  4.98  27:  6.38  28:  4.95  29:  6.95  30:  4.91  31:  8.82  32: 11.13
  33:  3.55  34:  3.13  35:  8.57  36: 10.48  37:  1.58  38:  3.12  39:  1.56  40:  2.04
  41: 11.56  42: 11.65  43:  1.93  44:  1.94  45:  1.56  46:  1.46  47:  1.65  48:  1.79
  49:  1.80  50:  1.73  51:  1.88
 IR intensities (km·mol⁻¹)
   1:  0.01   2:  0.31   3:  0.98   4:  0.00   5:  0.45   6:  0.01   7:  0.01   8:  1.03
   9:  1.13  10:  2.94  11:  0.46  12:  1.93  13:  0.34  14:  0.57  15:  0.43  16:  2.18
  17:  5.14  18:  2.48  19:  5.92  20:  1.32  21:  0.39  22:  0.01  23:  9.82  24:  4.26
  25: 19.72  26:  0.15  27:  1.68  28: 13.85  29: 16.33  30:  0.48  31: 20.69  32:  1.22
  33:  5.59  34:  5.20  35: 16.13  36: 47.16  37:  1.45  38:  1.53  39: 10.38  40:  1.75
  41: 30.97  42: 27.22  43: 33.67  44: 14.55  45:  2.04  46: 32.64  47: 20.00  48: 38.86
  49: 40.27  50: 11.24  51: 52.27
 Raman intensities (Ä⁴*amu⁻¹)
   1:  0.00   2:  0.00   3:  0.00   4:  0.00   5:  0.00   6:  0.00   7:  0.00   8:  0.00
   9:  0.00  10:  0.00  11:  0.00  12:  0.00  13:  0.00  14:  0.00  15:  0.00  16:  0.00
  17:  0.00  18:  0.00  19:  0.00  20:  0.00  21:  0.00  22:  0.00  23:  0.00  24:  0.00
  25:  0.00  26:  0.00  27:  0.00  28:  0.00  29:  0.00  30:  0.00  31:  0.00  32:  0.00
  33:  0.00  34:  0.00  35:  0.00  36:  0.00  37:  0.00  38:  0.00  39:  0.00  40:  0.00
  41:  0.00  42:  0.00  43:  0.00  44:  0.00  45:  0.00  46:  0.00  47:  0.00  48:  0.00
  49:  0.00  50:  0.00  51:  0.00
 output can be read by thermo (or use thermo option).
 writing <g98.out> molden fake output.
 recommended (thermochemical) frequency scaling factor: 1.0
           -------------------------------------------------
          |             Thermodynamic Functions             |
           -------------------------------------------------

Molecule has the following symmetry elements: (sigma) 
It seems to be the Cs point group
cs  symmetry found (for desy threshold:  0.10E+00) used in thermo

          ...................................................
          :                      SETUP                      :
          :.................................................:
          :  # frequencies                          45      :
          :  # imaginary freq.                       0      :
          :  linear?                             false      :
          :  only rotor calc.                    false      :
          :  symmetry                               cs      :
          :  rotational number                       1      :
          :  scaling factor                  1.0000000      :
          :  rotor cutoff                    0.0000000 cm⁻¹ :
          :  imag. cutoff                 -100.0000000 cm⁻¹ :
          :.................................................:

    mode    ω/cm⁻¹     T·S(HO)/kcal·mol⁻¹    T·S(FR)/kcal·mol⁻¹   T·S(vib)
   ------------------------------------------------------------------------
       1    121.23    -0.91852 (100.00%)    -0.79403 (  0.00%)    -0.91852
       2    143.73    -0.82100 (100.00%)    -0.74361 (  0.00%)    -0.82100
       3    169.41    -0.72808 (100.00%)    -0.69493 (  0.00%)    -0.72808
       4    254.98    -0.50562 (100.00%)    -0.57384 (  0.00%)    -0.50562
       5    286.41    -0.44577 (100.00%)    -0.53942 (  0.00%)    -0.44577
   ------------------------------------------------------------------------

   temp. (K)  partition function   enthalpy   heat capacity  entropy
                                   cal/mol     cal/K/mol   cal/K/mol   J/K/mol
 298.15  VIB   32.3                 3058.994     22.982     17.168
         ROT  0.275E+06              888.752      2.981     27.869
         INT  0.889E+07             3947.746     25.963     45.037
         TR   0.107E+28             1481.254      4.968     39.906
         TOT                        5429.0000    30.9309    84.9427   355.4004

       T/K    H(0)-H(T)+PV         H(T)/Eh          T*S/Eh         G(T)/Eh
   ------------------------------------------------------------------------
    298.15    0.865166E-02    0.149122E+00    0.403590E-01    0.108763E+00
   ------------------------------------------------------------------------

         :::::::::::::::::::::::::::::::::::::::::::::::::::::
         ::                  THERMODYNAMIC                  ::
         :::::::::::::::::::::::::::::::::::::::::::::::::::::
         :: total free energy         -22.385702219638 Eh   ::
         ::.................................................::
         :: total energy              -22.494465304052 Eh   ::
         :: zero point energy           0.140470450977 Eh   ::
         :: G(RRHO) w/o ZPVE           -0.031707366563 Eh   ::
         :: G(RRHO) contrib.            0.108763084414 Eh   ::
         :::::::::::::::::::::::::::::::::::::::::::::::::::::

optimized geometry written to: xtbopt.coord


           -------------------------------------------------
          | TOTAL ENERGY              -22.494465304052 Eh   |
          | TOTAL ENTHALPY            -22.345343190855 Eh   |
          | TOTAL FREE ENERGY         -22.385702219638 Eh   |
          | GRADIENT NORM               0.000031198817 Eh/α |
          | HOMO-LUMO GAP               3.334416074563 eV   |
           -------------------------------------------------

------------------------------------------------------------------------
 * finished run on 2025/04/15 at 19:06:54.252     
------------------------------------------------------------------------
 total:
 * wall-time:     0 d,  0 h,  0 min,  1.112 sec
 *  cpu-time:     0 d,  0 h,  0 min,  1.101 sec
 * ratio c/w:     0.990 speedup
 SCF:
 * wall-time:     0 d,  0 h,  0 min,  0.023 sec
 *  cpu-time:     0 d,  0 h,  0 min,  0.023 sec
 * ratio c/w:     0.998 speedup
 ANC optimizer:
 * wall-time:     0 d,  0 h,  0 min,  0.079 sec
 *  cpu-time:     0 d,  0 h,  0 min,  0.078 sec
 * ratio c/w:     0.978 speedup
 analytical hessian:
 * wall-time:     0 d,  0 h,  0 min,  0.988 sec
 *  cpu-time:     0 d,  0 h,  0 min,  0.987 sec
 * ratio c/w:     0.999 speedup

