17
 energy: -22.493420847077 gnorm: 0.023922588361 xtb: 6.7.1 (edcfbbe)
C           -1.84370113454395        1.43969940844549       -0.00004586967366
C           -0.52905062445593        0.71431249902335        0.00002418655096
C            0.67829507615210        1.40557042918261        0.00003974267299
C            1.87937608866148        0.70595423468388        0.00001151933857
C            1.82634356919663       -0.68082986364986       -0.00007456291800
N            0.68146874503704       -1.37093914799230       -0.00001473329809
C           -0.47356356595237       -0.69393620522374        0.00005606431249
C           -1.73318124015196       -1.51257580921729        0.00013589327348
H           -1.69353856379419        2.52210945378608        0.00001535768509
H           -2.44413168994015        1.18132529577739       -0.87979502754419
H           -2.44430392349732        1.18123969776359        0.87955748617424
H            0.67557039925585        2.49259350095477        0.00006916398428
H            2.83226970719619        1.22464708765779        0.00004225477086
H            2.74165489763285       -1.27083710324172       -0.00009260750660
H           -2.34952681305612       -1.29425756699746       -0.87985549754809
H           -1.47953051066242       -2.57292309973586        0.00016289108712
H           -2.34940851260222       -1.29418924812981        0.88019209742291
17
 energy: -22.494402079983 gnorm: 0.007251403799 xtb: 6.7.1 (edcfbbe)
C           -1.84064874565506        1.43941579505626       -0.00003804319791
C           -0.53188941983014        0.71584071092095        0.00001418096486
C            0.67179857482622        1.40571299253560        0.00002490967231
C            1.86692202331299        0.70356310148956        0.00001593616266
C            1.80766662955605       -0.67880323980987       -0.00001975318064
N            0.66924186867503       -1.35725780143691        0.00000323209905
C           -0.47651570204171       -0.68631730496400        0.00003825669055
C           -1.72499347725904       -1.51088080827001        0.00012976268334
H           -1.68520264674671        2.51729629757318        0.00002507275189
H           -2.42921558439925        1.17419021053249       -0.88017904837068
H           -2.42936642823880        1.17410248552706        0.87997346694937
H            0.67249181479170        2.48877482820346        0.00004273530574
H            2.81750233754199        1.21712466633883        0.00002284773006
H            2.71163944793857       -1.27670177896312       -0.00009378903942
H           -2.33032288229398       -1.29167439581682       -0.88090327606176
H           -1.46384212376252       -2.56581434190808        0.00015630868648
H           -2.33022378193984       -1.29160785392167        0.88121555893845
17
 energy: -22.494461398752 gnorm: 0.001297457478 xtb: 6.7.1 (edcfbbe)
C           -1.84116014633030        1.44015247225398       -0.00002749164861
C           -0.53256732630402        0.71691698767070        0.00001733037211
C            0.67133459548884        1.40597762896664        0.00000997887071
C            1.86567347221045        0.70319273491858       -0.00000292344469
C            1.80408325879615       -0.67885177982649       -0.00002313162664
N            0.66647160706183       -1.35132007088838        0.00001961685775
C           -0.47741427272102       -0.68366121978825        0.00005054367060
C           -1.72399408229985       -1.51034917131304        0.00011951543271
H           -1.68538495780422        2.51649321811626        0.00003143369260
H           -2.42649733776673        1.17298077904236       -0.87956614304542
H           -2.42662367628100        1.17289917014570        0.87940041952727
H            0.67322793796531        2.48776152482974        0.00001271757827
H            2.81519009812228        1.21574675946639        0.00000668090814
H            2.70308333309573       -1.28173084163398       -0.00004233091500
H           -2.32688248615511       -1.29335247717963       -0.88079949453986
H           -1.45669567142608       -2.56259359081683        0.00014124227273
H           -2.32680244117674       -1.29329856087686        0.88108039482167
17
 energy: -22.494465040111 gnorm: 0.000470973472 xtb: 6.7.1 (edcfbbe)
C           -1.84190750976041        1.44151892707537       -0.00001729786302
C           -0.53288819409936        0.71764524881605        0.00001079914873
C            0.67186356786790        1.40598192453420       -0.00000408499922
C            1.86654443099384        0.70341980140416        0.00000038784456
C            1.80447832516004       -0.67919790843392        0.00001423586631
N            0.66604547760451       -1.34951761343677        0.00003840213409
C           -0.47825043733810       -0.68297632457164        0.00004550245843
C           -1.72456620187167       -1.51125574206684        0.00011002249375
H           -1.68615310836572        2.51770306568318        0.00003598003234
H           -2.42659254423499        1.17375635831557       -0.87953474286557
H           -2.42669228526289        1.17367885403034        0.87940924299380
H            0.67428579748068        2.48768326977508       -0.00001741238039
H            2.81557772450423        1.21666148954868       -0.00001833358909
H            2.70172470730987       -1.28450488564708       -0.00002638796870
H           -2.32725285704464       -1.29548438463830       -0.88087507978376
H           -1.45398369345667       -2.56271283775669        0.00013099714494
H           -2.32719129501111       -1.29543567954446        0.88112612811715
17
 energy: -22.494465281036 gnorm: 0.000097684614 xtb: 6.7.1 (edcfbbe)
C           -1.84189279655470        1.44197164315974       -0.00001174112584
C           -0.53299275397164        0.71770283617250        0.00001689008325
C            0.67187428453277        1.40575559885917       -0.00001061850235
C            1.86661787622441        0.70342516952390       -0.00001753783973
C            1.80470234876189       -0.67922367502133       -0.00000196055420
N            0.66604555996220       -1.34960128513030        0.00004554058784
C           -0.47847567527381       -0.68298197814422        0.00005756529048
C           -1.72452750737357       -1.51174575314379        0.00010374091087
H           -1.68585890078665        2.51821423635602        0.00003293651612
H           -2.42680499704927        1.17447118450050       -0.87960501854505
H           -2.42688668654075        1.17440669710836        0.87950603984982
H            0.67437709098422        2.48759225800118       -0.00003027436939
H            2.81551575654249        1.21716532240622       -0.00002490808669
H            2.70183641317607       -1.28474040841826        0.00001377943191
H           -2.32743548465240       -1.29614707882330       -0.88091372496246
H           -1.45366901445300       -2.56319220274986        0.00012019984952
H           -2.32738360905274       -1.29610900156961        0.88114745025026
17
 energy: -22.494465303709 gnorm: 0.000031847747 xtb: 6.7.1 (edcfbbe)
C           -1.84185147142874        1.44206279104969       -0.00000760220950
C           -0.53305948642475        0.71769911134953        0.00000865360543
C            0.67180968956086        1.40569557406119       -0.00001738294831
C            1.86655356440536        0.70338716233621       -0.00000603845899
C            1.80462625427864       -0.67921078726040        0.00002987944709
N            0.66598129805460       -1.34953770985969        0.00005337674982
C           -0.47852447941241       -0.68293940297646        0.00004743448217
C           -1.72442926118997       -1.51181731688055        0.00010013500502
H           -1.68564790134042        2.51826814619190        0.00003335277490
H           -2.42680255508523        1.17466089018895       -0.87958149792139
H           -2.42687154647461        1.17460032896115        0.87950119540632
H            0.67433756301397        2.48753066215940       -0.00004269713280
H            2.81537823224473        1.21722848492420       -0.00003606908534
H            2.70165083417402       -1.28484362623490        0.00000500542904
H           -2.32737519435874       -1.29633455870967       -0.88090828993597
H           -1.45340399838499       -2.56319122824436        0.00011813354073
H           -2.32732963715680       -1.29629495796929        0.88113077003612
