
                                 *****************
                                 * O   R   C   A *
                                 *****************

                                            #,                                       
                                            ###                                      
                                            ####                                     
                                            #####                                    
                                            ######                                   
                                           ########,                                 
                                     ,,################,,,,,                         
                               ,,#################################,,                 
                          ,,##########################################,,             
                       ,#########################################, ''#####,          
                    ,#############################################,,   '####,        
                  ,##################################################,,,,####,       
                ,###########''''           ''''###############################       
              ,#####''   ,,,,##########,,,,          '''####'''          '####       
            ,##' ,,,,###########################,,,                        '##       
           ' ,,###''''                  '''############,,,                           
         ,,##''                                '''############,,,,        ,,,,,,###''
      ,#''                                            '''#######################'''  
     '                                                          ''''####''''         
             ,#######,   #######,   ,#######,      ##                                
            ,#'     '#,  ##    ##  ,#'     '#,    #''#        ,####,   ,####,        
            ##       ##  ##   ,#'  ##            #'  '#       #'       #'  '#        
            ##       ##  #######   ##           ,######,      #####,   #    #        
            '#,     ,#'  ##    ##  '#,     ,#' ,#      #,     #,   #   #,  ,#        
             '#######'   ##     ##  '#######'  #'      '#     '####' # '####'        



                #########################################################
                #                        -***-                          #
                #          Department of theory and spectroscopy        #
                #                                                       #
                #                      Frank Neese                      #
                #                                                       #
                #     Directorship, Architecture, Infrastructure        #
                #                    SHARK, DRIVERS                     #
                #        Core code/Algorithms in most modules           #
                #                                                       #
                #        Max Planck Institute fuer Kohlenforschung      #
                #                Kaiser Wilhelm Platz 1                 #
                #                 D-45470 Muelheim/Ruhr                 #
                #                      Germany                          #
                #                                                       #
                #                  All rights reserved                  #
                #                        -***-                          #
                #########################################################


                         Program Version 6.0.1  -  RELEASE   -


 With contributions from (in alphabetic order):
[Max-Planck-Institut fuer Kohlenforschung]                               
  Daniel Aravena         : Magnetic Suceptibility                        
  Michael Atanasov       : Ab Initio Ligand Field Theory (pilot matlab implementation)
  Alexander A. Auer      : GIAO ZORA, VPT2 properties, NMR spectrum      
  Ute Becker             : All parallelization in ORCA, NUMFREQ, NUMCALC 
  Giovanni Bistoni       : ED, misc. LED, open-shell LED, HFLD           
  Martin Brehm           : Molecular dynamics                            
  Dmytro Bykov           : pre 5.0 version of the SCF Hessian            
  Marcos Casanova-Páez   : Triplet and SCS-CIS(D). UHF-(DLPNO)-IP/EA/STEOM-CCSD. UHF-CVS-IP/STEOM-CCSD   
  Vijay G. Chilkuri      : MRCI spin determinant printing, contributions to CSF-ICE 
  Pauline Colinet        : FMM embedding                                 
  Dipayan Datta          : RHF DLPNO-CCSD density                        
  Achintya Kumar Dutta   : EOM-CC, STEOM-CC                              
  Nicolas Foglia         : Exact transition moments, OPA infrastructure, MCD improvements    
  Dmitry Ganyushin       : Spin-Orbit,Spin-Spin,Magnetic field MRCI      
  Miquel Garcia-Rates    : C-PCM and meta-GGA Hessian, CCSD/C-PCM, Gaussian charge scheme 
  Tiago L. C. Gouveia    : GS-ROHF, GS-ROCIS                             
  Yang Guo               : DLPNO-NEVPT2, F12-NEVPT2, CIM, IAO-localization        
  Andreas Hansen         : Spin unrestricted coupled pair/coupled cluster methods 
  Ingolf Harden          : AUTO-CI MPn and infrastructure                
  Benjamin Helmich-Paris : MC-RPA, TRAH-(SCF,CASSCF), AVAS, COSX integrals, SCF dyn. polar. 
  Lee Huntington         : MR-EOM, pCC                                   
  Robert Izsak           : Overlap fitted RIJCOSX, COSX-SCS-MP3, EOM     
  Riya Kayal             : Wick's Theorem for AUTO-CI, AUTO-CI UHF-CCSDT 
  Emily Kempfer          : AUTO-CI, RHF CISDT and CCSDT                  
  Christian Kollmar      : KDIIS, OOCD, Brueckner-CCSD(T), CCSD density, CASPT2, CASPT2-K, improved NEVPT2 
  Axel Koslowski         : Symmetry handling                             
  Simone Kossmann        : meta-GGA functionals, TD-DFT gradient, OOMP2, (MP2 Hessian; deprecated post 5.0) 
  Lucas Lang             : DCDCAS                                        
  Marvin Lechner         : AUTO-CI (C++ implementation), FIC-MRCC        
  Spencer Leger          : CASSCF response                               
  Dagmar Lenk            : GEPOL surface, SMD, ORCA-2-JSON               
  Dimitrios Liakos       : Extrapolation schemes; Compound Job, initial MDCI parallelization 
  Dimitrios Manganas     : Further ROCIS development; embedding schemes. LFT, Crystal Embedding 
  Dimitrios Pantazis     : SARC Basis sets                               
  Anastasios Papadopoulos: AUTO-CI, single reference methods and gradients 
  Taras Petrenko         : pre 6.0 DFT Hessian and TD-DFT gradient, (ASA, deprecated), ECA, 1-Electron XAS/XES, NRVS 
  Peter Pinski           : DLPNO-MP2, DLPNO-MP2 Gradient                 
  Christoph Reimann      : Effective Core Potentials                     
  Marius Retegan         : Local ZFS, SOC                                
  Christoph Riplinger    : Optimizer, TS searches, QM/MM, DLPNO-CCSD(T), (RO)-DLPNO pert. Triples 
  Michael Roemelt        : Original ROCIS implementation                 
  Masaaki Saitow         : Open-shell DLPNO-CCSD energy and density      
  Barbara Sandhoefer     : DKH picture change effects                    
  Kantharuban Sivalingam : CASSCF convergence/infrastructure, NEVPT2 and variants, FIC-MRCI 
  Bernardo de Souza      : ESD, SOC TD-DFT                               
  Georgi L. Stoychev     : AutoAux, RI-MP2 NMR, DLPNO-MP2 response, X2C  
  Van Anh Tran           : RI-MP2 g-tensors                              
  Willem Van den Heuvel  : Paramagnetic NMR                              
  Zikuan Wang            : NOTCH, Electric field optimization            
  Frank Wennmohs         : Technical directorship and infrastructure     
  Hang Xu                : AUTO-CI-Response properties                   
                                                                         
[FACCTs GmbH]                                                            
  Markus Bursch, Miquel Garcia-Rates, Christoph Riplinger, Bernardo de Souza, Georgi L. Stoychev 
                                                                 
  APM, Basis sets (HGBS, AHGBS, def-TZVP (Ac-Lr), def2-XVPD (La-Lu)), CI-OPT, improved COSX, DLPNO-Multilevel,           
  DOCKER, DRACO, updates on ESD, GOAT, IRC, LR-CPCM, MBIS, meta-GGA TD-DFT gradient, ML-optimized integration grids, 
  MM, NACMEs, nearIR, NEB, NEB-TS, NL-DFT gradient (VV10), 2- and 3-layer-ONIOM, interface openCOSMO-RS, QMMM,   
  Crystal-QMMM, SF, symmetry and pop. for TD-DFT, r2SCAN hybrids, SOLVATOR                                   
                                                                         
[Other institutions]                                                     
  V. Asgeirsson          : NEB                                           
  Christoph Bannwarth    : sTDA-DFT, sTD-DFT, PBEh-3c, B97-3c, D3        
  Sebastian Ehlert       : rSCAN, r2SCAN, r2SCAN-3c, D4, dhf basis sets  
  Marvin Friede          : D4 for Fr, Ra, Ac-Lr                          
  Lars Goerigk           : TD-DFT with DH, B97 family of functionals     
  Stefan Grimme          : VdW corrections, initial TS optimization, DFT functionals, gCP, sTDA/sTD-DF 
  Waldemar Hujo          : DFT-NL                                        
  H. Jonsson             : NEB                                           
  Holger Kruse           : gCP                                           
  Marcel Mueller         : wB97X-3c, vDZP basis set                      
  Hagen Neugebauer       : wr2SCAN                                       
  Tobias Risthaus        : range-separated hybrid DFT                    
  Lukas Wittmann         : regularized MP2, r2SCAN double-hybrids, wr2SCAN        
                                                                         
We gratefully acknowledge several colleagues who have allowed us to      
interface, adapt or use parts of their codes:                            
  Ed Valeev, F. Pavosevic, A. Kumar             : LibInt (2-el integral package), F12 methods 
  Garnet Chan, S. Sharma, J. Yang, R. Olivares  : DMRG                   
  Ulf Ekstrom                                   : XCFun DFT Library      
  Mihaly Kallay                                 : mrcc  (arbitrary order and MRCC methods)
  Frank Weinhold                                : gennbo (NPA and NBO analysis)           
  Simon Mueller                                 : openCOSMO-RS                            
  Christopher J. Cramer and Donald G. Truhlar   : smd solvation model                     
  S Lehtola, MJT Oliveira, MAL Marques          : LibXC Library                           
  Liviu Ungur et al                             : ANISO software                          


 Your calculation uses the libint2 library for the computation of 2-el integrals
 For citations please refer to: http://libint.valeyev.net

 Your ORCA version has been built with support for libXC version: 6.2.2
 For citations please refer to: https://libxc.gitlab.io

 This ORCA versions uses:
   CBLAS   interface :  Fast vector & matrix operations
   LAPACKE interface :  Fast linear algebra routines
   SCALAPACK package :  Parallel linear algebra routines
   Shared memory     :  Shared parallel matrices
   BLAS/LAPACK       :  OpenBLAS 0.3.27  USE64BITINT DYNAMIC_ARCH NO_AFFINITY Zen SINGLE_THREADED
        Core in use  :  Zen
   Copyright (c) 2011-2014, The OpenBLAS Project


Your calculation utilizes the geometrical counterpoise correction gCP
Please cite in your paper:
H.Kruse, S. Grimme J.Chem.Phys., 136, (2012), 154101 
   

Your calculation utilizes the atom-pairwise dispersion correction
based on EEQ partial charges (D4)


================================================================================

----- Orbital basis set information -----
Your calculation utilizes the basis: def2-SV(P)
   F. Weigend and R. Ahlrichs, Phys. Chem. Chem. Phys. 7, 3297 (2005).

----- AuxJ basis set information -----
Your calculation utilizes the auxiliary basis: def2/J
   F. Weigend, Phys. Chem. Chem. Phys. 8, 1057 (2006).

================================================================================
                                        WARNINGS
                       Please study these warnings very carefully!
================================================================================


================================================================================
                                       INPUT FILE
================================================================================
NAME = sp.inp
|  1> ! pbe def2-sv(p) def2/J RI DEFGRID1 loosescf d4 GCP(DFT/SV(P)) printgap
|  2> %output
|  3>     printlevel normal
|  4> end
|  5> * xyz 0 1
|  6> C -2.1984356664 -1.2651640939 0.1063644287
|  7> C -0.8824936124 -0.5746498613 0.5149670338
|  8> H -0.9729589743 -0.2267348629 1.5573519749
|  9> C -0.5790115559 0.6339254735 -0.380307122
| 10> H -0.5143500344 0.3183085426 -1.4273682781
| 11> C 0.7551886054 1.2727399256 0.0297407324
| 12> H 0.6050728246 1.8014993551 0.988963371
| 13> C 1.8365806209 0.2128797667 0.2858024667
| 14> H 2.7060745307 0.4704913696 -0.3340310883
| 15> C 1.357242493 -1.1887190695 -0.1298686005
| 16> H 2.0723110991 -1.9417481187 0.2493699681
| 17> O 0.1463471041 -1.5569236094 0.4629021264
| 18> O 1.3034137047 -1.2358119429 -1.524390642
| 19> O 2.1419641853 0.250257402 1.656236554
| 20> O 1.2105157964 2.1680836297 -0.9484489993
| 21> O -1.613484239 1.5952360722 -0.3403105413
| 22> O -3.32900124 -0.4864637241 0.3742594555
| 23> H -2.3012768437 -2.1830045902 0.6890814005
| 24> H -2.140885911 -1.5308762011 -0.9594040249
| 25> H 0.9580451116 -2.096632201 -1.7920494601
| 26> H 2.8409480878 -0.3844874984 1.8495591891
| 27> H 0.4505059656 2.6653650633 -1.2771134259
| 28> H -1.6832635805 1.937486532 0.5610617338
| 29> H -3.2387950768 0.3451005037 -0.1145889959
| 30> *
| 31> 
| 32>                          ****END OF INPUT****
================================================================================

                       ****************************
                       * Single Point Calculation *
                       ****************************

---------------------------------
CARTESIAN COORDINATES (ANGSTROEM)
---------------------------------
  C     -2.198436   -1.265164    0.106364
  C     -0.882494   -0.574650    0.514967
  H     -0.972959   -0.226735    1.557352
  C     -0.579012    0.633925   -0.380307
  H     -0.514350    0.318309   -1.427368
  C      0.755189    1.272740    0.029741
  H      0.605073    1.801499    0.988963
  C      1.836581    0.212880    0.285802
  H      2.706075    0.470491   -0.334031
  C      1.357242   -1.188719   -0.129869
  H      2.072311   -1.941748    0.249370
  O      0.146347   -1.556924    0.462902
  O      1.303414   -1.235812   -1.524391
  O      2.141964    0.250257    1.656237
  O      1.210516    2.168084   -0.948449
  O     -1.613484    1.595236   -0.340311
  O     -3.329001   -0.486464    0.374259
  H     -2.301277   -2.183005    0.689081
  H     -2.140886   -1.530876   -0.959404
  H      0.958045   -2.096632   -1.792049
  H      2.840948   -0.384487    1.849559
  H      0.450506    2.665365   -1.277113
  H     -1.683264    1.937487    0.561062
  H     -3.238795    0.345101   -0.114589

----------------------------
CARTESIAN COORDINATES (A.U.)
----------------------------
  NO LB      ZA    FRAG     MASS         X           Y           Z
   0 C     6.0000    0    12.011   -4.154441   -2.390814    0.201000
   1 C     6.0000    0    12.011   -1.667671   -1.085931    0.973147
   2 H     1.0000    0     1.008   -1.838626   -0.428467    2.942969
   3 C     6.0000    0    12.011   -1.094173    1.197946   -0.718676
   4 H     1.0000    0     1.008   -0.971981    0.601516   -2.697335
   5 C     6.0000    0    12.011    1.427100    2.405130    0.056202
   6 H     1.0000    0     1.008    1.143422    3.404340    1.868870
   7 C     6.0000    0    12.011    3.470634    0.402284    0.540088
   8 H     1.0000    0     1.008    5.113740    0.889100   -0.631227
   9 C     6.0000    0    12.011    2.564817   -2.246353   -0.245416
  10 H     1.0000    0     1.008    3.916100   -3.669372    0.471241
  11 O     8.0000    0    15.999    0.276556   -2.942159    0.874758
  12 O     8.0000    0    15.999    2.463095   -2.335346   -2.880681
  13 O     8.0000    0    15.999    4.047726    0.472918    3.129834
  14 O     8.0000    0    15.999    2.287543    4.097084   -1.792309
  15 O     8.0000    0    15.999   -3.049043    3.014559   -0.643094
  16 O     8.0000    0    15.999   -6.290901   -0.919283    0.707248
  17 H     1.0000    0     1.008   -4.348783   -4.125281    1.302175
  18 H     1.0000    0     1.008   -4.045688   -2.892937   -1.813011
  19 H     1.0000    0     1.008    1.810443   -3.962061   -3.386483
  20 H     1.0000    0     1.008    5.368614   -0.726576    3.495160
  21 H     1.0000    0     1.008    0.851333    5.036810   -2.413395
  22 H     1.0000    0     1.008   -3.180907    3.661319    1.060253
  23 H     1.0000    0     1.008   -6.120436    0.652145   -0.216542

--------------------------------
INTERNAL COORDINATES (ANGSTROEM)
--------------------------------
 C      0   0   0     0.000000000000     0.00000000     0.00000000
 C      1   0   0     1.541255813875     0.00000000     0.00000000
 H      2   1   0     1.102631032235   108.78020672     0.00000000
 C      2   1   3     1.534363552926   111.53574917   240.21471115
 H      4   2   1     1.095505465092   110.02469198   301.58651221
 C      4   2   1     1.535028735080   110.11131982   181.54746836
 H      6   4   2     1.105544821494   108.22758283   287.21305082
 C      6   4   2     1.535669189436   111.67735555    43.91171113
 H      8   6   4     1.098443003998   107.54529831   126.21714232
 C      8   6   4     1.538514470066   111.36439940     8.16101208
 H     10   8   6     1.105530529783   109.04617372   191.07965744
 O     10   8   6     1.397576245051   113.28860577   305.90108833
 O     10   8   6     1.396354898084   108.21339357    71.25653041
 O      8   6   4     1.404544693721   107.30354415   246.70763683
 O      6   4   2     1.402076442473   111.20151674   166.13405876
 O      4   2   1     1.412746093861   112.00121036    58.52151741
 O      1   2   3     1.398685285373   112.95037412    51.00540148
 H      1   2   3     1.092046955776   108.39063326   292.82751444
 H      1   2   3     1.099898765773   108.68966469   174.97009720
 H     13  10   8     0.965366368154   108.70901924   183.00998884
 H     14   8   6     0.963770317960   109.62615124   181.85506378
 H     15   6   4     0.965879947213   108.09782560    40.59653142
 H     16   4   2     0.966683253218   108.67305125    62.95330837
 H     17   1   2     0.968818365470   107.81581780    59.14821355

---------------------------
INTERNAL COORDINATES (A.U.)
---------------------------
 C      0   0   0     0.000000000000     0.00000000     0.00000000
 C      1   0   0     2.912551390538     0.00000000     0.00000000
 H      2   1   0     2.083670677687   108.78020672     0.00000000
 C      2   1   3     2.899526904901   111.53574917   240.21471115
 H      4   2   1     2.070205307238   110.02469198   301.58651221
 C      4   2   1     2.900783917002   110.11131982   181.54746836
 H      6   4   2     2.089176941399   108.22758283   287.21305082
 C      6   4   2     2.901994200335   111.67735555    43.91171113
 H      8   6   4     2.075756451278   107.54529831   126.21714232
 C      8   6   4     2.907371001500   111.36439940     8.16101208
 H     10   8   6     2.089149933979   109.04617372   191.07965744
 O     10   8   6     2.641036354421   113.28860577   305.90108833
 O     10   8   6     2.638728343139   108.21339357    71.25653041
 O      8   6   4     2.654204813985   107.30354415   246.70763683
 O      6   4   2     2.649540495097   111.20151674   166.13405876
 O      4   2   1     2.669703214165   112.00121036    58.52151741
 O      1   2   3     2.643132136901   112.95037412    51.00540148
 H      1   2   3     2.063669671800   108.39063326   292.82751444
 H      1   2   3     2.078507442348   108.68966469   174.97009720
 H     13  10   8     1.824278054708   108.70901924   183.00998884
 H     14   8   6     1.821261956946   109.62615124   181.85506378
 H     15   6   4     1.825248578479   108.09782560    40.59653142
 H     16   4   2     1.826766606830   108.67305125    62.95330837
 H     17   1   2     1.830801384252   107.81581780    59.14821355

---------------------
BASIS SET INFORMATION
---------------------
There are 3 groups of distinct atoms

 Group   1 Type C   : 7s4p1d contracted to 3s2p1d pattern {511/31/1}
 Group   2 Type H   : 4s contracted to 2s pattern {31}
 Group   3 Type O   : 7s4p1d contracted to 3s2p1d pattern {511/31/1}

Atom   0C    basis set group =>   1
Atom   1C    basis set group =>   1
Atom   2H    basis set group =>   2
Atom   3C    basis set group =>   1
Atom   4H    basis set group =>   2
Atom   5C    basis set group =>   1
Atom   6H    basis set group =>   2
Atom   7C    basis set group =>   1
Atom   8H    basis set group =>   2
Atom   9C    basis set group =>   1
Atom  10H    basis set group =>   2
Atom  11O    basis set group =>   3
Atom  12O    basis set group =>   3
Atom  13O    basis set group =>   3
Atom  14O    basis set group =>   3
Atom  15O    basis set group =>   3
Atom  16O    basis set group =>   3
Atom  17H    basis set group =>   2
Atom  18H    basis set group =>   2
Atom  19H    basis set group =>   2
Atom  20H    basis set group =>   2
Atom  21H    basis set group =>   2
Atom  22H    basis set group =>   2
Atom  23H    basis set group =>   2
---------------------------------
AUXILIARY/J BASIS SET INFORMATION
---------------------------------
There are 3 groups of distinct atoms

 Group   1 Type C   : 12s5p4d2f1g contracted to 6s4p3d1f1g pattern {711111/2111/211/2/1}
 Group   2 Type H   : 5s2p1d contracted to 3s1p1d pattern {311/2/1}
 Group   3 Type O   : 12s5p4d2f1g contracted to 6s4p3d1f1g pattern {711111/2111/211/2/1}

Atom   0C    basis set group =>   1
Atom   1C    basis set group =>   1
Atom   2H    basis set group =>   2
Atom   3C    basis set group =>   1
Atom   4H    basis set group =>   2
Atom   5C    basis set group =>   1
Atom   6H    basis set group =>   2
Atom   7C    basis set group =>   1
Atom   8H    basis set group =>   2
Atom   9C    basis set group =>   1
Atom  10H    basis set group =>   2
Atom  11O    basis set group =>   3
Atom  12O    basis set group =>   3
Atom  13O    basis set group =>   3
Atom  14O    basis set group =>   3
Atom  15O    basis set group =>   3
Atom  16O    basis set group =>   3
Atom  17H    basis set group =>   2
Atom  18H    basis set group =>   2
Atom  19H    basis set group =>   2
Atom  20H    basis set group =>   2
Atom  21H    basis set group =>   2
Atom  22H    basis set group =>   2
Atom  23H    basis set group =>   2
------------------------------------------------------------------------------
                             ORCA STARTUP CALCULATIONS
                           -- RI-GTO INTEGRALS CHOSEN --
------------------------------------------------------------------------------
------------------------------------------------------------------------------
                   ___                                                        
                  /   \      - P O W E R E D   B Y -                         
                 /     \                                                     
                 |  |  |   _    _      __       _____    __    __             
                 |  |  |  | |  | |    /  \     |  _  \  |  |  /  |          
                  \  \/   | |  | |   /    \    | | | |  |  | /  /          
                 / \  \   | |__| |  /  /\  \   | |_| |  |  |/  /          
                |  |  |   |  __  | /  /__\  \  |    /   |      \           
                |  |  |   | |  | | |   __   |  |    \   |  |\   \          
                \     /   | |  | | |  |  |  |  | |\  \  |  | \   \       
                 \___/    |_|  |_| |__|  |__|  |_| \__\ |__|  \__/        
                                                                              
                      - O R C A' S   B I G   F R I E N D -                    
                                      &                                       
                       - I N T E G R A L  F E E D E R -                       
                                                                              
 v1 FN, 2020, v2 2021, v3 2022-2024                                           
------------------------------------------------------------------------------


----------------------
SHARK INTEGRAL PACKAGE
----------------------

Number of atoms                             ...     24
Number of basis functions                   ...    192
Number of shells                            ...     96
Maximum angular momentum                    ...      2
Integral batch strategy                     ... SHARK/LIBINT Hybrid
RI-J (if used) integral strategy            ... SPLIT-RIJ (Revised 2003 algorithm where possible)
Printlevel                                  ...      1
Contraction scheme used                     ... SEGMENTED contraction
Prescreening option                         ... SCHWARTZ
   Thresh                                   ... 1.000e-09
   Tcut                                     ... 1.000e-10
   Tpresel                                  ... 1.000e-10 
Coulomb Range Separation                    ... NOT USED
Exchange Range Separation                   ... NOT USED
Multipole approximations                    ... NOT USED
Finite Nucleus Model                        ... NOT USED
CABS basis                                  ... NOT available
Auxiliary Coulomb fitting basis             ... AVAILABLE
   # of basis functions in Aux-J            ...    720
   # of shells in Aux-J                     ...    240
   Maximum angular momentum in Aux-J        ...      4
Auxiliary J/K fitting basis                 ... NOT available
Auxiliary Correlation fitting basis         ... NOT available
Auxiliary 'external' fitting basis          ... NOT available

Checking pre-screening integrals            ... done (  0.0 sec) Dimension = 96
Check shell pair data                       ... done (  0.0 sec)
Shell pair information
Shell pair cut-off parameter TPreSel        ...   1.0e-10
Total number of shell pairs                 ...      4656
Shell pairs after pre-screening             ...      4213
Total number of primitive shell pairs       ...     18720
Primitive shell pairs kept                  ...     11319
          la=0 lb=0:   1634 shell pairs
          la=1 lb=0:   1338 shell pairs
          la=1 lb=1:    290 shell pairs
          la=2 lb=0:    617 shell pairs
          la=2 lb=1:    267 shell pairs
          la=2 lb=2:     67 shell pairs

Calculating one electron integrals          ... done (  0.0 sec)
Calculating RI/J V-Matrix + Cholesky decomp.... done (  0.0 sec)
Calculating Nuclear repulsion               ... done (  0.0 sec) ENN=    843.610702963359 Eh

Diagonalization of the overlap matrix:
Smallest eigenvalue                        ... 4.732e-04
Time for diagonalization                   ...    0.004 sec
Threshold for overlap eigenvalues          ... 1.000e-07
Number of eigenvalues below threshold      ... 0
Time for construction of square roots      ...    0.003 sec
Total time needed                          ...    0.008 sec

-------------------
DFT GRID GENERATION
-------------------

General Integration Accuracy     IntAcc      ... 4.159
Radial Grid Type                 RadialGrid  ... OptM3 with GC (2021)
Angular Grid (max. ang.)         AngularGrid ... 3 (Lebedev-194)
Angular grid pruning method      GridPruning ... 4 (adaptive)
Weight generation scheme         WeightScheme... mBecke (2022)
Basis function cutoff            BFCut       ... 1.0000e-10
Integration weight cutoff        WCut        ... 1.0000e-14
Partially contracted basis set               ... off
Rotationally invariant grid construction     ... off
Angular grids for H and He will be reduced by one unit

Total number of grid points                  ...    55680
Total number of batches                      ...      883
Average number of points per batch           ...       63
Average number of grid points per atom       ...     2320
Initializing property integral containers    ... done (  0.0 sec)

SHARK setup successfully completed in   0.6 seconds

Maximum memory used throughout the entire STARTUP-calculation: 28.7 MB
-------------------------------------------------------------------------------
                                 ORCA GUESS
                   Start orbitals & Density for SCF / CASSCF
-------------------------------------------------------------------------------

------------
SCF SETTINGS
------------
Hamiltonian:
 Density Functional     Method          .... DFT(GTOs)
 Exchange Functional    Exchange        .... PBE
   PBE kappa parameter   XKappa         ....  0.804000
   PBE mue parameter    XMuePBE         ....  0.219520
 Correlation Functional Correlation     .... PBE
   PBE beta parameter  CBetaPBE         ....  0.066725
 LDA part of GGA corr.  LDAOpt          .... PW91-LDA
 Gradients option       PostSCFGGA      .... off
   NL short-range parameter             ....  6.400000
 RI-approximation to the Coulomb term is turned on
   Number of AuxJ basis functions       .... 720


General Settings:
 Integral files         IntName         .... sp
 Hartree-Fock type      HFTyp           .... RHF
 Total Charge           Charge          ....    0
 Multiplicity           Mult            ....    1
 Number of Electrons    NEL             ....   96
 Basis Dimension        Dim             ....  192
 Nuclear Repulsion      ENuc            ....    843.6107029634 Eh

Convergence Acceleration:
 AO-DIIS                CNVDIIS         .... on
   Start iteration      DIISMaxIt       ....    12
   Startup error        DIISStart       ....  0.200000
   # of expansion vecs  DIISMaxEq       ....     5
   Bias factor          DIISBfac        ....   1.050
   Max. coefficient     DIISMaxC        ....  10.000
 MO-DIIS                CNVKDIIS        .... off
 Trust-Rad. Augm. Hess. CNVTRAH         .... auto
   Auto Start mean grad. ratio tolernc. ....  1.125000
   Auto Start start iteration           ....    50
   Auto Start num. interpolation iter.  ....    10
   Max. Number of Micro iterations      ....    24
   Max. Number of Macro iterations      .... Maxiter - #DIIS iter
   Number of Davidson start vectors     ....     2
   Converg. threshold    (grad. norm)   ....   1.000e-04
   Grad. Scal. Fac. for Micro threshold ....   0.100
   Minimum threshold for Micro iter.    ....   1.000e-02
   NR start threshold (gradient norm)   ....   1.000e-04
   Initial trust radius                 ....   0.400
   Minimum AH scaling param. (alpha)    ....   1.000
   Maximum AH scaling param. (alpha)    .... 1000.000
   Quad. conv. algorithm                .... NR
   White noise on init. David. guess    .... on
   Maximum white noise                  ....   0.010
   Pseudo random numbers                .... off
   Inactive MOs                         .... canonical
   Orbital update algorithm             .... Taylor
   Preconditioner                       .... Diag
   Full preconditioner red. dimension   ....   250
 SOSCF                  CNVSOSCF        .... on
   Start iteration      SOSCFMaxIt      ....   150
   Startup grad/error   SOSCFStart      ....  0.003300
   Hessian update       SOSCFHessUp     .... L-BFGS
 Level Shifting         CNVShift        .... on
   Level shift para.    LevelShift      ....    0.2500
   Turn off err/grad.   ShiftErr        ....    0.0010
 Zerner damping         CNVZerner       .... off
 Static damping         CNVDamp         .... on
   Fraction old density DampFac         ....    0.7000
   Max. Damping (<1)    DampMax         ....    0.9800
   Min. Damping (>=0)   DampMin         ....    0.0000
   Turn off err/grad.   DampErr         ....    0.1000

SCF Procedure:
 Maximum # iterations   MaxIter         ....   125
 SCF integral mode      SCFMode         .... Direct
   Integral package                     .... SHARK and LIBINT hybrid scheme
 Reset frequency        DirectResetFreq ....    20
 Integral Threshold     Thresh          ....  1.000e-09 Eh
 Primitive CutOff       TCut            ....  1.000e-10 Eh

Convergence Tolerance:
 Convergence Check Mode ConvCheckMode   .... Total+1el-Energy
 Convergence forced     ConvForced      .... 0
 Energy Change          TolE            ....  1.000e-05 Eh
 1-El. energy change                    ....  1.000e-02 Eh
 Orbital Gradient       TolG            ....  1.000e-04
 Orbital Rotation angle TolX            ....  1.000e-04
 DIIS Error             TolErr          ....  5.000e-04

------------------------------
INITIAL GUESS: MODEL POTENTIAL
------------------------------
Loading Hartree-Fock densities                     ... done
Calculating cut-offs                               ... done
Initializing the effective Hamiltonian             ... done
Setting up the integral package (SHARK)            ... done
Starting the Coulomb interaction                   ... done (   0.2 sec)
Making the grid                                    ... done (   0.2 sec)
Mapping shells                                     ... done
Starting the XC term evaluation                    ... done (   0.2 sec)
  promolecular density results
     # of electrons  =     95.990728579
     EX              =    -83.243360823
     EC              =     -3.271799739
     EX+EC           =    -86.515160563
Transforming the Hamiltonian                       ... done (   0.0 sec)
Diagonalizing the Hamiltonian                      ... done (   0.0 sec)
Back transforming the eigenvectors                 ... done (   0.0 sec)
Now organizing SCF variables                       ... done
                      ------------------
                      INITIAL GUESS DONE (   0.8 sec)
                      ------------------
             **** ENERGY FILE WAS UPDATED (sp.en.tmp) ****
Finished Guess after   0.9 sec
Maximum memory used throughout the entire GUESS-calculation: 22.5 MB

-------------------------------------------------------------------------------------------
                                      ORCA LEAN-SCF
                              memory conserving SCF solver
-------------------------------------------------------------------------------------------

----------------------------------------D-I-I-S--------------------------------------------
Iteration    Energy (Eh)           Delta-E    RMSDP     MaxDP     DIISErr   Damp  Time(sec)
-------------------------------------------------------------------------------------------
               ***  Starting incremental Fock matrix formation  ***
    1    -685.5201762329533040     0.00e+00  5.14e-03  1.73e-01  2.23e-01  0.700   0.8
    2    -685.6712141314395694    -1.51e-01  3.33e-03  1.18e-01  8.20e-02  0.700   0.8
                               ***Turning on AO-DIIS***
    3    -685.7188722836184525    -4.77e-02  1.14e-03  2.95e-02  1.76e-02  0.700   0.7
    4    -685.7505620014625265    -3.17e-02  1.43e-03  2.30e-02  1.01e-02  0.000   0.7
    5    -685.8239356612531310    -7.34e-02  4.85e-04  1.71e-02  5.49e-03  0.000   0.7
                              *** Initializing SOSCF ***
---------------------------------------S-O-S-C-F--------------------------------------
Iteration    Energy (Eh)           Delta-E    RMSDP     MaxDP     MaxGrad    Time(sec)
--------------------------------------------------------------------------------------
    6    -685.8242713234545818    -3.36e-04  1.48e-04  4.16e-03  1.07e-03     0.7
               *** Restarting incremental Fock matrix formation ***
    7    -685.8243004757295012    -2.92e-05  9.58e-05  2.03e-03  1.93e-04     0.8
    8    -685.8243001401771153     3.36e-07  3.78e-05  8.12e-04  2.85e-04     0.7
                 **** Energy Check signals convergence ****

               *****************************************************
               *                     SUCCESS                       *
               *           SCF CONVERGED AFTER   8 CYCLES          *
               *****************************************************

             **** ENERGY FILE WAS UPDATED (sp.en.tmp) ****

----------------
TOTAL SCF ENERGY
----------------

Total Energy       :       -685.82430014017712 Eh          -18662.22798 eV

Components:
Nuclear Repulsion  :        843.61070296335868 Eh           22955.81428 eV
Electronic Energy  :      -1529.43500310353579 Eh          -41618.04225 eV
One Electron Energy:      -2616.06622338622583 Eh          -71186.78100 eV
Two Electron Energy:       1086.63122028269004 Eh           29568.73875 eV

Virial components:
Potential Energy   :      -1366.98707863972049 Eh          -37197.60950 eV
Kinetic Energy     :        681.16277849954326 Eh           18535.38152 eV
Virial Ratio       :          2.00684347675441

DFT components:
N(Alpha)           :       47.999935144627 electrons
N(Beta)            :       47.999935144627 electrons
N(Total)           :       95.999870289254 electrons
E(X)               :      -84.610080765460 Eh       
E(C)               :       -3.283109267410 Eh       
E(XC)              :      -87.893190032869 Eh       

---------------
SCF CONVERGENCE
---------------

  Last Energy change         ...   -3.3555e-07  Tolerance :   1.0000e-05
  Last MAX-Density change    ...    8.1222e-04  Tolerance :   1.0000e-03
  Last RMS-Density change    ...    3.7822e-05  Tolerance :   1.0000e-04
  Last DIIS Error            ...    1.0737e-03  Tolerance :   5.0000e-04
  Last Orbital Gradient      ...    2.8503e-04  Tolerance :   1.0000e-04
  Last Orbital Rotation      ...    2.1810e-04  Tolerance :   1.0000e-04


----------------
ORBITAL ENERGIES
----------------

  NO   OCC          E(Eh)            E(eV) 
   0   2.0000     -18.782904      -511.1088 
   1   2.0000     -18.776286      -510.9287 
   2   2.0000     -18.767567      -510.6915 
   3   2.0000     -18.761241      -510.5193 
   4   2.0000     -18.749922      -510.2113 
   5   2.0000     -18.738404      -509.8979 
   6   2.0000      -9.992527      -271.9105 
   7   2.0000      -9.949647      -270.7437 
   8   2.0000      -9.947377      -270.6819 
   9   2.0000      -9.946756      -270.6650 
  10   2.0000      -9.945975      -270.6437 
  11   2.0000      -9.928823      -270.1770 
  12   2.0000      -0.989061       -26.9137 
  13   2.0000      -0.962354       -26.1870 
  14   2.0000      -0.940671       -25.5970 
  15   2.0000      -0.926993       -25.2248 
  16   2.0000      -0.920146       -25.0384 
  17   2.0000      -0.914405       -24.8822 
  18   2.0000      -0.710124       -19.3234 
  19   2.0000      -0.695310       -18.9203 
  20   2.0000      -0.616870       -16.7859 
  21   2.0000      -0.602618       -16.3981 
  22   2.0000      -0.563362       -15.3299 
  23   2.0000      -0.529558       -14.4100 
  24   2.0000      -0.516036       -14.0420 
  25   2.0000      -0.492801       -13.4098 
  26   2.0000      -0.479401       -13.0452 
  27   2.0000      -0.471966       -12.8429 
  28   2.0000      -0.451709       -12.2916 
  29   2.0000      -0.418075       -11.3764 
  30   2.0000      -0.417628       -11.3642 
  31   2.0000      -0.400064       -10.8863 
  32   2.0000      -0.384383       -10.4596 
  33   2.0000      -0.377069       -10.2606 
  34   2.0000      -0.368261       -10.0209 
  35   2.0000      -0.356274        -9.6947 
  36   2.0000      -0.354821        -9.6552 
  37   2.0000      -0.314708        -8.5636 
  38   2.0000      -0.311023        -8.4634 
  39   2.0000      -0.301382        -8.2010 
  40   2.0000      -0.290067        -7.8931 
  41   2.0000      -0.274412        -7.4671 
  42   2.0000      -0.256675        -6.9845 
  43   2.0000      -0.245698        -6.6858 
  44   2.0000      -0.237370        -6.4592 
  45   2.0000      -0.226896        -6.1742 
  46   2.0000      -0.216954        -5.9036 
  47   2.0000      -0.205492        -5.5917 
  48   0.0000       0.008534         0.2322 
  49   0.0000       0.018978         0.5164 
  50   0.0000       0.022827         0.6212 
  51   0.0000       0.043678         1.1885 
  52   0.0000       0.056529         1.5382 
  53   0.0000       0.073653         2.0042 
  54   0.0000       0.080700         2.1960 
  55   0.0000       0.093931         2.5560 
  56   0.0000       0.100488         2.7344 
  57   0.0000       0.107919         2.9366 
  58   0.0000       0.113267         3.0821 
*Only the first 10 virtual orbitals were printed.

                    ********************************
                    * MULLIKEN POPULATION ANALYSIS *
                    ********************************

-----------------------
MULLIKEN ATOMIC CHARGES
-----------------------
   0 C :    0.092461
   1 C :    0.005677
   2 H :    0.060259
   3 C :    0.016251
   4 H :    0.075415
   5 C :    0.081079
   6 H :    0.053471
   7 C :    0.086335
   8 H :    0.085101
   9 C :    0.119807
  10 H :    0.050880
  11 O :   -0.302063
  12 O :   -0.384230
  13 O :   -0.416296
  14 O :   -0.405104
  15 O :   -0.420635
  16 O :   -0.444407
  17 H :    0.092509
  18 H :    0.053748
  19 H :    0.302291
  20 H :    0.300678
  21 H :    0.301147
  22 H :    0.304343
  23 H :    0.291285
Sum of atomic charges:   -0.0000000

--------------------------------
MULLIKEN REDUCED ORBITAL CHARGES
--------------------------------
  0 C s       :     3.013660  s :     3.013660
      pz      :     1.030930  p :     2.830136
      px      :     0.808341
      py      :     0.990866
      dz2     :     0.012617  d :     0.063743
      dxz     :     0.009945
      dyz     :     0.010638
      dx2y2   :     0.016378
      dxy     :     0.014164

  1 C s       :     3.082025  s :     3.082025
      pz      :     1.060528  p :     2.847129
      px      :     0.898875
      py      :     0.887726
      dz2     :     0.013323  d :     0.065169
      dxz     :     0.008948
      dyz     :     0.012438
      dx2y2   :     0.012562
      dxy     :     0.017898

  2 H s       :     0.939741  s :     0.939741

  3 C s       :     3.025315  s :     3.025315
      pz      :     1.151066  p :     2.891309
      px      :     0.878718
      py      :     0.861525
      dz2     :     0.014102  d :     0.067126
      dxz     :     0.007145
      dyz     :     0.011081
      dx2y2   :     0.016507
      dxy     :     0.018292

  4 H s       :     0.924585  s :     0.924585

  5 C s       :     3.038837  s :     3.038837
      pz      :     0.891871  p :     2.812050
      px      :     0.960284
      py      :     0.959895
      dz2     :     0.017710  d :     0.068035
      dxz     :     0.009939
      dyz     :     0.016243
      dx2y2   :     0.009940
      dxy     :     0.014203

  6 H s       :     0.946529  s :     0.946529

  7 C s       :     3.007626  s :     3.007626
      pz      :     0.743227  p :     2.839571
      px      :     1.085563
      py      :     1.010780
      dz2     :     0.019226  d :     0.066468
      dxz     :     0.017721
      dyz     :     0.013749
      dx2y2   :     0.007576
      dxy     :     0.008196

  8 H s       :     0.914899  s :     0.914899

  9 C s       :     3.012575  s :     3.012575
      pz      :     0.788988  p :     2.766128
      px      :     0.876935
      py      :     1.100205
      dz2     :     0.029595  d :     0.101490
      dxz     :     0.026351
      dyz     :     0.014868
      dx2y2   :     0.012443
      dxy     :     0.018234

 10 H s       :     0.949120  s :     0.949120

 11 O s       :     3.744275  s :     3.744275
      pz      :     1.734725  p :     4.542648
      px      :     1.241241
      py      :     1.566683
      dz2     :     0.002220  d :     0.015140
      dxz     :     0.002609
      dyz     :     0.002059
      dx2y2   :     0.003126
      dxy     :     0.005126

 12 O s       :     3.774560  s :     3.774560
      pz      :     1.332291  p :     4.594347
      px      :     1.803992
      py      :     1.458064
      dz2     :     0.005391  d :     0.015323
      dxz     :     0.001702
      dyz     :     0.002649
      dx2y2   :     0.002932
      dxy     :     0.002648

 13 O s       :     3.785139  s :     3.785139
      pz      :     1.363918  p :     4.615572
      px      :     1.591615
      py      :     1.660038
      dz2     :     0.005719  d :     0.015585
      dxz     :     0.001745
      dyz     :     0.002239
      dx2y2   :     0.000580
      dxy     :     0.005302

 14 O s       :     3.775259  s :     3.775259
      pz      :     1.558729  p :     4.614137
      px      :     1.513475
      py      :     1.541932
      dz2     :     0.002596  d :     0.015708
      dxz     :     0.003582
      dyz     :     0.001937
      dx2y2   :     0.002378
      dxy     :     0.005216

 15 O s       :     3.794020  s :     3.794020
      pz      :     1.433478  p :     4.611158
      px      :     1.602235
      py      :     1.575445
      dz2     :     0.006450  d :     0.015457
      dxz     :     0.001518
      dyz     :     0.002824
      dx2y2   :     0.001838
      dxy     :     0.002828

 16 O s       :     3.783033  s :     3.783033
      pz      :     1.748979  p :     4.645568
      px      :     1.556728
      py      :     1.339861
      dz2     :     0.001425  d :     0.015806
      dxz     :     0.002579
      dyz     :     0.004684
      dx2y2   :     0.004544
      dxy     :     0.002574

 17 H s       :     0.907491  s :     0.907491

 18 H s       :     0.946252  s :     0.946252

 19 H s       :     0.697709  s :     0.697709

 20 H s       :     0.699322  s :     0.699322

 21 H s       :     0.698853  s :     0.698853

 22 H s       :     0.695657  s :     0.695657

 23 H s       :     0.708715  s :     0.708715


------------------------
MULLIKEN OVERLAP CHARGES
------------------------
B(  0-C ,  1-C ) :   0.5606 B(  0-C ,  2-H ) :  -0.0957 B(  0-C , 11-O ) :  -0.0628 
B(  0-C , 16-O ) :   0.6776 B(  0-C , 17-H ) :   0.6875 B(  0-C , 18-H ) :   0.6403 
B(  0-C , 23-H ) :  -0.0804 B(  1-C ,  2-H ) :   0.6726 B(  1-C ,  3-C ) :   0.2242 
B(  1-C ,  7-C ) :  -0.0877 B(  1-C ,  9-C ) :  -0.1029 B(  1-C , 11-O ) :   0.4638 
B(  1-C , 15-O ) :  -0.0636 B(  1-C , 16-O ) :  -0.0711 B(  2-H ,  3-C ) :  -0.1103 
B(  3-C ,  4-H ) :   0.4620 B(  3-C ,  5-C ) :   0.4098 B(  3-C ,  7-C ) :   0.1399 
B(  3-C , 11-O ) :  -0.0517 B(  3-C , 12-O ) :  -0.0722 B(  3-C , 14-O ) :  -0.0605 
B(  3-C , 15-O ) :   0.5028 B(  3-C , 18-H ) :  -0.0679 B(  3-C , 22-H ) :  -0.1239 
B(  4-H ,  5-C ) :   0.0615 B(  4-H ,  7-C ) :  -0.0904 B(  4-H , 12-O ) :   0.0634 
B(  4-H , 15-O ) :  -0.0656 B(  5-C ,  6-H ) :   0.5716 B(  5-C ,  7-C ) :  -0.3255 
B(  5-C , 11-O ) :  -0.0581 B(  5-C , 13-O ) :  -0.0699 B(  5-C , 14-O ) :   0.6165 
B(  5-C , 15-O ) :  -0.0807 B(  5-C , 21-H ) :  -0.0897 B(  6-H ,  7-C ) :  -0.0775 
B(  6-H , 14-O ) :  -0.0596 B(  7-C ,  8-H ) :   0.5381 B(  7-C ,  9-C ) :   0.4265 
B(  7-C , 10-H ) :  -0.0979 B(  7-C , 12-O ) :  -0.1622 B(  7-C , 13-O ) :   0.4789 
B(  7-C , 14-O ) :  -0.0800 B(  7-C , 20-H ) :  -0.0905 B(  9-C , 10-H ) :   0.7110 
B(  9-C , 11-O ) :   0.6522 B(  9-C , 12-O ) :   0.6037 B( 10-H , 11-O ) :  -0.0874 
B( 10-H , 12-O ) :  -0.0601 B( 11-O , 12-O ) :  -0.1473 B( 12-O , 19-H ) :   0.4894 
B( 13-O , 20-H ) :   0.5279 B( 14-O , 21-H ) :   0.5261 B( 15-O , 22-H ) :   0.5154 
B( 15-O , 23-H ) :   0.0990 B( 16-O , 17-H ) :  -0.0556 B( 16-O , 18-H ) :  -0.0554 
B( 16-O , 23-H ) :   0.5299 B( 17-H , 18-H ) :  -0.0851 


                     *******************************
                     * LOEWDIN POPULATION ANALYSIS *
                     *******************************

----------------------
LOEWDIN ATOMIC CHARGES
----------------------
   0 C :   -0.124233
   1 C :   -0.072960
   2 H :    0.106615
   3 C :   -0.096697
   4 H :    0.122766
   5 C :   -0.062062
   6 H :    0.103392
   7 C :   -0.070867
   8 H :    0.118532
   9 C :   -0.014584
  10 H :    0.090739
  11 O :   -0.137730
  12 O :   -0.309923
  13 O :   -0.311178
  14 O :   -0.312985
  15 O :   -0.302841
  16 O :   -0.341792
  17 H :    0.115852
  18 H :    0.092237
  19 H :    0.285192
  20 H :    0.286545
  21 H :    0.283205
  22 H :    0.285465
  23 H :    0.267314

-------------------------------
LOEWDIN REDUCED ORBITAL CHARGES
-------------------------------
  0 C s       :     2.921058  s :     2.921058
      pz      :     1.104022  p :     3.057177
      px      :     0.922059
      py      :     1.031096
      dz2     :     0.029650  d :     0.145997
      dxz     :     0.021207
      dyz     :     0.024598
      dx2y2   :     0.036616
      dxy     :     0.033926

  1 C s       :     2.903643  s :     2.903643
      pz      :     1.095902  p :     3.017400
      px      :     0.947687
      py      :     0.973811
      dz2     :     0.030340  d :     0.151917
      dxz     :     0.018102
      dyz     :     0.031347
      dx2y2   :     0.029018
      dxy     :     0.043109

  2 H s       :     0.893385  s :     0.893385

  3 C s       :     2.897442  s :     2.897442
      pz      :     1.121181  p :     3.041929
      px      :     0.954152
      py      :     0.966596
      dz2     :     0.032874  d :     0.157327
      dxz     :     0.013992
      dyz     :     0.027034
      dx2y2   :     0.039196
      dxy     :     0.044230

  4 H s       :     0.877234  s :     0.877234

  5 C s       :     2.892222  s :     2.892222
      pz      :     0.988281  p :     3.011437
      px      :     1.044518
      py      :     0.978638
      dz2     :     0.041647  d :     0.158403
      dxz     :     0.021342
      dyz     :     0.037132
      dx2y2   :     0.020897
      dxy     :     0.037384

  6 H s       :     0.896608  s :     0.896608

  7 C s       :     2.897650  s :     2.897650
      pz      :     0.879477  p :     3.018434
      px      :     1.075152
      py      :     1.063805
      dz2     :     0.046187  d :     0.154783
      dxz     :     0.038064
      dyz     :     0.028584
      dx2y2   :     0.018397
      dxy     :     0.023551

  8 H s       :     0.881468  s :     0.881468

  9 C s       :     2.886171  s :     2.886171
      pz      :     0.876267  p :     2.900387
      px      :     0.932130
      py      :     1.091991
      dz2     :     0.070518  d :     0.228026
      dxz     :     0.057397
      dyz     :     0.029947
      dx2y2   :     0.029077
      dxy     :     0.041085

 10 H s       :     0.909261  s :     0.909261

 11 O s       :     3.463750  s :     3.463750
      pz      :     1.743802  p :     4.644005
      px      :     1.302107
      py      :     1.598095
      dz2     :     0.003717  d :     0.029975
      dxz     :     0.005715
      dyz     :     0.002791
      dx2y2   :     0.006859
      dxy     :     0.010893

 12 O s       :     3.538902  s :     3.538902
      pz      :     1.411489  p :     4.743711
      px      :     1.813898
      py      :     1.518324
      dz2     :     0.011237  d :     0.027310
      dxz     :     0.002662
      dyz     :     0.004893
      dx2y2   :     0.004450
      dxy     :     0.004066

 13 O s       :     3.535353  s :     3.535353
      pz      :     1.438126  p :     4.748328
      px      :     1.624369
      py      :     1.685833
      dz2     :     0.011001  d :     0.027497
      dxz     :     0.003417
      dyz     :     0.003758
      dx2y2   :     0.000705
      dxy     :     0.008617

 14 O s       :     3.533723  s :     3.533723
      pz      :     1.608184  p :     4.751732
      px      :     1.571604
      py      :     1.571944
      dz2     :     0.004233  d :     0.027530
      dxz     :     0.006164
      dyz     :     0.004494
      dx2y2   :     0.003660
      dxy     :     0.008978

 15 O s       :     3.538762  s :     3.538762
      pz      :     1.499811  p :     4.737027
      px      :     1.631877
      py      :     1.605339
      dz2     :     0.010991  d :     0.027053
      dxz     :     0.002281
      dyz     :     0.004963
      dx2y2   :     0.003201
      dxy     :     0.005616

 16 O s       :     3.532658  s :     3.532658
      pz      :     1.778213  p :     4.781909
      px      :     1.596622
      py      :     1.407073
      dz2     :     0.002231  d :     0.027225
      dxz     :     0.003413
      dyz     :     0.007879
      dx2y2   :     0.008200
      dxy     :     0.005502

 17 H s       :     0.884148  s :     0.884148

 18 H s       :     0.907763  s :     0.907763

 19 H s       :     0.714808  s :     0.714808

 20 H s       :     0.713455  s :     0.713455

 21 H s       :     0.716795  s :     0.716795

 22 H s       :     0.714535  s :     0.714535

 23 H s       :     0.732686  s :     0.732686


---------------------------------
LOEWDIN BOND ORDERS (THRESH 0.050000)
---------------------------------
B(  0-C ,  1-C ) :   1.0507 B(  0-C ,  3-C ) :   0.0568 B(  0-C , 11-O ) :   0.0703 
B(  0-C , 16-O ) :   1.2620 B(  0-C , 17-H ) :   0.9103 B(  0-C , 18-H ) :   0.9048 
B(  1-C ,  2-H ) :   0.8699 B(  1-C ,  3-C ) :   1.0219 B(  1-C ,  5-C ) :   0.0591 
B(  1-C ,  9-C ) :   0.0618 B(  1-C , 11-O ) :   1.1172 B(  1-C , 15-O ) :   0.0759 
B(  1-C , 16-O ) :   0.0843 B(  3-C ,  4-H ) :   0.8588 B(  3-C ,  5-C ) :   1.0305 
B(  3-C ,  7-C ) :   0.0527 B(  3-C , 11-O ) :   0.0550 B(  3-C , 14-O ) :   0.0788 
B(  3-C , 15-O ) :   1.1932 B(  5-C ,  6-H ) :   0.8569 B(  5-C ,  7-C ) :   1.0109 
B(  5-C ,  9-C ) :   0.0514 B(  5-C , 13-O ) :   0.0641 B(  5-C , 14-O ) :   1.2323 
B(  5-C , 15-O ) :   0.0736 B(  7-C ,  8-H ) :   0.8644 B(  7-C ,  9-C ) :   1.0189 
B(  7-C , 11-O ) :   0.0591 B(  7-C , 12-O ) :   0.0637 B(  7-C , 13-O ) :   1.2235 
B(  7-C , 14-O ) :   0.0623 B(  9-C , 10-H ) :   0.8785 B(  9-C , 11-O ) :   1.2092 
B(  9-C , 12-O ) :   1.2507 B(  9-C , 13-O ) :   0.0854 B( 11-O , 12-O ) :   0.0968 
B( 12-O , 19-H ) :   0.8731 B( 13-O , 20-H ) :   0.8813 B( 14-O , 21-H ) :   0.8745 
B( 15-O , 22-H ) :   0.8735 B( 15-O , 23-H ) :   0.0769 B( 16-O , 23-H ) :   0.8621 


------------------------------------------
LOEWDIN REDUCED ORBITAL POPULATIONS PER MO
-------------------------------------------
THRESHOLD FOR PRINTING IS 0.1%%
                      0         1         2         3         4         5   
                 -18.78290 -18.77629 -18.76757 -18.76124 -18.74992 -18.73840
                   2.00000   2.00000   2.00000   2.00000   2.00000   2.00000
                  --------  --------  --------  --------  --------  --------
11 O  s               0.0      99.9       0.0       0.0       0.0       0.0
12 O  s               0.0       0.0      99.9       0.0       0.0       0.0
13 O  s               0.0       0.0       0.0      99.9       0.0       0.0
14 O  s               0.0       0.0       0.0       0.0      99.9       0.0
15 O  s              99.9       0.0       0.0       0.0       0.0       0.0
16 O  s               0.0       0.0       0.0       0.0       0.0      99.9

                      6         7         8         9        10        11   
                  -9.99253  -9.94965  -9.94738  -9.94676  -9.94597  -9.92882
                   2.00000   2.00000   2.00000   2.00000   2.00000   2.00000
                  --------  --------  --------  --------  --------  --------
 0 C  s               0.0       0.0       0.0       0.0       0.0      99.6
 1 C  s               0.0       0.0       0.0       0.0      99.6       0.0
 3 C  s               0.0      99.6       0.0       0.0       0.0       0.0
 5 C  s               0.0       0.0       0.1      99.5       0.0       0.0
 7 C  s               0.0       0.0      99.5       0.1       0.0       0.0
 9 C  s              99.6       0.0       0.0       0.0       0.0       0.0
12 O  pz              0.1       0.0       0.0       0.0       0.0       0.0
13 O  pz              0.0       0.0       0.1       0.0       0.0       0.0

                     12        13        14        15        16        17   
                  -0.98906  -0.96235  -0.94067  -0.92699  -0.92015  -0.91441
                   2.00000   2.00000   2.00000   2.00000   2.00000   2.00000
                  --------  --------  --------  --------  --------  --------
 0 C  s               0.4       0.3       0.2       1.4       3.5       5.5
 0 C  pz              0.0       0.0       0.0       0.0       0.1       0.1
 0 C  px              0.3       0.1       0.0       0.2       0.3       5.5
 0 C  py              0.1       0.3       0.1       0.4       0.8       2.1
 0 C  dz2             0.0       0.0       0.0       0.0       0.1       0.1
 0 C  dxy             0.0       0.0       0.0       0.0       0.1       0.4
 1 C  s               4.6       0.3       0.3       0.9       3.3       0.5
 1 C  pz              0.2       0.2       0.0       0.0       0.0       0.0
 1 C  px              2.3       0.3       0.0       0.0       0.4       3.1
 1 C  py              1.1       1.3       0.0       0.1       1.5       0.3
 1 C  dxy             0.2       0.0       0.0       0.0       0.1       0.2
 2 H  s               0.5       0.1       0.0       0.1       0.4       0.0
 3 C  s               1.6       8.8       0.1       0.0       0.1       0.3
 3 C  pz              0.2       0.1       0.0       0.1       0.1       0.0
 3 C  px              0.0       3.0       0.9       1.5       0.8       0.0
 3 C  py              0.1       4.5       0.0       0.2       0.9       0.0
 3 C  dz2             0.0       0.2       0.0       0.0       0.0       0.0
 3 C  dxy             0.0       0.4       0.0       0.1       0.1       0.0
 4 H  s               0.4       1.0       0.0       0.0       0.0       0.0
 5 C  s               0.9       2.5       2.7       4.9       0.9       0.0
 5 C  pz              0.0       0.6       0.1       3.7       0.7       0.0
 5 C  px              0.0       0.7       1.3       0.4       0.1       0.1
 5 C  py              0.2       0.2       0.1       3.3       0.6       0.0
 5 C  dyz             0.0       0.0       0.1       0.4       0.1       0.0
 6 H  s               0.2       0.4       0.6       0.4       0.1       0.0
 7 C  s               2.6       0.0       8.6       0.2       0.2       0.1
 7 C  pz              0.0       0.0       6.6       2.4       0.2       0.0
 7 C  px              0.4       0.0       0.3       0.4       0.2       0.0
 7 C  py              0.9       0.4       0.2       0.4       0.2       0.0
 7 C  dz2             0.0       0.0       0.5       0.1       0.0       0.0
 7 C  dxz             0.0       0.0       0.1       0.0       0.0       0.0
 8 H  s               0.4       0.0       1.1       0.0       0.0       0.0
 9 C  s              15.2       1.0       0.1       0.1       0.3       0.0
 9 C  pz              0.5       0.3       1.0       2.1       5.8       3.6
 9 C  px              3.4       0.1       0.6       0.1       1.8       1.3
 9 C  py              0.1       0.1       1.0       0.0       0.1       0.0
 9 C  dz2             0.1       0.0       0.0       0.1       0.5       0.3
 9 C  dxz             0.1       0.0       0.0       0.0       0.1       0.1
 9 C  dx2y2           0.1       0.0       0.0       0.0       0.1       0.1
10 H  s               1.8       0.1       0.0       0.0       0.0       0.0
11 O  s              27.3       1.0       1.0       2.1      13.4       9.7
11 O  pz              0.6       0.0       0.0       0.0       0.0       0.0
11 O  px              0.4       0.1       0.0       0.0       0.2       0.0
11 O  py              1.2       0.0       0.0       0.1       0.6       0.4
12 O  s              18.9       2.9       2.1       5.5      19.8      10.7
12 O  pz              1.5       0.1       0.0       0.1       0.2       0.1
12 O  px              0.1       0.0       0.0       0.0       0.0       0.0
12 O  py              0.4       0.1       0.1       0.2       0.6       0.3
13 O  s               2.1       0.0      45.5       7.7       2.6       0.3
13 O  pz              0.2       0.0       1.5       0.2       0.1       0.0
13 O  px              0.0       0.0       0.4       0.1       0.0       0.0
13 O  py              0.0       0.0       0.8       0.2       0.1       0.0
14 O  s               0.5       4.6       6.8      36.9       8.4       0.4
14 O  pz              0.0       0.1       0.1       0.3       0.1       0.0
14 O  px              0.0       0.3       0.3       1.8       0.4       0.0
15 O  s               1.8      46.9       2.2       1.8       5.5       1.0
15 O  pz              0.0       1.4       0.1       0.1       0.2       0.0
15 O  px              0.1       1.0       0.0       0.0       0.1       0.0
15 O  py              0.0       0.3       0.0       0.0       0.0       0.0
16 O  s               0.2       1.1       0.5       5.7      11.8      39.0
16 O  pz              0.0       0.0       0.0       0.1       0.2       0.7
16 O  px              0.0       0.1       0.0       0.3       0.5       1.5
17 H  s               0.1       0.0       0.0       0.2       0.5       0.6
18 H  s               0.1       0.0       0.0       0.2       0.4       0.6
19 H  s               3.9       0.6       0.4       1.1       4.0       2.1
20 H  s               0.5       0.0       9.2       1.6       0.6       0.1
21 H  s               0.1       1.3       1.3       7.4       1.6       0.1
22 H  s               0.4       9.5       0.4       0.4       1.1       0.2
23 H  s               0.1       0.8       0.2       1.3       2.0       7.6

                     18        19        20        21        22        23   
                  -0.71012  -0.69531  -0.61687  -0.60262  -0.56336  -0.52956
                   2.00000   2.00000   2.00000   2.00000   2.00000   2.00000
                  --------  --------  --------  --------  --------  --------
 0 C  s               2.0       4.4      13.5       1.0      10.0       0.0
 0 C  pz              0.0       0.1       0.1       0.1       0.2       0.4
 0 C  px              1.6       3.1       1.1       0.0       1.4       0.0
 0 C  py              0.1       0.0       0.9       0.1       3.0       0.1
 0 C  dxy             0.1       0.1       0.1       0.0       0.0       0.0
 1 C  s               9.1      10.4       1.6       0.1       5.5       1.0
 1 C  pz              0.7       0.0       0.3       1.6       0.9       1.2
 1 C  px              0.1       0.9       4.7       1.4       1.9       0.0
 1 C  py              2.4       0.6       3.0       2.5       1.1       1.2
 1 C  dxy             0.1       0.0       0.1       0.2       0.1       0.1
 2 H  s               1.9       1.9       0.5       0.0       2.6       1.7
 3 C  s              13.9       0.2       7.6       5.5       0.1       0.4
 3 C  pz              0.8       0.1       0.4       1.4       0.9       7.3
 3 C  px              2.2       1.4       1.1       1.3       0.7       4.7
 3 C  py              1.8       1.5       0.3       0.7       3.5       0.2
 3 C  dxy             0.1       0.0       0.0       0.0       0.0       0.2
 4 H  s               2.8       0.1       2.3       2.7       0.1       2.0
 5 C  s              10.2       3.5       1.3       5.1       4.4       2.9
 5 C  pz              0.4       0.3       0.0       2.1       0.1       0.3
 5 C  px              0.7       1.0       5.1       2.8       0.4       2.4
 5 C  py              4.3       1.6       0.0       0.1       0.7       0.5
 6 H  s               1.9       0.6       0.4       2.6       1.9       2.1
 7 C  s               4.2      10.7       5.5       0.9       1.3       5.0
 7 C  pz              0.7       1.8       0.8       0.2       0.4       1.0
 7 C  px              1.8       1.2       0.4       0.3       0.6       1.8
 7 C  py              1.1       0.4       0.7       8.9       1.7       0.5
 7 C  dz2             0.0       0.1       0.0       0.0       0.0       0.1
 7 C  dxy             0.1       0.0       0.0       0.1       0.0       0.0
 8 H  s               0.7       2.0       2.2       0.2       0.8       2.1
 9 C  s               0.3      10.1       1.9       8.3       0.0       1.5
 9 C  pz              0.3       1.5       0.1       0.1       0.6       1.2
 9 C  px              0.7       0.4       3.0       0.9       1.8       0.1
 9 C  py              3.3       1.3       1.5       0.1       4.4       0.3
 9 C  dz2             0.0       0.1       0.0       0.0       0.0       0.1
 9 C  dx2y2           0.1       0.0       0.1       0.0       0.0       0.0
10 H  s               0.2       2.2       0.6       3.6       0.1       0.7
11 O  s               3.8       0.0       0.7       1.7       0.5       0.8
11 O  pz              0.1       0.4       0.1       0.8       0.8       0.0
11 O  px              2.3       9.5       0.6       5.1       5.5       0.2
11 O  py              0.8       0.2       0.0       0.1       3.3       0.2
11 O  dxy             0.0       0.1       0.0       0.0       0.0       0.0
12 O  s               0.0       2.4       0.1       1.2       0.1       0.1
12 O  pz              0.0       2.6       1.3       5.5       0.4       5.4
12 O  px              0.0       0.2       0.6       0.4       0.5       0.6
12 O  py              0.2       1.2       0.8       1.6       1.4       1.7
12 O  dz2             0.0       0.1       0.0       0.1       0.0       0.1
13 O  s               1.0       3.2       1.0       0.0       0.2       0.3
13 O  pz              0.7       2.0       2.0       1.0       0.5      10.4
13 O  px              0.6       1.2       0.5       1.1       0.0       3.6
13 O  py              0.3       0.3       0.1       1.6       0.0       2.2
13 O  dz2             0.0       0.0       0.0       0.0       0.0       0.2
14 O  s               3.1       1.0       0.5       0.4       0.9       0.2
14 O  pz              0.9       0.5       0.1       2.6       2.5       1.6
14 O  px              0.2       0.2       0.2       0.6       0.0       0.0
14 O  py              1.4       0.7       0.1       2.0       2.2       0.8
15 O  s               3.5       0.1       1.1       0.5       0.0       0.5
15 O  pz              0.6       0.0       1.7       2.7       0.5       9.6
15 O  px              1.3       0.0       2.2       1.8       1.2       1.2
15 O  py              1.6       0.2       2.2       3.9       0.0       5.2
16 O  s               0.8       1.5       2.5       0.3       0.7       0.0
16 O  pz              0.0       0.0       0.2       0.0       0.1       0.1
16 O  px              0.2       0.3       1.9       0.3       2.0       0.0
16 O  py              0.2       0.5       4.0       0.4       9.7       0.0
17 H  s               0.3       1.0       4.5       0.1       4.8       0.0
18 H  s               0.4       1.0       3.2       0.4       3.9       0.2
19 H  s               0.0       1.9       0.7       2.5       0.5       2.1
20 H  s               0.8       1.9       0.9       1.0       0.1       4.5
21 H  s               1.5       0.7       0.1       1.7       1.4       0.6
22 H  s               1.7       0.1       2.0       2.6       0.3       4.2
23 H  s               0.4       0.6       2.1       0.3       3.6       0.0

                     24        25        26        27        28        29   
                  -0.51604  -0.49280  -0.47940  -0.47197  -0.45171  -0.41807
                   2.00000   2.00000   2.00000   2.00000   2.00000   2.00000
                  --------  --------  --------  --------  --------  --------
 0 C  s               0.0       0.2       0.3       0.0       0.7       0.0
 0 C  pz              0.3       0.0       6.4       0.3       7.0       1.3
 0 C  px              0.0       3.6       1.4       1.6       6.0       0.1
 0 C  py              0.7       2.2       0.4       0.0       2.1       0.1
 1 C  s               1.1       2.1       0.0       0.0       0.2       0.1
 1 C  pz              1.0       0.5      13.0       0.1       2.2       1.1
 1 C  px              0.8       4.2       0.5       0.6       0.0       0.0
 1 C  py              6.9       0.6       1.9       0.6       5.0       0.9
 1 C  dxy             0.2       0.0       0.1       0.0       0.0       0.0
 2 H  s               2.5       1.9       2.3       0.0       2.0       0.5
 3 C  s               0.0       0.1       0.1       0.3       0.0       0.0
 3 C  pz              6.9       0.2       0.2       0.0       0.3       7.2
 3 C  px              0.0       6.3       0.1       1.8       2.9       0.9
 3 C  py              0.5       0.1      13.0       0.4       0.6       0.4
 3 C  dxy             0.1       0.0       0.1       0.0       0.1       0.0
 4 H  s               1.2       0.3       1.1       0.3       0.1       2.8
 5 C  s               0.1       0.2       0.2       0.1       0.9       0.1
 5 C  pz              5.0       0.4       0.5       5.9       0.3       5.6
 5 C  px              1.4       5.2       3.0       0.0       4.4       0.2
 5 C  py              0.1       4.1       1.0       2.7       0.1       0.2
 5 C  dxz             0.0       0.2       0.0       0.0       0.0       0.0
 5 C  dyz             0.0       0.0       0.0       0.0       0.1       0.2
 6 H  s               1.0       0.0       0.9       3.7       1.0       2.2
 7 C  s               0.0       0.0       0.0       1.2       0.0       1.6
 7 C  pz              7.0       0.4       0.0       5.2       0.0       6.4
 7 C  px              0.9       2.4       0.6       0.4       0.1       9.4
 7 C  py              0.2       0.6       1.5       2.6       2.2       3.6
 7 C  dz2             0.0       0.0       0.0       0.3       0.0       0.1
 7 C  dxz             0.0       0.0       0.0       0.0       0.0       0.1
 7 C  dyz             0.0       0.1       0.0       0.2       0.0       0.0
 7 C  dx2y2           0.0       0.0       0.0       0.0       0.0       0.2
 8 H  s               1.6       0.9       0.1       2.1       0.0      12.3
 9 C  s               0.4       0.6       0.1       0.2       0.3       0.6
 9 C  pz              5.6       1.3       0.1       8.9       1.4       1.0
 9 C  px              0.0       2.1       7.4       0.4       7.2       0.9
 9 C  py              2.8       7.3       0.1       1.8       0.5       0.1
 9 C  dz2             0.0       0.0       0.0       0.4       0.1       0.0
 9 C  dxy             0.0       0.0       0.0       0.0       0.0       0.2
10 H  s               1.7       4.8       1.6       0.2       4.2       1.0
11 O  s               0.8       0.0       0.7       0.0       0.0       1.0
11 O  pz              0.0       0.1       7.6       1.2       0.4       1.7
11 O  px              8.0       1.1       4.0       0.7       3.1       0.1
11 O  py              0.1       2.0       0.1       0.7       0.7       1.8
12 O  s               0.1       0.3       0.2       0.0       0.1       0.1
12 O  pz              2.8       0.2       0.0      16.9       1.0       0.0
12 O  px              0.5       0.1       2.4       0.9       0.4       0.0
12 O  py              6.2       3.2       0.0       4.6       1.9       0.0
12 O  dz2             0.0       0.0       0.0       0.2       0.0       0.0
13 O  s               0.0       0.1       0.2       1.4       0.4       0.9
13 O  pz              3.6       0.1       0.1       1.2       0.1       0.3
13 O  px              5.4       1.0       0.0       5.1       0.0      10.7
13 O  py              0.9       0.1       0.3       6.4       0.8       0.0
14 O  s               0.1       0.2       0.5       0.0       0.9       0.1
14 O  pz              2.0       7.9       0.0       0.2       0.1       1.8
14 O  px              0.9       4.0       1.4       0.1       3.1       0.2
14 O  py              5.7       6.9       0.3       1.2       0.6       7.1
15 O  s               0.7       0.0       0.0       0.0       0.1       0.9
15 O  pz              2.6       0.7       3.5       1.2       0.2       1.7
15 O  px              0.0       0.1       7.8       0.2       0.0       2.7
15 O  py              0.0       4.2       1.0       1.3       1.8       1.9
16 O  s               0.1       0.2       0.7       0.1       0.3       0.0
16 O  pz              0.1       0.1       1.4       0.3       3.5       0.2
16 O  px              0.3       0.0       0.0       0.2       2.5       0.0
16 O  py              0.1       4.6       2.2       2.5      12.6       0.0
17 H  s               0.0       0.7       0.5       0.0       0.2       0.2
18 H  s               0.1       0.2       2.8       0.1       5.2       0.4
19 H  s               2.6       0.6       0.0       5.6       0.7       0.0
20 H  s               2.8       0.3       0.0       3.0       0.1       1.7
21 H  s               2.4       5.2       0.2       0.1       0.6       2.1
22 H  s               0.4       0.9       2.3       0.8       0.3       0.0
23 H  s               0.1       1.1       1.0       0.8       5.0       0.1

                     30        31        32        33        34        35   
                  -0.41763  -0.40006  -0.38438  -0.37707  -0.36826  -0.35627
                   2.00000   2.00000   2.00000   2.00000   2.00000   2.00000
                  --------  --------  --------  --------  --------  --------
 0 C  s               0.6       0.2       0.3       0.2       0.1       0.1
 0 C  pz              2.2       9.3       0.4       2.7      10.5       0.5
 0 C  px              0.3       5.9       0.4       2.2       0.8       1.3
 0 C  py              0.3       0.4       1.7      14.1      10.3       5.9
 0 C  dz2             0.1       0.0       0.0       0.1       0.0       0.1
 0 C  dyz             0.0       0.0       0.0       0.1       0.1       0.0
 0 C  dx2y2           0.1       0.1       0.1       0.0       0.0       0.1
 1 C  s               0.1       0.1       0.0       0.1       0.1       0.2
 1 C  pz              0.9       5.3       1.2       2.1       3.6       5.3
 1 C  px              0.1       9.7       0.5       5.4       0.5       1.6
 1 C  py              0.0       0.7       0.4       1.9       0.3       2.9
 1 C  dz2             0.0       0.0       0.0       0.0       0.0       0.4
 1 C  dxz             0.1       0.0       0.0       0.0       0.2       0.0
 1 C  dx2y2           0.0       0.0       0.0       0.2       0.0       0.0
 1 C  dxy             0.0       0.3       0.0       0.0       0.0       0.0
 2 H  s               0.2       2.7       0.7       0.9       1.8       6.0
 3 C  s               2.4       0.1       0.1       0.4       0.1       0.2
 3 C  pz              1.6       1.7       3.0       2.5       0.4       3.6
 3 C  px              3.4       2.0       0.2       0.0       0.6       0.2
 3 C  py              1.4       1.5       4.2       0.0       0.6       2.5
 3 C  dz2             0.1       0.0       0.0       0.0       0.0       0.4
 3 C  dxz             0.1       0.0       0.1       0.0       0.0       0.0
 3 C  dx2y2           0.0       0.1       0.0       0.0       0.1       0.0
 3 C  dxy             0.2       0.0       0.0       0.1       0.0       0.0
 4 H  s               3.9       0.3       1.6       0.6       0.2       4.8
 5 C  s               0.2       0.2       0.8       0.2       0.0       0.1
 5 C  pz              3.3       0.7       8.5       0.7       0.8       1.5
 5 C  px              1.1       0.0       3.4       1.3       0.1       0.1
 5 C  py              0.0       7.1       1.4       7.7       1.2       5.3
 5 C  dxz             0.1       0.1       0.0       0.0       0.0       0.0
 5 C  dyz             0.0       0.0       0.2       0.0       0.0       0.1
 5 C  dx2y2           0.1       0.0       0.1       0.1       0.0       0.0
 5 C  dxy             0.1       0.2       0.1       0.0       0.0       0.0
 6 H  s               1.2       0.8       3.4       3.1       0.4       2.8
 7 C  s               0.0       0.4       0.1       0.1       0.0       0.2
 7 C  pz              0.8       1.4       1.6       0.2       0.1       0.0
 7 C  px             10.5       0.9       3.5       1.1       0.0       7.0
 7 C  py              2.2       2.7       2.3       3.9       1.0       0.2
 7 C  dz2             0.2       0.0       0.3       0.0       0.0       0.0
 7 C  dxy             0.0       0.0       0.2       0.0       0.0       0.0
 8 H  s               2.0       0.3       0.1       0.0       0.1       1.9
 9 C  s               0.1       0.0       0.2       0.0       0.4       0.0
 9 C  pz              1.6       0.1       0.0       0.4       0.0       0.1
 9 C  px              1.8       3.4       3.2       0.7       0.2       0.8
 9 C  py             10.7       0.1       1.9       3.5       0.2       0.2
 9 C  dxz             0.0       0.0       0.0       0.0       0.2       0.0
 9 C  dyz             0.0       0.0       0.0       0.0       0.2       0.1
 9 C  dxy             0.0       0.1       0.2       0.1       0.0       0.0
10 H  s               2.8       0.7       4.1       1.3       0.0       0.1
11 O  s               0.4       0.0       0.0       0.0       2.1       0.2
11 O  pz              0.3       0.2       0.1       1.9       9.1       1.1
11 O  px              1.8       2.9       2.0       0.0       0.8       4.9
11 O  py              4.1       6.0       0.0       0.0       3.7       1.7
12 O  s               0.5       0.1       0.6       0.2       1.9       0.5
12 O  pz              2.5       0.1       0.1       1.1       1.3       0.2
12 O  px              0.5       1.4       0.5       1.4       3.2       0.1
12 O  py              0.8       0.0       2.8       1.3       4.8       2.4
13 O  s               0.0       0.1       0.0       0.8       0.4       0.4
13 O  pz              5.3       1.4       7.6       2.3       0.5       1.5
13 O  px              0.1       0.3       0.2       0.4       0.3       2.4
13 O  py              3.2       0.3       0.1       2.0       1.0       0.2
14 O  s               0.1       0.5       0.0       1.7       0.2       0.4
14 O  pz              0.1       5.2       1.3       4.2       1.2       2.4
14 O  px              0.2       1.4       0.4       5.6       0.7       0.5
14 O  py              0.8       0.2       5.5       0.3       0.4       1.0
15 O  s               0.8       0.1       2.5       0.0       0.0       0.7
15 O  pz              5.1       1.1       7.1       0.3       0.0       4.8
15 O  px              0.2       0.2       8.6       0.2       0.1       6.2
15 O  py              4.4       0.8       0.5       1.6       0.5       3.1
16 O  s               0.6       0.1       0.0       0.2       2.1       0.0
16 O  pz              1.6       1.3       0.4       1.1       7.3       0.4
16 O  px              0.0       0.2       0.8       7.3       9.6       3.2
16 O  py              1.8       8.0       2.4       0.1       0.4       0.0
17 H  s               0.1       2.5       0.7       3.6       8.6       2.0
18 H  s               2.1       1.8       1.1       3.4       2.8       1.5
19 H  s               0.1       0.0       0.3       0.0       0.9       0.4
20 H  s               1.2       0.2       1.0       0.1       0.1       0.0
21 H  s               0.0       1.4       1.3       0.1       0.1       0.1
22 H  s               2.7       0.1       0.2       0.1       0.0       0.2
23 H  s               1.0       1.6       0.6       0.3       0.1       0.5

                     36        37        38        39        40        41   
                  -0.35482  -0.31471  -0.31102  -0.30138  -0.29007  -0.27441
                   2.00000   2.00000   2.00000   2.00000   2.00000   2.00000
                  --------  --------  --------  --------  --------  --------
 0 C  s               0.0       0.0       0.0       0.1       0.6       0.0
 0 C  pz              3.0       0.0       0.9       0.0       4.5       0.1
 0 C  px              0.2       0.7       0.0       1.6       1.0       0.3
[...]
 5 C  pz              0.5       0.1       0.0       0.7       0.6       0.0
 5 C  px              0.3       0.2       0.0       0.0       0.1       0.0
 5 C  py              0.7       0.1       0.0       0.3       0.6       0.0
 5 C  dz2             0.2       0.0       0.0       0.3       0.4       0.0
 5 C  dxz             0.7       0.1       0.0       0.1       1.2       0.0
 5 C  dyz             2.3       1.1       0.1       1.3       1.7       0.2
 5 C  dx2y2           1.1       0.1       0.0       0.0       0.3       0.0
 5 C  dxy             0.5       0.0       0.0       0.7       1.1       0.0
 7 C  s               0.0       0.8       0.5       0.0       0.6       0.0
 7 C  pz              0.0       0.9       0.6       0.0       1.9       0.0
 7 C  px              0.0       0.1       0.1       0.0       0.2       0.0
 7 C  py              0.0       0.0       0.0       0.1       0.1       0.1
 7 C  dz2             0.1       3.2       2.9       0.0       4.5       0.0
 7 C  dxz             0.0       0.8       0.5       0.0       0.2       0.1
 7 C  dyz             0.4       0.3       0.4       0.4       0.0       0.0
 7 C  dxy             0.1       0.0       0.0       0.1       0.1       0.0
 9 C  s               0.6       0.1       0.0       0.9       1.0       1.2
 9 C  pz              1.1       0.4       0.4       0.3       1.5       0.5
 9 C  px              0.0       0.1       0.2       0.4       0.1       1.8
 9 C  py              0.0       0.0       0.1       0.1       0.1       0.1
 9 C  dz2             3.6       1.6       0.8       1.5       4.4       0.5
 9 C  dxz             0.0       0.2       1.1       0.1       0.0       2.3
 9 C  dyz             0.0       0.5       1.5       0.0       0.0       0.0
 9 C  dx2y2           0.0       0.0       0.0       0.5       0.0       2.7
 9 C  dxy             0.0       0.2       0.6       0.0       0.1       0.3
11 O  s               0.0       0.4       1.2       0.0       0.0       0.0
11 O  pz              0.0       0.0       0.0       0.1       0.0       0.5
11 O  px              0.0       0.0       0.0       0.8       0.0       5.3
11 O  py              0.0       0.1       0.0       0.0       0.0       0.3
11 O  dz2             0.1       0.4       2.7       0.1       0.1       1.8
11 O  dxz             0.3       2.6       2.7       0.2       0.7       9.3
11 O  dyz             0.3       0.0       0.2       0.7       0.0       1.1
11 O  dx2y2           0.5       0.3       8.4       0.0       0.0       8.4
11 O  dxy             0.1       0.8       0.9       6.4       0.5      39.0
12 O  s               0.9       0.2       0.1       0.8       2.1       0.1
12 O  pz              1.1       0.4       0.2       0.6       1.5       0.1
12 O  py              0.0       0.0       0.0       0.1       0.3       0.0
12 O  dz2            18.9       6.7       3.7       7.6      21.0       0.6
12 O  dxz             0.0       0.0       0.5       0.0       0.0       0.2
12 O  dyz             0.0       0.4       1.0       0.0       0.5       0.0
12 O  dx2y2           0.1       0.0       0.0       0.1       0.0       0.1
12 O  dxy             0.0       0.1       0.1       0.3       0.0       0.0
13 O  s               0.0       1.2       0.9       0.0       2.4       0.1
13 O  pz              0.0       1.2       0.9       0.0       1.4       0.0
13 O  px              0.0       0.2       0.1       0.0       0.5       0.0
13 O  dz2             0.6      18.8      13.2       0.0      15.8       0.2
13 O  dxz             0.1       1.9       1.3       0.0       4.7       0.0
13 O  dyz             0.4       0.0       0.1       0.3       0.7       0.2
13 O  dx2y2           0.1       0.0       0.0       0.0       0.2       0.0
13 O  dxy             0.0       0.0       0.0       0.0       0.2       0.0
14 O  s               1.3       0.3       0.0       1.4       1.6       0.0
14 O  pz              0.8       0.2       0.0       0.5       0.6       0.0
14 O  py              0.7       0.2       0.0       0.6       1.0       0.0
14 O  dz2             2.5       0.6       0.0       0.1       0.7       0.0
14 O  dxz             5.0       1.2       0.0       2.1       3.1       0.1
14 O  dyz            11.5       3.5       0.2       7.5       9.8       0.3
14 O  dx2y2           1.9       0.3       0.0       0.8       2.7       0.0
14 O  dxy             4.1       1.1       0.1       3.6       2.7       0.2
15 O  s               1.4       0.0       0.1       3.6       0.0       0.7
15 O  pz              0.1       0.0       0.0       0.2       0.0       0.0
15 O  px              0.7       0.1       0.1       1.5       0.0       0.2
15 O  py              0.7       0.0       0.1       1.2       0.0       0.3
15 O  dz2             5.9       0.0       0.8      10.7       0.0       1.5
15 O  dyz             0.0       0.0       0.2       0.0       0.0       0.1
15 O  dx2y2           0.1       0.1       0.1       0.9       0.0       0.1
15 O  dxy            15.4       0.2       1.5      23.0       0.1       3.5
16 O  s               0.1       1.5       1.6       0.1       0.1       0.0
16 O  px              0.0       0.9       1.0       0.0       0.0       0.0
16 O  py              0.1       1.1       1.1       0.0       0.0       0.0
16 O  dz2             0.3       4.9       5.6       0.1       0.2       0.2
16 O  dxz             0.2       1.9       2.0       0.0       0.0       0.1
16 O  dyz             0.1       2.3       2.0       0.0       0.0       0.2
16 O  dx2y2           0.2       3.6       4.1       0.1       0.2       0.5
16 O  dxy             1.3      18.6      18.0       0.2       0.3       0.0
19 H  s               0.2       0.1       0.1       0.1       0.2       0.0
20 H  s               0.0       0.2       0.1       0.0       0.2       0.0
21 H  s               0.3       0.1       0.0       0.2       0.2       0.0
22 H  s               0.2       0.0       0.1       0.4       0.0       0.1
23 H  s               0.0       0.4       0.4       0.0       0.0       0.0



                      *****************************
                      * MAYER POPULATION ANALYSIS *
                      *****************************

  NA   - Mulliken gross atomic population
  ZA   - Total nuclear charge
  QA   - Mulliken gross atomic charge
  VA   - Mayer's total valence
  BVA  - Mayer's bonded valence
  FA   - Mayer's free valence

  ATOM       NA         ZA         QA         VA         BVA        FA
  0 C      5.9075     6.0000     0.0925     3.9639     3.9639    -0.0000
  1 C      5.9943     6.0000     0.0057     4.0338     4.0338    -0.0000
  2 H      0.9397     1.0000     0.0603     0.9781     0.9781    -0.0000
  3 C      5.9837     6.0000     0.0163     4.0221     4.0221     0.0000
  4 H      0.9246     1.0000     0.0754     1.0184     1.0184    -0.0000
  5 C      5.9189     6.0000     0.0811     4.1274     4.1274     0.0000
  6 H      0.9465     1.0000     0.0535     0.9932     0.9932     0.0000
  7 C      5.9137     6.0000     0.0863     3.9268     3.9268    -0.0000
  8 H      0.9149     1.0000     0.0851     0.9861     0.9861     0.0000
  9 C      5.8802     6.0000     0.1198     4.3201     4.3201    -0.0000
 10 H      0.9491     1.0000     0.0509     0.9715     0.9715    -0.0000
 11 O      8.3021     8.0000    -0.3021     2.1640     2.1640     0.0000
 12 O      8.3842     8.0000    -0.3842     2.0293     2.0293     0.0000
 13 O      8.4163     8.0000    -0.4163     2.0027     2.0027    -0.0000
 14 O      8.4051     8.0000    -0.4051     2.0355     2.0355     0.0000
 15 O      8.4206     8.0000    -0.4206     2.0321     2.0321     0.0000
 16 O      8.4444     8.0000    -0.4444     2.0161     2.0161    -0.0000
 17 H      0.9075     1.0000     0.0925     0.9583     0.9583    -0.0000
 18 H      0.9463     1.0000     0.0537     0.9650     0.9650    -0.0000
 19 H      0.6977     1.0000     0.3023     0.8977     0.8977     0.0000
 20 H      0.6993     1.0000     0.3007     0.8858     0.8858     0.0000
 21 H      0.6989     1.0000     0.3011     0.8956     0.8956     0.0000
 22 H      0.6957     1.0000     0.3043     0.8937     0.8937    -0.0000
 23 H      0.7087     1.0000     0.2913     0.9356     0.9356    -0.0000

  Mayer bond orders larger than 0.100000
B(  0-C ,  1-C ) :   1.0238 B(  0-C , 16-O ) :   1.0908 B(  0-C , 17-H ) :   0.9237 
B(  0-C , 18-H ) :   0.9073 B(  1-C ,  2-H ) :   0.8797 B(  1-C ,  3-C ) :   1.0188 
B(  1-C , 11-O ) :   0.9610 B(  3-C ,  4-H ) :   0.8233 B(  3-C ,  5-C ) :   1.0925 
B(  3-C , 15-O ) :   0.9742 B(  5-C ,  6-H ) :   0.8643 B(  5-C ,  7-C ) :   0.9778 
B(  5-C , 14-O ) :   1.0981 B(  7-C ,  8-H ) :   0.8692 B(  7-C ,  9-C ) :   1.0398 
B(  7-C , 13-O ) :   1.0439 B(  9-C , 10-H ) :   0.8952 B(  9-C , 11-O ) :   1.0794 
B(  9-C , 12-O ) :   1.1227 B( 12-O , 19-H ) :   0.8394 B( 13-O , 20-H ) :   0.8474 
B( 14-O , 21-H ) :   0.8394 B( 15-O , 22-H ) :   0.8355 B( 16-O , 23-H ) :   0.8177 


-------
TIMINGS
-------

Total SCF time: 0 days 0 hours 0 min 6 sec 

Total time                  ....       6.401 sec
Sum of individual times     ....       6.368 sec  ( 99.5%)

SCF preparation             ....       0.308 sec  (  4.8%)
Fock matrix formation       ....       5.839 sec  ( 91.2%)
  Startup                   ....       0.008 sec  (  0.1% of F)
  Split-RI-J                ....       3.019 sec  ( 51.7% of F)
  XC integration            ....       2.667 sec  ( 45.7% of F)
    Basis function eval.    ....       1.101 sec  ( 41.3% of XC)
    Density eval.           ....       0.606 sec  ( 22.7% of XC)
    XC-Functional eval.     ....       0.163 sec  (  6.1% of XC)
    XC-Potential eval.      ....       0.618 sec  ( 23.2% of XC)
Diagonalization             ....       0.000 sec  (  0.0%)
Density matrix formation    ....       0.030 sec  (  0.5%)
Total Energy calculation    ....       0.002 sec  (  0.0%)
Population analysis         ....       0.066 sec  (  1.0%)
Orbital Transformation      ....       0.018 sec  (  0.3%)
Orbital Orthonormalization  ....       0.000 sec  (  0.0%)
DIIS solution               ....       0.082 sec  (  1.3%)
  MO trafo                  ....       0.000 sec  (  0.0 % of DIIS)
  Orb grad                  ....       0.000 sec  (  0.0 % of DIIS)
  Energy W gradient         ....       0.000 sec  (  0.0 % of DIIS)
  DIIS error                ....       0.006 sec  (  7.9 % of DIIS)
  DIIS work                 ....       0.065 sec  ( 79.9 % of DIIS)
  Form Q                    ....       0.000 sec  (  0.0 % of DIIS)
  Form QpQm                 ....       0.000 sec  (  0.0 % of DIIS)
  Exp/Cayley                ....       0.000 sec  (  0.0 % of DIIS)
  Orb update                ....       0.000 sec  (  0.0 % of DIIS)
  Wake-sleep                ....       0.001 sec  (  1.4 % of DIIS)
SOSCF solution              ....       0.024 sec  (  0.4%)
  MO trafo                  ....       0.013 sec  ( 53.7 % of SOSCF)
  Orb grad                  ....       0.000 sec  (  0.8 % of SOSCF)
  Rot update                ....       0.002 sec  (  6.2 % of SOSCF)
  Step                      ....       0.010 sec  ( 39.0 % of SOSCF)
Finished LeanSCF after   6.4 sec

Maximum memory used throughout the entire LEANSCF-calculation: 19.0 MB


-------------------------------------------------------------------------------
                          DFT DISPERSION CORRECTION                            
                                                                               
                                DFTD4 V3.4.0                                   
-------------------------------------------------------------------------------
The PBE functional is recognized
Active option DFTDOPT                   ...         5   

-------------------------   ----------------
Dispersion correction           -0.024704198
-------------------------   ----------------

------------------   -----------------
gCP correction             0.156353078
------------------   -----------------

-------------------------   --------------------
FINAL SINGLE POINT ENERGY      -685.692651260770
-------------------------   --------------------


------------------------------------------------------------------------------
                              ORCA PROPERTY CALCULATIONS
------------------------------------------------------------------------------

GBWName                                 ... sp.gbw
Number of atoms                         ...     24
Number of basis functions               ...    192
Max core memory                         ...   1024 MB

Electric properties:
Dipole moment                           ... YES
Quadrupole moment                       ...  NO
Static polarizability (Dipole/Dipole)   ...  NO
Static polarizability (Dipole/Quad.)    ...  NO
Static polarizability (Quad./Quad.)     ...  NO
Static polarizability (Velocity)        ...  NO

Atomic electric properties:
Dipole moment                           ...  NO
Quadrupole moment                       ...  NO
Static polarizability                   ...  NO

Choice of electric origin               ... Center of mass
Position of electric origin             ...    -0.000001    -0.000004     0.000001

General magnetic properties:
Magnetizability                         ...  NO

EPR properties:
g-Tensor (aka g-matrix)                 ...  NO
Zero-Field splitting spin-orbit         ...  NO
Zero-field splitting spin-spin          ...  NO
Hyperfine couplings                     ...  NO (   0 nuclei)
Quadrupole couplings                    ...  NO (   0 nuclei)
Contact density                         ...  NO (   0 nuclei)

NMR properties:
Chemical shifts                         ...  NO (   0 nuclei)
Spin-rotation constants                 ...  NO (   0 nuclei)
Spin-spin couplings                     ...  NO (   0 nuclei,    0 pairs)

Choice of magnetic origin               ... GIAO
Position of magnetic origin             ...     0.000000     0.000000     0.000000

Properties with geometric perturbations:
SCF Hessian                             ...  NO
IR spectrum                             ...  NO
VCD spectrum                            ...  NO
X-ray spectroscopy properties:
SCF XES/XAS/RIXS spectra                ...  NO


-------------
DIPOLE MOMENT
-------------

Method             : SCF
Type of density    : Electron Density
Multiplicity       :   1
Irrep              :   0
Energy             :  -685.8243001401771153 Eh
Relativity type    : 
Basis              : AO
                                X                 Y                 Z
Electronic contribution:      1.605070873       0.552225942      -0.028229849
Nuclear contribution   :     -1.145306242      -0.763328668      -0.013337766
                        -----------------------------------------
Total Dipole Moment    :      0.459764631      -0.211102726      -0.041567615
                        -----------------------------------------
Magnitude (a.u.)       :      0.507617714
Magnitude (Debye)      :      1.290261689



--------------------
Rotational spectrum 
--------------------
 
Rotational constants in cm-1:             0.042319             0.025640             0.020739 
Rotational constants in MHz :          1268.677446           768.672199           621.744335 

Dipole components along the rotational axes: 
x,y,z [a.u.] :     0.423839    -0.268770    -0.076150 
x,y,z [Debye]:     1.077313    -0.683160    -0.193557 

 

Dipole moment calculation done in   0.0 sec 

Maximum memory used throughout the entire PROP-calculation: 12.6 MB

--------------------------------
SUGGESTED CITATIONS FOR THIS RUN
--------------------------------

Below you find a list of papers that are relevant to this ORCA run
We neither can nor want to force you to cite these papers, but we appreciate if you do
You receive ORCA, which is the product of decades of hard work by many enthusiastic individuals, for free
The only thing we kindly ask in return is that you cite our papers,
We deeply appreciate it, if you show your appreciation for ORCA by not just citing the generic ORCA reference.

Please note that relegating all ORCA citations to the supporting information does *not* help us.
SI sections are not indexed - citations you put there will not count into any citation statistics
But we need these citations in order to attract the funding resources that allow us to do what we are doing

Therefore, if you are a happy ORCA user, please consider citing a few of the papers listed below in the main body of your paper

In addition to the list printed below, the program has created the file sp.bibtex that contains the list in bibtex format
You can import this file easily into all common literature databanks and citation aid programs


List of essential papers. We consider these as the minimum necessary citations

  1. Neese,F.
     Software update: the ORCA program system, version 5.0
     WIRES Comput. Molec. Sci., 2022 12(1)e1606
     doi.org/10.1002/wcms.1606

List of papers to cite with high priority. The work reported in these papers was absolutely
necessary for this run to complete.
Our perspective: the developers of density functionals and basis sets usually get cited in chemistry papers
Good! But without the algorithms to do something with them, the functionals or basis sets would not do anything.
Hence, in our opinion, the algorithm design and method developments papers are equally worthy of getting cited

  1. Neese,F.
     An improvement of the resolution of the identity approximation for the formation of the Coulomb matrix
     J. Comp. Chem., 2003 24(14)1740-1747
     doi.org/10.1002/jcc.10318
  2. Neese,F.
     The SHARK Integral Generation and Digestion System
     J. Comp. Chem., 2022  1-16
     doi.org/10.1002/jcc.26942
  3. Caldeweyher,E.; Bannwarth,C.; Grimme,S.
     Extension of the D3 dispersion coefficient model
     J. Chem. Phys., 2017 147 034112
     doi.org/10.1063/1.4993215
  4. Caldeweyher,E.; Ehlert,S.; Hansen,A.; Neugebauer,H.; Spicher,S.; Bannwarth,C.; Grimme,S.
     A generally applicable atomic-charge dependent London dispersion correction
     J. Chem. Phys., 2019 150 154122
     doi.org/10.1063/1.5090222
  5. Caldeweyher,E.; Mewes,J.; Ehlert,S.; Grimme,S.
     Extension and evaluation of the D4 London-dispersion model for periodic systems
     Phys. Chem. Chem. Phys., 2020 22(16)8499-8512
     doi.org/10.1039/D0CP00502A
  6. Wittmann,L.; Gordiy,I.; Friede,M.; Helmich-Paris,B.; Grimme,S.; Hansen,A.; Bursch,M.
     Extension of the D3 and D4 London Dispersion Corrections to the full Actinides Series
     Phys. Chem. Chem. Phys., 2024 26(32)21379-21394
     doi.org/https://doi.org/10.1039/D4CP01514B 

List of suggested additional citations. These are papers that are important in the 'surrounding' of 
of this run, or papers that preceded the highly important papers. If you like your results we are grateful for a citation.

  1. Neese,F.
     The ORCA program system
     WIRES Comput. Molec. Sci., 2012 2(1)73-78
     doi.org/10.1002/wcms.81
  2. Neese,F.
     Software update: the ORCA program system, version 4.0
     WIRES Comput. Molec. Sci., 2018 8(1)1-6
     doi.org/10.1002/wcms.1327
  3. Neese,F.; Wennmohs,F.; Becker,U.; Riplinger,C.
     The ORCA quantum chemistry program package
     J. Chem. Phys., 2020 152 Art. No. L224108
     doi.org/10.1063/5.0004608

List of optional additional citations

  1. Neese,F.
     Approximate second-order SCF convergence for spin unrestricted wavefunctions
     Chem. Phys. Lett., 2000 325(1-3)93-98
     doi.org/10.1016/s0009-2614(00)00662-x

Timings for individual modules:

Sum of individual times          ...        8.036 sec (=   0.134 min)
Startup calculation              ...        0.626 sec (=   0.010 min)   7.8 %
SCF iterations                   ...        7.343 sec (=   0.122 min)  91.4 %
Property calculations            ...        0.068 sec (=   0.001 min)   0.8 %
                             ****ORCA TERMINATED NORMALLY****
TOTAL RUN TIME: 0 days 0 hours 0 minutes 8 seconds 287 msec
