      -----------------------------------------------------------      
     |                   =====================                   |     
     |                           x T B                           |     
     |                   =====================                   |     
     |                         S. Grimme                         |     
     |          Mulliken Center for Theoretical Chemistry        |     
     |                    University of Bonn                     |     
      -----------------------------------------------------------      

   * xtb version 6.7.1 (edcfbbe) compiled by 'albert@albert-system' on 2024-07-22

   xtb is free software: you can redistribute it and/or modify it under
   the terms of the GNU Lesser General Public License as published by
   the Free Software Foundation, either version 3 of the License, or
   (at your option) any later version.
   
   xtb is distributed in the hope that it will be useful,
   but WITHOUT ANY WARRANTY; without even the implied warranty of
   MERCHANTABILITY or FITNESS FOR A PARTICULAR PURPOSE.  See the
   GNU Lesser General Public License for more details.
   
   Cite this work as:
   * C. Bannwarth, E. Caldeweyher, S. Ehlert, A. Hansen, P. Pracht,
     J. Seibert, S. Spicher, S. Grimme, WIREs Comput. Mol. Sci., 2020, 11,
     e01493. DOI: 10.1002/wcms.1493
   
   for GFN2-xTB:
   * C. Bannwarth, S. Ehlert and S. Grimme., J. Chem. Theory Comput., 2019,
     15, 1652-1671. DOI: 10.1021/acs.jctc.8b01176
   for GFN1-xTB:
   * S. Grimme, C. Bannwarth, P. Shushkov, J. Chem. Theory Comput., 2017,
     13, 1989-2009. DOI: 10.1021/acs.jctc.7b00118
   for GFN0-xTB:
   * P. Pracht, E. Caldeweyher, S. Ehlert, S. Grimme, ChemRxiv, 2019, preprint.
     DOI: 10.26434/chemrxiv.8326202.v1
   for GFN-FF:
   * S. Spicher and S. Grimme, Angew. Chem. Int. Ed., 2020, 59, 15665-15673.
     DOI: 10.1002/anie.202004239
   
   for ALPB and GBSA implicit solvation:
   * S. Ehlert, M. Stahn, S. Spicher, S. Grimme, J. Chem. Theory Comput.,
     2021, 17, 4250-4261. DOI: 10.1021/acs.jctc.1c00471
   
   for ddCOSMO and CPCM-X implicit solvation:
   * M. Stahn, S. Ehlert, S. Grimme, J. Phys. Chem. A,
     2023, XX, XXXX-XXXX. DOI: 10.1021/acs.jpca.3c04382
   
   for DFT-D4:
   * E. Caldeweyher, C. Bannwarth and S. Grimme, J. Chem. Phys., 2017,
     147, 034112. DOI: 10.1063/1.4993215
   * E. Caldeweyher, S. Ehlert, A. Hansen, H. Neugebauer, S. Spicher,
     C. Bannwarth and S. Grimme, J. Chem. Phys., 2019, 150, 154122.
     DOI: 10.1063/1.5090222
   * E. Caldeweyher, J.-M. Mewes, S. Ehlert and S. Grimme, Phys. Chem. Chem. Phys.
     2020, 22, 8499-8512. DOI: 10.1039/D0CP00502A
   
   for sTDA-xTB:
   * S. Grimme and C. Bannwarth, J. Chem. Phys., 2016, 145, 054103.
     DOI: 10.1063/1.4959605
   
   in the mass-spec context:
   * V. Asgeirsson, C. Bauer and S. Grimme, Chem. Sci., 2017, 8, 4879.
     DOI: 10.1039/c7sc00601b
   * J. Koopman and S. Grimme, ACS Omega 2019, 4, 12, 15120-15133.
     DOI: 10.1021/acsomega.9b02011
   
   for metadynamics refer to:
   * S. Grimme, J. Chem. Theory Comput., 2019, 155, 2847-2862
     DOI: 10.1021/acs.jctc.9b00143
   
   for SPH calculations refer to:
   * S. Spicher and S. Grimme, J. Chem. Theory Comput., 2021, 17, 1701-1714
     DOI: 10.1021/acs.jctc.0c01306
   
   for ONIOM refer to:
   * C. Plett, A. Katbashev, S. Ehlert, S. Grimme, M. Bursch,
     Phys. Chem. Chem. Phys., 2023, 25, 17860-17868. DOI: 10.1039/D3CP02178E
   
   for DIPRO refer to:
   * J. Kohn, N. Gildemeister, S. Grimme, D. Fazzi, A. Hansen,
     J. Chem. Phys., 2023, just accepted.
   
   for PTB refer to:
   * S. Grimme, M. Mueller, A. Hansen, J. Chem. Phys., 2023, 158, 124111.
     DOI: 10.1063/5.0137838
   
   with help from (in alphabetical order)
   P. Atkinson, C. Bannwarth, F. Bohle, G. Brandenburg, E. Caldeweyher
   M. Checinski, S. Dohm, S. Ehlert, S. Ehrlich, I. Gerasimov, C. Hölzer
   A. Katbashev, J. Kohn, J. Koopman, C. Lavigne, S. Lehtola, F. März, M. Müller,
   F. Musil, H. Neugebauer, J. Pisarek, C. Plett, P. Pracht, F. Pultar,
   J. Seibert, P. Shushkov, S. Spicher, M. Stahn, M. Steiner, T. Strunk,
   J. Stückrath, T. Rose, and J. Unsleber
   
 * started run on 2025/04/15 at 20:36:24.131     
   ID    Z sym.   atoms
    1    6 C      1-4, 6, 7
    2    7 N      5, 8
    3    1 H      9-16

           -------------------------------------------------
          |                Calculation Setup                |
           -------------------------------------------------

          program call               : /software/projects/pawsey0265/mwang1/xtb/bin/xtb xtb_rrho.coord --gfn2 --ohess vtight --chrg 0 --enso --norestart -I rrho-xcontrol-inp --parallel 1
          hostname                   : nid002800
          coordinate file            : xtb_rrho.coord
          omp threads                :                     1


           -------------------------------------------------
          |                 G F N 2 - x T B                 |
           -------------------------------------------------

        Reference                      10.1021/acs.jctc.8b01176
      * Hamiltonian:
        H0-scaling (s, p, d)           1.850000    2.230000    2.230000
        zeta-weighting                 0.500000
      * Dispersion:
        s8                             2.700000
        a1                             0.520000
        a2                             5.000000
        s9                             5.000000
      * Repulsion:
        kExp                           1.500000    1.000000
        rExp                           1.000000
      * Coulomb:
        alpha                          2.000000
        third order                    shell-resolved
        anisotropic                    true
        a3                             3.000000
        a5                             4.000000
        cn-shift                       1.200000
        cn-exp                         4.000000
        max-rad                        5.000000


          ...................................................
          :                      SETUP                      :
          :.................................................:
          :  # basis functions                  40          :
          :  # atomic orbitals                  40          :
          :  # shells                           24          :
          :  # electrons                        42          :
          :  max. iterations                   250          :
          :  Hamiltonian                  GFN2-xTB          :
          :  restarted?                      false          :
          :  GBSA solvation                  false          :
          :  PC potential                    false          :
          :  electronic temp.          300.0000000     K    :
          :  accuracy                    1.0000000          :
          :  -> integral cutoff          0.2500000E+02      :
          :  -> integral neglect         0.1000000E-07      :
          :  -> SCF convergence          0.1000000E-05 Eh   :
          :  -> wf. convergence          0.1000000E-03 e    :
          :  Broyden damping             0.4000000          :
          :  net charge                          0          :
          :  unpaired electrons                  0          :
          ...................................................

 iter      E             dE          RMSdq      gap      omega  full diag
   1    -23.0571946 -0.230572E+02  0.409E+00    2.82       0.0  T
   2    -23.0804057 -0.232111E-01  0.251E+00    2.58       1.0  T
   3    -23.0808584 -0.452674E-03  0.901E-01    2.29       1.0  T
   4    -23.0829997 -0.214126E-02  0.242E-01    2.22       1.0  T
   5    -23.0832690 -0.269335E-03  0.108E-01    2.22       1.0  T
   6    -23.0833916 -0.122561E-03  0.304E-02    2.22       1.0  T
   7    -23.0833931 -0.149211E-05  0.118E-02    2.23       2.1  T
   8    -23.0833931 -0.585644E-07  0.226E-03    2.23      11.1  T
   9    -23.0833932 -0.530890E-07  0.812E-04    2.23      30.8  T
  10    -23.0833932 -0.624507E-09  0.234E-04    2.23     106.6  T

   *** convergence criteria satisfied after 10 iterations ***

         #    Occupation            Energy/Eh            Energy/eV
      -------------------------------------------------------------
         1        2.0000           -0.6778275             -18.4446
       ...           ...                  ...                  ...
        15        2.0000           -0.4680872             -12.7373
        16        2.0000           -0.4648271             -12.6486
        17        2.0000           -0.4471601             -12.1678
        18        2.0000           -0.4441086             -12.0848
        19        2.0000           -0.4211824             -11.4610
        20        2.0000           -0.4183193             -11.3830
        21        2.0000           -0.3598488              -9.7920 (HOMO)
        22                         -0.2780455              -7.5660 (LUMO)
        23                         -0.2488312              -6.7710
        24                         -0.1350944              -3.6761
        25                          0.0776821               2.1138
        26                          0.1084610               2.9514
       ...                                ...                  ...
        40                          0.5880499              16.0017
      -------------------------------------------------------------
                  HL-Gap            0.0818033 Eh            2.2260 eV
             Fermi-level           -0.3189472 Eh           -8.6790 eV

 SCC (total)                   0 d,  0 h,  0 min,  0.038 sec
 SCC setup                      ...        0 min,  0.000 sec (  0.846%)
 Dispersion                     ...        0 min,  0.000 sec (  0.424%)
 classical contributions        ...        0 min,  0.000 sec (  0.140%)
 integral evaluation            ...        0 min,  0.002 sec (  5.868%)
 iterations                     ...        0 min,  0.030 sec ( 78.993%)
 molecular gradient             ...        0 min,  0.005 sec ( 13.206%)
 printout                       ...        0 min,  0.000 sec (  0.466%)

         :::::::::::::::::::::::::::::::::::::::::::::::::::::
         ::                     SUMMARY                     ::
         :::::::::::::::::::::::::::::::::::::::::::::::::::::
         :: total energy             -22.751648371479 Eh    ::
         :: gradient norm              0.026383623857 Eh/a0 ::
         :: HOMO-LUMO gap              2.225981303243 eV    ::
         ::.................................................::
         :: SCC energy               -23.083368539914 Eh    ::
         :: -> isotropic ES            0.013860493649 Eh    ::
         :: -> anisotropic ES          0.004328407254 Eh    ::
         :: -> anisotropic XC          0.024904221764 Eh    ::
         :: -> dispersion             -0.011463848464 Eh    ::
         :: repulsion energy           0.331720168435 Eh    ::
         :: add. restraining           0.000000000000 Eh    ::
         :: total charge              -0.000000000000 e     ::
         :::::::::::::::::::::::::::::::::::::::::::::::::::::

      ----------------------------------------------------------- 
     |                   =====================                   |
     |                        A N C O P T                        |
     |                   =====================                   |
     |               Approximate Normal Coordinate               |
     |                Rational Function Optimizer                |
      ----------------------------------------------------------- 
      ----------------------------------------------------------- 
     |                   =====================                   |
     |                        A N C O P T                        |
     |                   =====================                   |
     |               Approximate Normal Coordinate               |
     |                Rational Function Optimizer                |
      ----------------------------------------------------------- 

          ...................................................
          :                      SETUP                      :
          :.................................................:
          :   optimization level         verytight          :
          :   max. optcycles                   320          :
          :   ANC micro-cycles                  20          :
          :   degrees of freedom                42          :
          :.................................................:
          :   RF solver                   davidson          :
          :   write xtbopt.log                true          :
          :   linear?                        false          :
          :   energy convergence         0.1000000E-06 Eh   :
          :   grad. convergence          0.2000000E-03 Eh/α :
          :   maxmium RF displ.          1.0000000          :
          :   Hlow (freq-cutoff)         0.1000000E-01      :
          :   Hmax (freq-cutoff)         5.0000000          :
          :   S6 in model hess.         20.0000000          :
          ...................................................

generating ANC from exact Hessian ...
Using Lindh-Hessian (1995)
 Shifting diagonal of input Hessian by   6.679958883043026E-003
 Lowest  eigenvalues of input Hessian
    0.000000    0.000000    0.000000    0.000000    0.000000    0.000000
    0.010000    0.010591    0.014229    0.019296    0.028892    0.031676
    0.047340    0.050484    0.055174    0.057772    0.067371    0.072525
 Highest eigenvalues
    1.282051    1.494657    1.603634    1.997117    2.032662    2.073601
 

........................................................................
.............................. CYCLE    1 ..............................
........................................................................

 iter      E             dE          RMSdq      gap      omega  full diag
   1    -23.0833932 -0.230834E+02  0.735E-05    2.23       0.0  T
   2    -23.0833932 -0.255156E-10  0.466E-05    2.23     536.7  T
   3    -23.0833932 -0.292175E-10  0.214E-05    2.23    1170.6  T
     SCC iter.                  ...        0 min,  0.001 sec
     gradient                   ...        0 min,  0.005 sec
 * total energy  :   -22.7516484 Eh     change       -0.5698659E-09 Eh
   gradient norm :     0.0263835 Eh/α   predicted     0.0000000E+00 (-100.00%)
   displ. norm   :     0.1047647 α      lambda       -0.1547018E-02
   maximum displ.:     0.0366010 α      in ANC's #4, #10, #27, ...

........................................................................
.............................. CYCLE    2 ..............................
........................................................................

 iter      E             dE          RMSdq      gap      omega  full diag
   1    -23.0982432 -0.230982E+02  0.111E-01    2.25       0.0  T
   2    -23.0982465 -0.330759E-05  0.649E-02    2.25       1.0  T
   3    -23.0982450  0.149467E-05  0.140E-02    2.26       1.8  T
   4    -23.0982470 -0.198729E-05  0.414E-03    2.26       6.0  T
   5    -23.0982471 -0.141666E-06  0.173E-03    2.26      14.5  T
   6    -23.0982471 -0.258788E-08  0.302E-04    2.25      82.8  T
   7    -23.0982471 -0.644125E-09  0.115E-04    2.25     217.3  T
     SCC iter.                  ...        0 min,  0.003 sec
     gradient                   ...        0 min,  0.005 sec
 * total energy  :   -22.7526050 Eh     change       -0.9566421E-03 Eh
   gradient norm :     0.0081775 Eh/α   predicted    -0.7819999E-03 ( -18.26%)
   displ. norm   :     0.0593695 α      lambda       -0.2053338E-03
   maximum displ.:     0.0316982 α      in ANC's #2, #4, #14, ...

........................................................................
.............................. CYCLE    3 ..............................
........................................................................

 iter      E             dE          RMSdq      gap      omega  full diag
   1    -23.1029136 -0.231029E+02  0.470E-02    2.26       0.0  T
   2    -23.1029142 -0.590828E-06  0.270E-02    2.26       1.0  T
   3    -23.1029138  0.402074E-06  0.721E-03    2.26       3.5  T
   4    -23.1029144 -0.530660E-06  0.163E-03    2.26      15.3  T
   5    -23.1029144 -0.206129E-07  0.665E-04    2.26      37.6  T
   6    -23.1029144 -0.581291E-09  0.164E-04    2.26     152.5  T
     SCC iter.                  ...        0 min,  0.002 sec
     gradient                   ...        0 min,  0.005 sec
 * total energy  :   -22.7527256 Eh     change       -0.1206173E-03 Eh
   gradient norm :     0.0024632 Eh/α   predicted    -0.1030267E-03 ( -14.58%)
   displ. norm   :     0.0413474 α      lambda       -0.4185806E-04
   maximum displ.:     0.0282605 α      in ANC's #2, #4, #3, ...

........................................................................
.............................. CYCLE    4 ..............................
........................................................................

 iter      E             dE          RMSdq      gap      omega  full diag
   1    -23.1030984 -0.231031E+02  0.264E-02    2.26       0.0  T
   2    -23.1030987 -0.219879E-06  0.151E-02    2.26       1.7  T
   3    -23.1030985  0.124300E-06  0.427E-03    2.26       5.9  T
   4    -23.1030987 -0.180009E-06  0.108E-03    2.26      23.2  T
   5    -23.1030987 -0.788462E-08  0.432E-04    2.26      57.8  T
   6    -23.1030987 -0.528036E-09  0.790E-05    2.26     316.6  T
     SCC iter.                  ...        0 min,  0.002 sec
     gradient                   ...        0 min,  0.005 sec
 * total energy  :   -22.7527533 Eh     change       -0.2766950E-04 Eh
   gradient norm :     0.0015799 Eh/α   predicted    -0.2096579E-04 ( -24.23%)
   displ. norm   :     0.0612778 α      lambda       -0.1764913E-04
   maximum displ.:     0.0504839 α      in ANC's #2, #3, #6, ...

........................................................................
.............................. CYCLE    5 ..............................
........................................................................

 iter      E             dE          RMSdq      gap      omega  full diag
   1    -23.1020546 -0.231021E+02  0.386E-02    2.26       0.0  T
   2    -23.1020550 -0.385818E-06  0.221E-02    2.26       1.1  T
   3    -23.1020549  0.247038E-07  0.376E-03    2.26       6.7  T
   4    -23.1020550 -0.109529E-06  0.133E-03    2.26      18.8  T
   5    -23.1020550 -0.810244E-08  0.638E-04    2.26      39.2  T
   6    -23.1020551 -0.285155E-08  0.122E-04    2.26     205.5  T
     SCC iter.                  ...        0 min,  0.002 sec
     gradient                   ...        0 min,  0.005 sec
 * total energy  :   -22.7527646 Eh     change       -0.1131330E-04 Eh
   gradient norm :     0.0012638 Eh/α   predicted    -0.8839303E-05 ( -21.87%)
   displ. norm   :     0.0237686 α      lambda       -0.5420727E-05
   maximum displ.:     0.0182029 α      in ANC's #2, #1, #11, ...

........................................................................
.............................. CYCLE    6 ..............................
........................................................................

 iter      E             dE          RMSdq      gap      omega  full diag
   1    -23.1019713 -0.231020E+02  0.144E-02    2.26       0.0  T
   2    -23.1019713 -0.404633E-07  0.822E-03    2.26       3.0  T
   3    -23.1019713  0.681941E-08  0.130E-03    2.26      19.2  T
   4    -23.1019713 -0.212397E-07  0.470E-04    2.26      53.2  T
   5    -23.1019713 -0.601727E-09  0.168E-04    2.26     148.8  T
     SCC iter.                  ...        0 min,  0.002 sec
     gradient                   ...        0 min,  0.005 sec
 * total energy  :   -22.7527713 Eh     change       -0.6679303E-05 Eh
   gradient norm :     0.0006423 Eh/α   predicted    -0.2711892E-05 ( -59.40%)
   displ. norm   :     0.0585522 α      lambda       -0.9578102E-05
   maximum displ.:     0.0437332 α      in ANC's #2, #1, #14, ...

........................................................................
.............................. CYCLE    7 ..............................
........................................................................

 iter      E             dE          RMSdq      gap      omega  full diag
   1    -23.1022124 -0.231022E+02  0.326E-02    2.26       0.0  T
   2    -23.1022126 -0.200783E-06  0.188E-02    2.26       1.3  T
   3    -23.1022125  0.294045E-07  0.290E-03    2.26       8.6  T
   4    -23.1022126 -0.976491E-07  0.111E-03    2.26      22.6  T
   5    -23.1022126 -0.363979E-08  0.381E-04    2.26      65.7  T
   6    -23.1022126 -0.629111E-09  0.594E-05    2.26     420.8  T
     SCC iter.                  ...        0 min,  0.002 sec
     gradient                   ...        0 min,  0.005 sec
 * total energy  :   -22.7527824 Eh     change       -0.1114586E-04 Eh
   gradient norm :     0.0010234 Eh/α   predicted    -0.4795090E-05 ( -56.98%)
   displ. norm   :     0.0800690 α      lambda       -0.9224184E-05
   maximum displ.:     0.0616316 α      in ANC's #2, #1, #6, ...

........................................................................
.............................. CYCLE    8 ..............................
........................................................................

 iter      E             dE          RMSdq      gap      omega  full diag
   1    -23.1022957 -0.231023E+02  0.436E-02    2.26       0.0  T
   2    -23.1022960 -0.329229E-06  0.252E-02    2.26       1.0  T
   3    -23.1022961 -0.380842E-07  0.288E-03    2.26       8.7  T
   4    -23.1022961 -0.750594E-07  0.141E-03    2.26      17.7  T
   5    -23.1022961 -0.843422E-08  0.224E-04    2.26     111.5  T
   6    -23.1022961 -0.363674E-09  0.607E-05    2.26     412.0  T
     SCC iter.                  ...        0 min,  0.002 sec
     gradient                   ...        0 min,  0.005 sec
 * total energy  :   -22.7527955 Eh     change       -0.1309956E-04 Eh
   gradient norm :     0.0013628 Eh/α   predicted    -0.4626214E-05 ( -64.68%)
   displ. norm   :     0.1151135 α      lambda       -0.1388187E-04
   maximum displ.:     0.0871570 α      in ANC's #2, #1, #6, ...

........................................................................
.............................. CYCLE    9 ..............................
........................................................................

 iter      E             dE          RMSdq      gap      omega  full diag
   1    -23.1022211 -0.231022E+02  0.620E-02    2.27       0.0  T
   2    -23.1022218 -0.643362E-06  0.358E-02    2.27       1.0  T
   3    -23.1022219 -0.107296E-06  0.379E-03    2.27       6.6  T
   4    -23.1022220 -0.108999E-06  0.196E-03    2.27      12.8  T
   5    -23.1022220 -0.189274E-07  0.318E-04    2.27      78.6  T
   6    -23.1022220 -0.858492E-09  0.845E-05    2.27     295.9  T
     SCC iter.                  ...        0 min,  0.002 sec
     gradient                   ...        0 min,  0.005 sec
 * total energy  :   -22.7528160 Eh     change       -0.2043532E-04 Eh
   gradient norm :     0.0012258 Eh/α   predicted    -0.6981675E-05 ( -65.84%)
   displ. norm   :     0.1856448 α      lambda       -0.2318337E-04
   maximum displ.:     0.1377536 α      in ANC's #2, #1, #6, ...

........................................................................
.............................. CYCLE   10 ..............................
........................................................................

 iter      E             dE          RMSdq      gap      omega  full diag
   1    -23.1019168 -0.231019E+02  0.985E-02    2.27       0.0  T
   2    -23.1019185 -0.160667E-05  0.568E-02    2.27       1.0  T
   3    -23.1019187 -0.248493E-06  0.605E-03    2.27       4.1  T
   4    -23.1019190 -0.293030E-06  0.307E-03    2.27       8.2  T
   5    -23.1019190 -0.447670E-07  0.600E-04    2.27      41.7  T
   6    -23.1019190 -0.359965E-08  0.137E-04    2.27     182.2  T
     SCC iter.                  ...        0 min,  0.002 sec
     gradient                   ...        0 min,  0.005 sec
 * total energy  :   -22.7528490 Eh     change       -0.3299853E-04 Eh
   gradient norm :     0.0009986 Eh/α   predicted    -0.1177040E-04 ( -64.33%)
   displ. norm   :     0.2990772 α      lambda       -0.3505429E-04
   maximum displ.:     0.2196598 α      in ANC's #2, #1, #3, ...

........................................................................
.............................. CYCLE   11 ..............................
........................................................................

 iter      E             dE          RMSdq      gap      omega  full diag
   1    -23.1009684 -0.231010E+02  0.157E-01    2.27       0.0  T
   2    -23.1009725 -0.410143E-05  0.905E-02    2.27       1.0  T
   3    -23.1009730 -0.452020E-06  0.101E-02    2.27       2.5  T
   4    -23.1009740 -0.958940E-06  0.489E-03    2.27       5.1  T
   5    -23.1009741 -0.102764E-06  0.973E-04    2.27      25.7  T
   6    -23.1009741 -0.966708E-08  0.229E-04    2.27     109.3  T
     SCC iter.                  ...        0 min,  0.002 sec
     gradient                   ...        0 min,  0.005 sec
 * total energy  :   -22.7528922 Eh     change       -0.4327478E-04 Eh
   gradient norm :     0.0023055 Eh/α   predicted    -0.1822217E-04 ( -57.89%)
   displ. norm   :     0.3113805 α      lambda       -0.4422420E-04
   maximum displ.:     0.2306269 α      in ANC's #2, #1, #3, ...

........................................................................
.............................. CYCLE   12 ..............................
........................................................................

 iter      E             dE          RMSdq      gap      omega  full diag
   1    -23.0997036 -0.230997E+02  0.162E-01    2.27       0.0  T
   2    -23.0997080 -0.444898E-05  0.934E-02    2.27       1.0  T
   3    -23.0997084 -0.325925E-06  0.108E-02    2.27       2.3  T
   4    -23.0997096 -0.122776E-05  0.507E-03    2.27       4.9  T
   5    -23.0997097 -0.102430E-06  0.103E-03    2.27      24.3  T
   6    -23.0997097 -0.112573E-07  0.246E-04    2.27     101.8  T
   7    -23.0997097 -0.144475E-09  0.121E-04    2.27     206.2  T
     SCC iter.                  ...        0 min,  0.003 sec
     gradient                   ...        0 min,  0.005 sec
 * total energy  :   -22.7529174 Eh     change       -0.2514333E-04 Eh
   gradient norm :     0.0044646 Eh/α   predicted    -0.2426729E-04 (  -3.48%)
   displ. norm   :     0.0742517 α      lambda       -0.2889587E-04
   maximum displ.:     0.0559037 α      in ANC's #2, #1, #3, ...

........................................................................
.............................. CYCLE   13 ..............................
........................................................................

 iter      E             dE          RMSdq      gap      omega  full diag
   1    -23.1008265 -0.231008E+02  0.383E-02    2.27       0.0  T
   2    -23.1008269 -0.340646E-06  0.220E-02    2.27       1.1  T
   3    -23.1008269 -0.282385E-07  0.280E-03    2.27       8.9  T
   4    -23.1008270 -0.651714E-07  0.127E-03    2.27      19.6  T
   5    -23.1008270 -0.626848E-08  0.544E-04    2.27      46.0  T
   6    -23.1008270 -0.215780E-08  0.997E-05    2.27     250.8  T
     SCC iter.                  ...        0 min,  0.002 sec
     gradient                   ...        0 min,  0.005 sec
 * total energy  :   -22.7529406 Eh     change       -0.2320785E-04 Eh
   gradient norm :     0.0034137 Eh/α   predicted    -0.1452591E-04 ( -37.41%)
   displ. norm   :     0.2606882 α      lambda       -0.4402755E-04
   maximum displ.:     0.1962303 α      in ANC's #2, #1, #3, ...

........................................................................
.............................. CYCLE   14 ..............................
........................................................................

 iter      E             dE          RMSdq      gap      omega  full diag
   1    -23.1013714 -0.231014E+02  0.134E-01    2.28       0.0  T
   2    -23.1013746 -0.321477E-05  0.776E-02    2.27       1.0  T
   3    -23.1013748 -0.217339E-06  0.912E-03    2.28       2.7  T
   4    -23.1013757 -0.884500E-06  0.432E-03    2.27       5.8  T
   5    -23.1013758 -0.848949E-07  0.920E-04    2.27      27.2  T
   6    -23.1013758 -0.647183E-08  0.181E-04    2.27     138.3  T
     SCC iter.                  ...        0 min,  0.002 sec
     gradient                   ...        0 min,  0.005 sec
 * total energy  :   -22.7529720 Eh     change       -0.3141766E-04 Eh
   gradient norm :     0.0029823 Eh/α   predicted    -0.2351130E-04 ( -25.17%)
   displ. norm   :     0.1747584 α      lambda       -0.2987326E-04
   maximum displ.:     0.1315799 α      in ANC's #2, #1, #3, ...

........................................................................
.............................. CYCLE   15 ..............................
........................................................................

 iter      E             dE          RMSdq      gap      omega  full diag
   1    -23.1024246 -0.231024E+02  0.894E-02    2.28       0.0  T
   2    -23.1024261 -0.149906E-05  0.516E-02    2.28       1.0  T
   3    -23.1024261 -0.230352E-07  0.664E-03    2.28       3.8  T
   4    -23.1024266 -0.494276E-06  0.295E-03    2.28       8.5  T
   5    -23.1024266 -0.344184E-07  0.635E-04    2.28      39.4  T
   6    -23.1024266 -0.173366E-08  0.125E-04    2.28     200.0  T
     SCC iter.                  ...        0 min,  0.002 sec
     gradient                   ...        0 min,  0.005 sec
 * total energy  :   -22.7529927 Eh     change       -0.2072085E-04 Eh
   gradient norm :     0.0016077 Eh/α   predicted    -0.1539354E-04 ( -25.71%)
   displ. norm   :     0.5824001 α      lambda       -0.2817217E-04
   maximum displ.:     0.4334507 α      in ANC's #2, #1, #3, ...

........................................................................
.............................. CYCLE   16 ..............................
........................................................................

 iter      E             dE          RMSdq      gap      omega  full diag
   1    -23.0970134 -0.230970E+02  0.299E-01    2.29       0.0  T
   2    -23.0970296 -0.162908E-04  0.173E-01    2.29       1.0  T
   3    -23.0970288  0.853282E-06  0.231E-02    2.28       1.1  T
   4    -23.0970354 -0.664290E-05  0.946E-03    2.28       2.6  T
   5    -23.0970357 -0.260037E-06  0.276E-03    2.28       9.1  T
   6    -23.0970358 -0.686002E-07  0.562E-04    2.28      44.5  T
   7    -23.0970358 -0.209973E-08  0.263E-04    2.28      94.9  T
     SCC iter.                  ...        0 min,  0.003 sec
     gradient                   ...        0 min,  0.005 sec
 * total energy  :   -22.7529044 Eh     change        0.8837902E-04 Eh
   gradient norm :     0.0075976 Eh/α   predicted    -0.1620379E-04 (-118.33%)
   displ. norm   :     0.2368638 α      lambda       -0.1927711E-03
   maximum displ.:     0.1778964 α      in ANC's #2, #1, #3, ...

........................................................................
.............................. CYCLE   17 ..............................
........................................................................

 iter      E             dE          RMSdq      gap      omega  full diag
   1    -23.1015522 -0.231016E+02  0.126E-01    2.28       0.0  T
   2    -23.1015554 -0.313535E-05  0.726E-02    2.28       1.0  T
   3    -23.1015550  0.417602E-06  0.106E-02    2.28       2.4  T
   4    -23.1015564 -0.145152E-05  0.397E-03    2.28       6.3  T
   5    -23.1015565 -0.452326E-07  0.159E-03    2.28      15.7  T
   6    -23.1015565 -0.202741E-07  0.340E-04    2.28      73.5  T
   7    -23.1015565 -0.125269E-08  0.126E-04    2.28     197.9  T
     SCC iter.                  ...        0 min,  0.003 sec
     gradient                   ...        0 min,  0.005 sec
 * total energy  :   -22.7530057 Eh     change       -0.1013185E-03 Eh
   gradient norm :     0.0013621 Eh/α   predicted    -0.1017941E-03 (   0.47%)
   displ. norm   :     0.0173234 α      lambda       -0.5936944E-05
   maximum displ.:     0.0130175 α      in ANC's #2, #4, #3, ...

........................................................................
.............................. CYCLE   18 ..............................
........................................................................

 iter      E             dE          RMSdq      gap      omega  full diag
   1    -23.1027362 -0.231027E+02  0.132E-02    2.28       0.0  T
   2    -23.1027362 -0.618571E-07  0.766E-03    2.28       3.3  T
   3    -23.1027362  0.129230E-07  0.150E-03    2.28      16.6  T
   4    -23.1027362 -0.221975E-07  0.470E-04    2.28      53.2  T
   5    -23.1027363 -0.164493E-08  0.237E-04    2.28     105.4  T
     SCC iter.                  ...        0 min,  0.002 sec
     gradient                   ...        0 min,  0.005 sec
 * total energy  :   -22.7530096 Eh     change       -0.3909173E-05 Eh
   gradient norm :     0.0007369 Eh/α   predicted    -0.2969466E-05 ( -24.04%)
   displ. norm   :     0.0082531 α      lambda       -0.9383344E-06
   maximum displ.:     0.0051081 α      in ANC's #2, #3, #4, ...

........................................................................
.............................. CYCLE   19 ..............................
........................................................................

 iter      E             dE          RMSdq      gap      omega  full diag
   1    -23.1025670 -0.231026E+02  0.384E-03    2.28       0.0  T
   2    -23.1025670 -0.245875E-08  0.225E-03    2.28      11.1  T
   3    -23.1025670  0.381768E-09  0.309E-04    2.28      80.9  T
   4    -23.1025670 -0.120428E-08  0.137E-04    2.28     182.7  T
     SCC iter.                  ...        0 min,  0.002 sec
     gradient                   ...        0 min,  0.005 sec
 * total energy  :   -22.7530106 Eh     change       -0.1030222E-05 Eh
   gradient norm :     0.0002764 Eh/α   predicted    -0.4705284E-06 ( -54.33%)
   displ. norm   :     0.0183458 α      lambda       -0.9870914E-06
   maximum displ.:     0.0137035 α      in ANC's #1, #3, #4, ...

........................................................................
.............................. CYCLE   20 ..............................
........................................................................

 iter      E             dE          RMSdq      gap      omega  full diag
   1    -23.1023640 -0.231024E+02  0.775E-03    2.28       0.0  T
   2    -23.1023640 -0.699089E-08  0.451E-03    2.28       5.5  T
   3    -23.1023640  0.758785E-09  0.534E-04    2.28      46.8  T
   4    -23.1023640 -0.330819E-08  0.207E-04    2.28     120.8  T
     SCC iter.                  ...        0 min,  0.002 sec
     gradient                   ...        0 min,  0.005 sec
 * total energy  :   -22.7530114 Eh     change       -0.7414322E-06 Eh
   gradient norm :     0.0003723 Eh/α   predicted    -0.4936078E-06 ( -33.43%)
   displ. norm   :     0.0186700 α      lambda       -0.4472702E-06
   maximum displ.:     0.0149982 α      in ANC's #1, #2, #3, ...
 * RMSD in coord.:     0.5072081 α      energy gain  -0.1362986E-02 Eh

generating ANC from exact Hessian ...
Using Lindh-Hessian (1995)
 Shifting diagonal of input Hessian by   6.681210968974693E-003
 Lowest  eigenvalues of input Hessian
    0.000000    0.000000    0.000000    0.000000    0.000000    0.000000
    0.010000    0.010940    0.014665    0.020148    0.030832    0.032542
    0.050617    0.052352    0.057571    0.060567    0.071883    0.074106
 Highest eigenvalues
    1.315371    1.541130    1.646531    2.052705    2.086633    2.145591
 

........................................................................
.............................. CYCLE   21 ..............................
........................................................................

 iter      E             dE          RMSdq      gap      omega  full diag
   1    -23.1023944 -0.231024E+02  0.790E-03    2.28       0.0  T
   2    -23.1023944 -0.100464E-07  0.457E-03    2.28       5.5  T
   3    -23.1023944  0.422803E-08  0.858E-04    2.28      29.1  T
   4    -23.1023944 -0.815096E-08  0.230E-04    2.28     108.5  T
     SCC iter.                  ...        0 min,  0.002 sec
     gradient                   ...        0 min,  0.005 sec
 * total energy  :   -22.7530117 Eh     change       -0.3731992E-06 Eh
   gradient norm :     0.0003206 Eh/α   predicted     0.0000000E+00 (-100.00%)
   displ. norm   :     0.0038721 α      lambda       -0.2945133E-06
   maximum displ.:     0.0023098 α      in ANC's #4, #1, #3, ...

........................................................................
.............................. CYCLE   22 ..............................
........................................................................

 iter      E             dE          RMSdq      gap      omega  full diag
   1    -23.1024928 -0.231025E+02  0.338E-03    2.28       0.0  T
   2    -23.1024928 -0.116204E-08  0.198E-03    2.28      12.7  T
   3    -23.1024928  0.136776E-08  0.345E-04    2.28      72.4  T
   4    -23.1024928 -0.181364E-08  0.752E-05    2.28     332.4  T
     SCC iter.                  ...        0 min,  0.002 sec
     gradient                   ...        0 min,  0.005 sec
 * total energy  :   -22.7530119 Eh     change       -0.2154285E-06 Eh
   gradient norm :     0.0000892 Eh/α   predicted    -0.1477003E-06 ( -31.44%)
   displ. norm   :     0.0036570 α      lambda       -0.9925177E-07
   maximum displ.:     0.0023042 α      in ANC's #4, #1, #3, ...

........................................................................
.............................. CYCLE   23 ..............................
........................................................................

 iter      E             dE          RMSdq      gap      omega  full diag
   1    -23.1025029 -0.231025E+02  0.249E-03    2.28       0.0  T
   2    -23.1025029 -0.716142E-09  0.144E-03    2.28      17.4  T
   3    -23.1025029  0.213873E-10  0.154E-04    2.28     162.2  T
   4    -23.1025029 -0.291013E-09  0.584E-05    2.28     428.2  T
     SCC iter.                  ...        0 min,  0.002 sec
     gradient                   ...        0 min,  0.005 sec
 * total energy  :   -22.7530120 Eh     change       -0.9054833E-07 Eh
   gradient norm :     0.0000991 Eh/α   predicted    -0.4944741E-07 ( -45.39%)
   displ. norm   :     0.0049115 α      lambda       -0.7087836E-07
   maximum displ.:     0.0029238 α      in ANC's #1, #3, #4, ...

   *** GEOMETRY OPTIMIZATION CONVERGED AFTER 23 ITERATIONS ***

------------------------------------------------------------------------
 total energy gain   :        -0.0013637 Eh       -0.8557 kcal/mol
 total RMSD          :         0.5080034 a0        0.2688 Å
 total power (kW/mol):        -0.1556653 (step)  -15.1588 (real)
------------------------------------------------------------------------

 ANCopt (total)                0 d,  0 h,  0 min,  0.236 sec
 optimizer setup                ...        0 min,  0.000 sec (  0.185%)
 model hessian                  ...        0 min,  0.006 sec (  2.682%)
 ANC generation                 ...        0 min,  0.001 sec (  0.283%)
 coordinate transformation      ...        0 min,  0.000 sec (  0.068%)
 single point calculation       ...        0 min,  0.221 sec ( 93.408%)
 optimization log               ...        0 min,  0.004 sec (  1.664%)
 hessian update                 ...        0 min,  0.000 sec (  0.065%)
 rational function              ...        0 min,  0.003 sec (  1.213%)

================
 final structure:
================
$coord
        5.14189739101322        0.27902761466148        1.33732534843466      C
        3.66030665187678       -0.27632374346030       -1.08267067555676      C
        0.87851305034274       -0.13428164109153       -0.58492697281350      C
       -0.40965829190947        2.16405236247158       -0.44763480468560      C
       -2.84951865802947        2.29130492380791        0.06487476785355      N
       -4.05173380411963        0.12662133958947        0.44595527826197      C
       -2.79400202329744       -2.16864829954115        0.29983886609499      C
       -0.34773215059851       -2.29203208739648       -0.20879927502495      N
        7.16080709805505        0.17105996592614        0.97321850984444      H
        4.66234989340630       -1.09177681561929        2.79092005947213      H
        4.70088461182416        2.15937120444851        2.04196558644527      H
        4.11228869548316       -2.17298057513749       -1.74840022313719      H
        4.17505222691473        1.09337914807102       -2.53739591116654      H
        0.54080897428976        3.94645076665004       -0.76564510691211      H
       -6.04643700805282        0.25641751837787        0.86670685232715      H
       -3.74666099474696       -3.95363761477712        0.59139325858079      H
$end
 
 Bond Distances (Angstroems)
 ---------------------------
C1-C2=1.5300         C1-H9=1.0871         C1-H10=1.0873        C1-H11=1.0879        C2-C1=1.5300         C2-C3=1.4973         
C2-H12=1.0903        C2-H13=1.0919        C3-C2=1.4973         C3-C4=1.3961         C3-N8=1.3283         C4-C3=1.3961         
C4-N5=1.3210         C4-H14=1.0821        N5-C4=1.3210         N5-C6=1.3257         C6-N5=1.3257         C6-C7=1.3872         
C6-H15=1.0810        C7-C6=1.3872         C7-N8=1.3238         C7-H16=1.0817        N8-C3=1.3283         N8-C7=1.3238         
H9-C1=1.0871         H10-C1=1.0873        H11-C1=1.0879        H12-C2=1.0903        H13-C2=1.0919        H14-C4=1.0821        
H15-C6=1.0810        H16-C7=1.0817        
 C  H  Rav=1.0862 sigma=0.0038  Rmin=1.0810  Rmax=1.0919     8
 C  C  Rav=1.4527 sigma=0.0622  Rmin=1.3872  Rmax=1.5300     4
 N  C  Rav=1.3247 sigma=0.0027  Rmin=1.3210  Rmax=1.3283     4
 
 selected bond angles (degree)
 --------------------
H9-C1-C2=110.19                H10-C1-C2=110.14               H10-C1-H9=108.64               H11-C1-C2=110.65               
H11-C1-H9=108.64               H11-C1-H10=108.52              C3-C2-C1=110.30                H12-C2-C1=109.56               
H12-C2-C3=108.59               H13-C2-C1=109.56               H13-C2-C3=109.63               H13-C2-H12=109.18              
C4-C3-C2=122.20                N8-C3-C2=117.61                N8-C3-C4=120.17                N5-C4-C3=122.16                
H14-C4-C3=121.62               H14-C4-N5=116.22               C6-N5-C4=117.14                C7-C6-N5=121.19                
H15-C6-N5=116.42               H15-C6-C7=122.39               N8-C7-C6=121.58                H16-C7-C6=122.21               
H16-C7-N8=116.21               C7-N8-C3=117.76                
 
 selected dihedral angles (degree)
 ---------------------------------
C3-C2-C1-H9=179.88            C3-C2-C1-H10= 60.03           C3-C2-C1-H11=300.04           H12-C2-C1-H9= 60.40           
H12-C2-C1-H10=300.55          H12-C2-C1-H11=180.57          H13-C2-C1-H9=300.64           H13-C2-C1-H10=180.80          
H13-C2-C1-H11= 60.81          C4-C3-C2-C1= 79.43            C4-C3-C2-H12=199.50           C4-C3-C2-H13=318.71           
N8-C3-C2-C1=261.05            N8-C3-C2-H12= 21.12           N8-C3-C2-H13=140.33           N5-C4-C3-C2=182.03            
N5-C4-C3-N8=  0.37            H14-C4-C3-C2=  2.31           H14-C4-C3-N8=180.65           C6-N5-C4-C3=359.89            
C6-N5-C4-H14=179.61           C7-C6-N5-C4=359.74            H15-C6-N5-C4=179.90           N8-C7-C6-N5=  0.42            
N8-C7-C6-H15=180.24           H16-C7-C6-N5=180.46           H16-C7-C6-H15=  0.29          C7-N8-C3-C2=178.20            
C7-N8-C3-C4=359.79            C3-N8-C7-C6=359.84            C3-N8-C7-H16=179.80           
           -------------------------------------------------
          |                Final Singlepoint                |
           -------------------------------------------------

          ...................................................
          :                      SETUP                      :
          :.................................................:
          :  # basis functions                  40          :
          :  # atomic orbitals                  40          :
          :  # shells                           24          :
          :  # electrons                        42          :
          :  max. iterations                   250          :
          :  Hamiltonian                  GFN2-xTB          :
          :  restarted?                      false          :
          :  GBSA solvation                  false          :
          :  PC potential                    false          :
          :  electronic temp.          300.0000000     K    :
          :  accuracy                    1.0000000          :
          :  -> integral cutoff          0.2500000E+02      :
          :  -> integral neglect         0.1000000E-07      :
          :  -> SCF convergence          0.1000000E-05 Eh   :
          :  -> wf. convergence          0.1000000E-03 e    :
          :  Broyden damping             0.4000000          :
          :  net charge                          0          :
          :  unpaired electrons                  0          :
          ...................................................

 iter      E             dE          RMSdq      gap      omega  full diag
   1    -23.1025029 -0.231025E+02  0.232E-05    2.28       0.0  T
   2    -23.1025029 -0.188649E-11  0.132E-05    2.28    1890.9  T
   3    -23.1025029 -0.105516E-11  0.754E-06    2.28    3314.2  T

   *** convergence criteria satisfied after 3 iterations ***

         #    Occupation            Energy/Eh            Energy/eV
      -------------------------------------------------------------
         1        2.0000           -0.6799094             -18.5013
       ...           ...                  ...                  ...
        15        2.0000           -0.4698614             -12.7856
        16        2.0000           -0.4650387             -12.6543
        17        2.0000           -0.4494073             -12.2290
        18        2.0000           -0.4434869             -12.0679
        19        2.0000           -0.4210719             -11.4580
        20        2.0000           -0.4165316             -11.3344
        21        2.0000           -0.3568301              -9.7098 (HOMO)
        22                         -0.2730438              -7.4299 (LUMO)
        23                         -0.2478516              -6.7444
        24                         -0.1288308              -3.5057
        25                          0.0895817               2.4376
        26                          0.1207698               3.2863
       ...                                ...                  ...
        40                          0.6128099              16.6754
      -------------------------------------------------------------
                  HL-Gap            0.0837863 Eh            2.2799 eV
             Fermi-level           -0.3149370 Eh           -8.5699 eV

 SCC (total)                   0 d,  0 h,  0 min,  0.009 sec
 SCC setup                      ...        0 min,  0.000 sec (  1.664%)
 Dispersion                     ...        0 min,  0.000 sec (  0.635%)
 classical contributions        ...        0 min,  0.000 sec (  0.192%)
 integral evaluation            ...        0 min,  0.002 sec ( 23.153%)
 iterations                     ...        0 min,  0.001 sec ( 14.068%)
 molecular gradient             ...        0 min,  0.005 sec ( 58.906%)
 printout                       ...        0 min,  0.000 sec (  1.124%)

         :::::::::::::::::::::::::::::::::::::::::::::::::::::
         ::                     SUMMARY                     ::
         :::::::::::::::::::::::::::::::::::::::::::::::::::::
         :: total energy             -22.753012036715 Eh    ::
         :: gradient norm              0.000099042922 Eh/a0 ::
         :: HOMO-LUMO gap              2.279940414892 eV    ::
         ::.................................................::
         :: SCC energy               -23.102479818931 Eh    ::
         :: -> isotropic ES            0.014164867324 Eh    ::
         :: -> anisotropic ES          0.003817940457 Eh    ::
         :: -> anisotropic XC          0.024412867168 Eh    ::
         :: -> dispersion             -0.011538461995 Eh    ::
         :: repulsion energy           0.349467782216 Eh    ::
         :: add. restraining           0.000000000000 Eh    ::
         :: total charge               0.000000000000 e     ::
         :::::::::::::::::::::::::::::::::::::::::::::::::::::

           ------------------------------------------------- 
          |                Numerical Hessian                |
           ------------------------------------------------- 
step length          :   0.00500
SCC accuracy         :   0.30000
Hessian scale factor :   1.00000
frozen atoms in %    :   0.00000    0
RMS gradient         :   0.00010
estimated CPU  time      0.01 min
estimated wall time      0.01 min

writing file <hessian>.

 projected vibrational frequencies (cm⁻¹)
eigval :       -0.00     0.00     0.00     0.00     0.00     0.00
eigval :       40.56   111.59   200.27   238.40   333.16   375.14
eigval :      486.90   557.53   614.14   734.19   807.18   820.46
eigval :      825.70   904.27   906.57  1013.80  1032.51  1053.04
eigval :     1077.94  1104.16  1164.07  1217.03  1233.81  1239.99
eigval :     1257.35  1313.00  1373.47  1406.71  1436.51  1466.04
eigval :     1496.55  1502.09  1530.83  1582.40  2979.00  3005.91
eigval :     3035.25  3040.31  3044.52  3053.56  3056.30  3069.18
           -------------------------------------------------
          |                Property Printout                |
           -------------------------------------------------

    * Orbital Energies and Occupations

         #    Occupation            Energy/Eh            Energy/eV
      -------------------------------------------------------------
         1        2.0000           -0.6799094             -18.5013
       ...           ...                  ...                  ...
         9        2.0000           -0.5368302             -14.6079
        10        2.0000           -0.5310650             -14.4510
        11        2.0000           -0.5171876             -14.0734
        12        2.0000           -0.5030199             -13.6879
        13        2.0000           -0.4996755             -13.5969
        14        2.0000           -0.4856830             -13.2161
        15        2.0000           -0.4698614             -12.7856
        16        2.0000           -0.4650387             -12.6543
        17        2.0000           -0.4494073             -12.2290
        18        2.0000           -0.4434869             -12.0679
        19        2.0000           -0.4210719             -11.4580
        20        2.0000           -0.4165316             -11.3344
        21        2.0000           -0.3568301              -9.7098 (HOMO)
        22                         -0.2730438              -7.4299 (LUMO)
        23                         -0.2478516              -6.7444
        24                         -0.1288308              -3.5057
        25                          0.0895817               2.4376
        26                          0.1207698               3.2863
        27                          0.1278396               3.4787
        28                          0.1398723               3.8061
        29                          0.1535197               4.1775
        30                          0.1595232               4.3408
        31                          0.1699026               4.6233
        32                          0.1816232               4.9422
       ...                                ...                  ...
        40                          0.6128099              16.6754
      -------------------------------------------------------------
                  HL-Gap            0.0837863 Eh            2.2799 eV
             Fermi-level           -0.3149370 Eh           -8.5699 eV

     #   Z          covCN         q      C6AA      α(0)
     1   6 C        3.754    -0.099    22.450     6.756
     2   6 C        3.807    -0.066    21.750     6.639
     3   6 C        2.955     0.093    25.939     8.354
     4   6 C        2.913     0.045    26.988     8.519
     5   7 N        1.839    -0.206    26.304     7.601
     6   6 C        2.910     0.047    26.949     8.512
     7   6 C        2.901     0.051    26.846     8.496
     8   7 N        1.846    -0.216    26.555     7.637
     9   1 H        0.925     0.044     2.396     2.421
    10   1 H        0.925     0.044     2.396     2.420
    11   1 H        0.925     0.038     2.480     2.463
    12   1 H        0.924     0.060     2.200     2.319
    13   1 H        0.924     0.042     2.417     2.431
    14   1 H        0.925     0.041     2.440     2.443
    15   1 H        0.926     0.041     2.435     2.440
    16   1 H        0.925     0.041     2.436     2.441

 Mol. C6AA /au·bohr⁶  :       2773.640960
 Mol. C8AA /au·bohr⁸  :      63865.999772
 Mol. α(0) /au        :         81.891217


Wiberg/Mayer (AO) data.
largest (>0.10) Wiberg bond orders for each atom

 ---------------------------------------------------------------------------
     #   Z sym  total        # sym  WBO       # sym  WBO       # sym  WBO
 ---------------------------------------------------------------------------
     1   6 C    3.995 --     2 C    0.996    10 H    0.988    11 H    0.988
                             9 H    0.985
     2   6 C    3.996 --     3 C    1.012     1 C    0.996    12 H    0.973
                            13 H    0.970
     3   6 C    3.975 --     8 N    1.420     4 C    1.363     2 C    1.012
                             6 C    0.120
     4   6 C    3.981 --     5 N    1.462     3 C    1.363    14 H    0.962
                             7 C    0.125
     5   7 N    3.064 --     4 C    1.462     6 C    1.434
     6   6 C    3.981 --     5 N    1.434     7 C    1.411    15 H    0.964
                             3 C    0.120
     7   6 C    3.981 --     8 N    1.443     6 C    1.411    16 H    0.963
                             4 C    0.125
     8   7 N    3.062 --     7 C    1.443     3 C    1.420
     9   1 H    0.997 --     1 C    0.985
    10   1 H    0.998 --     1 C    0.988
    11   1 H    0.999 --     1 C    0.988
    12   1 H    0.996 --     2 C    0.973
    13   1 H    0.998 --     2 C    0.970
    14   1 H    0.998 --     4 C    0.962
    15   1 H    0.998 --     6 C    0.964
    16   1 H    0.998 --     7 C    0.963
 ---------------------------------------------------------------------------

Topologies differ in total number of bonds
Writing topology from bond orders to xtbtopo.mol

molecular dipole:
                 x           y           z       tot (Debye)
 q only:        0.384      -0.040      -0.009
   full:        0.340      -0.030      -0.006       0.867
molecular quadrupole (traceless):
                xx          xy          yy          xz          yz          zz
 q only:        3.481       2.747      -2.336      -0.793      -0.477      -1.145
  q+dip:        4.422       5.099      -2.618      -1.762      -1.195      -1.804
   full:        3.822       5.583      -4.526      -0.905      -0.961       0.704

           -------------------------------------------------
          |                Geometry Summary                 |
           -------------------------------------------------

      molecular mass/u    :      108.1413478
   center of mass at/Å    :        0.0001449       0.0014025      -0.0008381
  moments of inertia/u·Å² :        0.1052924E+03   0.3215696E+03   0.3874138E+03
rotational constants/cm⁻¹ :        0.1601030E+00   0.5242297E-01   0.4351325E-01

 * 15 selected distances

     #   Z          #   Z                                           value/Å
     1   6 C        2   6 C                                       1.5300369 (max)
     3   6 C        4   6 C                                       1.3961230
     4   6 C        5   7 N                                       1.3210132
     5   7 N        6   6 C                                       1.3257341
     6   6 C        7   6 C                                       1.3871614
     3   6 C        8   7 N                                       1.3283336
     7   6 C        8   7 N                                       1.3238078
     1   6 C        9   1 H                                       1.0870990
     1   6 C       10   1 H                                       1.0873283
     1   6 C       11   1 H                                       1.0879326
     2   6 C       12   1 H                                       1.0902581
     2   6 C       13   1 H                                       1.0918601
     4   6 C       14   1 H                                       1.0820947
     6   6 C       15   1 H                                       1.0809629 (min)
     7   6 C       16   1 H                                       1.0817437

 * 3 distinct bonds (by element types)

   Z      Z             #   av. dist./Å        max./Å        min./Å
   1 H    6 C           8     1.0861599     1.0918601     1.0809629
   6 C    6 C           3     1.4377738     1.5300369     1.3871614
   6 C    7 N           4     1.3247222     1.3283336     1.3210132

           -------------------------------------------------
          |               Frequency Printout                |
           -------------------------------------------------
 projected vibrational frequencies (cm⁻¹)
eigval :       -0.00     0.00     0.00     0.00     0.00     0.00
eigval :       40.56   111.59   200.27   238.40   333.16   375.14
eigval :      486.90   557.53   614.14   734.19   807.18   820.46
eigval :      825.70   904.27   906.57  1013.80  1032.51  1053.04
eigval :     1077.94  1104.16  1164.07  1217.03  1233.81  1239.99
eigval :     1257.35  1313.00  1373.47  1406.71  1436.51  1466.04
eigval :     1496.55  1502.09  1530.83  1582.40  2979.00  3005.91
eigval :     3035.25  3040.31  3044.52  3053.56  3056.30  3069.18
 reduced masses (amu)
   1: 10.58   2: 10.84   3: 11.12   4: 11.44   5: 11.93   6: 10.86   7:  8.61   8:  9.66
   9:  2.21  10:  8.82  11:  7.85  12: 11.77  13: 10.74  14: 10.85  15: 12.10  16: 10.29
  17:  4.61  18:  6.69  19:  6.28  20:  3.54  21:  4.53  22:  8.52  23:  8.41  24:  4.51
  25:  8.35  26:  6.59  27:  4.10  28:  5.92  29:  5.45  30:  8.18  31:  6.48  32:  5.25
  33: 10.54  34:  3.08  35:  9.52  36:  2.55  37:  1.54  38:  1.69  39: 12.74  40: 11.60
  41:  1.76  42:  1.70  43:  1.86  44:  1.86  45:  1.45  46:  1.80  47:  1.79  48:  1.85
 IR intensities (km·mol⁻¹)
   1:  0.02   2:  0.02   3:  0.04   4:  0.03   5:  0.03   6:  0.01   7:  0.10   8:  0.22
   9:  0.15  10:  0.01  11:  0.65  12: 17.23  13:  3.22  14:  0.79  15:  0.24  16:  0.04
  17:  3.26  18:  0.63  19:  5.81  20:  0.00  21:  0.04  22: 36.47  23: 15.92  24:  3.13
  25: 11.40  26:  4.85  27:  2.48  28:  9.68  29:  4.79  30:  9.37  31:  7.91  32:  1.82
  33: 54.58  34:  0.97  35: 27.38  36:  1.77  37:  3.35  38:  4.01  39: 10.64  40:  1.19
  41: 23.99  42:  8.31  43: 38.36  44: 38.08  45: 21.56  46: 44.41  47:  1.20  48: 43.49
 Raman intensities (Ä⁴*amu⁻¹)
   1:  0.00   2:  0.00   3:  0.00   4:  0.00   5:  0.00   6:  0.00   7:  0.00   8:  0.00
   9:  0.00  10:  0.00  11:  0.00  12:  0.00  13:  0.00  14:  0.00  15:  0.00  16:  0.00
  17:  0.00  18:  0.00  19:  0.00  20:  0.00  21:  0.00  22:  0.00  23:  0.00  24:  0.00
  25:  0.00  26:  0.00  27:  0.00  28:  0.00  29:  0.00  30:  0.00  31:  0.00  32:  0.00
  33:  0.00  34:  0.00  35:  0.00  36:  0.00  37:  0.00  38:  0.00  39:  0.00  40:  0.00
  41:  0.00  42:  0.00  43:  0.00  44:  0.00  45:  0.00  46:  0.00  47:  0.00  48:  0.00
 output can be read by thermo (or use thermo option).
 writing <g98.out> molden fake output.
 recommended (thermochemical) frequency scaling factor: 1.0
           -------------------------------------------------
          |             Thermodynamic Functions             |
           -------------------------------------------------

Molecule has no symmetry elements
It seems to be the C1 point group
c1  symmetry found (for desy threshold:  0.10E+00) used in thermo

          ...................................................
          :                      SETUP                      :
          :.................................................:
          :  # frequencies                          42      :
          :  # imaginary freq.                       0      :
          :  linear?                             false      :
          :  only rotor calc.                    false      :
          :  symmetry                               c1      :
          :  rotational number                       1      :
          :  scaling factor                  1.0000000      :
          :  rotor cutoff                    0.0000000 cm⁻¹ :
          :  imag. cutoff                 -100.0000000 cm⁻¹ :
          :.................................................:

    mode    ω/cm⁻¹     T·S(HO)/kcal·mol⁻¹    T·S(FR)/kcal·mol⁻¹   T·S(vib)
   ------------------------------------------------------------------------
       1     40.56    -1.55977 (100.00%)    -1.11808 (  0.00%)    -1.55977
       2    111.59    -0.96632 (100.00%)    -0.81856 (  0.00%)    -0.96632
       3    200.27    -0.63524 (100.00%)    -0.64538 (  0.00%)    -0.63524
       4    238.40    -0.54108 (100.00%)    -0.59377 (  0.00%)    -0.54108
   ------------------------------------------------------------------------

   temp. (K)  partition function   enthalpy   heat capacity  entropy
                                   cal/mol     cal/K/mol   cal/K/mol   J/K/mol
 298.15  VIB   70.5                 2902.076     21.071     18.190
         ROT  0.277E+06              888.752      2.981     27.882
         INT  0.195E+08             3790.828     24.052     46.073
         TR   0.109E+28             1481.254      4.968     39.933
         TOT                        5272.0821    29.0199    86.0058   359.8482

       T/K    H(0)-H(T)+PV         H(T)/Eh          T*S/Eh         G(T)/Eh
   ------------------------------------------------------------------------
    298.15    0.840160E-02    0.137668E+00    0.408641E-01    0.968039E-01
   ------------------------------------------------------------------------

         :::::::::::::::::::::::::::::::::::::::::::::::::::::
         ::                  THERMODYNAMIC                  ::
         :::::::::::::::::::::::::::::::::::::::::::::::::::::
         :: total free energy         -22.656208090034 Eh   ::
         ::.................................................::
         :: total energy              -22.753012036715 Eh   ::
         :: zero point energy           0.129266475490 Eh   ::
         :: G(RRHO) w/o ZPVE           -0.032462528809 Eh   ::
         :: G(RRHO) contrib.            0.096803946681 Eh   ::
         :::::::::::::::::::::::::::::::::::::::::::::::::::::

optimized geometry written to: xtbopt.coord


           -------------------------------------------------
          | TOTAL ENERGY              -22.753012036715 Eh   |
          | TOTAL ENTHALPY            -22.615343963571 Eh   |
          | TOTAL FREE ENERGY         -22.656208090034 Eh   |
          | GRADIENT NORM               0.000099058915 Eh/α |
          | HOMO-LUMO GAP               2.279940480255 eV   |
           -------------------------------------------------

------------------------------------------------------------------------
 * finished run on 2025/04/15 at 20:36:33.256     
------------------------------------------------------------------------
 total:
 * wall-time:     0 d,  0 h,  0 min,  9.125 sec
 *  cpu-time:     0 d,  0 h,  0 min,  1.838 sec
 * ratio c/w:     0.201 speedup
 SCF:
 * wall-time:     0 d,  0 h,  0 min,  0.038 sec
 *  cpu-time:     0 d,  0 h,  0 min,  0.021 sec
 * ratio c/w:     0.556 speedup
 ANC optimizer:
 * wall-time:     0 d,  0 h,  0 min,  0.248 sec
 *  cpu-time:     0 d,  0 h,  0 min,  0.245 sec
 * ratio c/w:     0.986 speedup
 analytical hessian:
 * wall-time:     0 d,  0 h,  0 min,  8.762 sec
 *  cpu-time:     0 d,  0 h,  0 min,  1.554 sec
 * ratio c/w:     0.177 speedup

