10
 energy: -15.448015879773 gnorm: 0.025263836716 xtb: 6.7.1 (edcfbbe)
C           -0.58242305964279        0.06715818670966        0.45554373190891
C            0.60322993458121       -0.11102012171398       -0.48107942595151
O            1.78578350271577        0.03837202032789        0.30665443571060
O           -1.81955774257444       -0.06954769684274       -0.24295076756927
H           -0.50487337950392        1.03663891247876        0.96924968561434
H           -0.56811261140112       -0.71724570190620        1.21784804719903
H            0.55764092863410        0.64927676619041       -1.27979755795217
H            0.54617944577464       -1.10434039919988       -0.95018366350175
H            2.54771427201670       -0.14113428154396       -0.25249735914110
H           -1.92592513034284        0.69747961865239       -0.81579624435818
10
 energy: -15.448620755237 gnorm: 0.011512700531 xtb: 6.7.1 (edcfbbe)
C           -0.59034351084827        0.06454089324044        0.45713245311531
C            0.60520924483492       -0.11029887214626       -0.47622184648853
O            1.78466015317993        0.03771676424762        0.29471515787069
O           -1.82242530956043       -0.06095158962065       -0.22774734110025
H           -0.51589643509667        1.03480095306053        0.96319715838006
H           -0.58213888882044       -0.72064030443002        1.21576308814671
H            0.57433881411759        0.64925962446814       -1.27363000539681
H            0.56285105346784       -1.10302550176934       -0.94280153582323
H            2.54543366793289       -0.14101115659907       -0.26707867306465
H           -1.92203262895004        0.69524649270098       -0.81633757368038
10
 energy: -15.448752341849 gnorm: 0.003430939962 xtb: 6.7.1 (edcfbbe)
C           -0.59334865951863        0.06502892192738        0.45869174826467
C            0.60598442350330       -0.11016234908372       -0.47508187467965
O            1.78044974397942        0.03752912296779        0.29131496423321
O           -1.82081038006709       -0.05396141967706       -0.21839208149863
H           -0.51143871440319        1.03369702381502        0.96549217671858
H           -0.58357365890544       -0.72384640800432        1.21200157185793
H            0.57043923229972        0.65095641957834       -1.27042787775353
H            0.56177867241509       -1.10291240627681       -0.94092831395427
H            2.54352246322087       -0.13879038252064       -0.26844469241342
H           -1.91334696226673        0.68809878042637       -0.82723473881597
10
 energy: -15.448786545365 gnorm: 0.001946610746 xtb: 6.7.1 (edcfbbe)
C           -0.59479887258890        0.06532133297897        0.46055268156244
C            0.60574471575625       -0.10999889515271       -0.47509786331439
O            1.77799160406104        0.03823397153891        0.29051767322129
O           -1.82103220017887       -0.04826740158519       -0.21318759066467
H           -0.50470690559897        1.03184558555003        0.97164589830475
H           -0.58404998545520       -0.72587507054772        1.21156138574195
H            0.56499257489991        0.65078859203460       -1.27133499911813
H            0.55800856339134       -1.10255390517236       -0.94207833436157
H            2.54318219762597       -0.13575777896809       -0.26723549604219
H           -1.90567553165526        0.68190087247592       -0.83835247337057
10
 energy: -15.448798004215 gnorm: 0.001964579523 xtb: 6.7.1 (edcfbbe)
C           -0.59538854507511        0.06522420201914        0.46258807168009
C            0.60441229684134       -0.11068618112302       -0.47525617545950
O            1.77628071202163        0.04014298398654        0.28994134244234
O           -1.82258188105779       -0.04147274604764       -0.20950891469309
H           -0.49834416044278        1.02938556470176        0.97927961975234
H           -0.58541805742489       -0.72848760000518        1.21164837843738
H            0.55918003350112        0.64902849171082       -1.27337873979368
H            0.55528974130711       -1.10368725476891       -0.94281705419756
H            2.54294492037738       -0.13105918597582       -0.26670117942031
H           -1.89671889979070        0.67724902865466       -0.84880446678910
10
 energy: -15.448802708031 gnorm: 0.000655529944 xtb: 6.7.1 (edcfbbe)
C           -0.59517088698258        0.06463522639377        0.46339998910352
C            0.60328600072849       -0.11124114574667       -0.47488138543654
O            1.77628280238308        0.04156423602731        0.28922652568726
O           -1.82352326756276       -0.03851366366374       -0.20886069725658
H           -0.49751957667364        1.02807261522141        0.98126695713491
H           -0.58733065273587       -0.73012768786353        1.21143002810849
H            0.55771738728560        0.64766654435901       -1.27375934735909
H            0.55593137178624       -1.10486130043584       -0.94125353439485
H            2.54238665303174       -0.12866270511245       -0.26842627160838
H           -1.89240367100300        0.67710518397309       -0.85115138201984
10
 energy: -15.448804313503 gnorm: 0.000273885925 xtb: 6.7.1 (edcfbbe)
C           -0.59518269884676        0.06412485963646        0.46473405441158
C            0.60205470482449       -0.11191256391390       -0.47409119831455
O            1.77622074794194        0.04318241904405        0.28807666557687
O           -1.82421958386857       -0.03484521989909       -0.20745524562950
H           -0.49633765620703        1.02649196160967        0.98397604395890
H           -0.58987494499568       -0.73221600525600        1.21081710779805
H            0.55542613767275        0.64622307694625       -1.27340721244651
H            0.55651883062259       -1.10605372859201       -0.93911691345772
H            2.54139931818904       -0.12578760331640       -0.27121713511247
H           -1.88634869507546        0.67643010689333       -0.85532528482574
10
 energy: -15.448804424846 gnorm: 0.000158095438 xtb: 6.7.1 (edcfbbe)
C           -0.59518193807218        0.06397412542207        0.46465842111388
C            0.60214353333339       -0.11206110157699       -0.47407602666455
O            1.77635543080746        0.04372562701912        0.28808910372931
O           -1.82413171258916       -0.03457149994652       -0.20792346982239
H           -0.49621258250948        1.02615638469492        0.98414983439426
H           -0.59022983595505       -0.73252752847270        1.21053996811381
H            0.55520654822762        0.64560622354689       -1.27381109592515
H            0.55674363086910       -1.10647170907967       -0.93848204874001
H            2.54140779461382       -0.12535458964460       -0.27133019789558
H           -1.88644470846820        0.67716137118983       -0.85482360634467
10
 energy: -15.448804469263 gnorm: 0.000098527794 xtb: 6.7.1 (edcfbbe)
C           -0.59524408194500        0.06385501903158        0.46467415657463
C            0.60216647212143       -0.11223175435181       -0.47406047546535
O            1.77635067397657        0.04407249439323        0.28802784618934
O           -1.82415215771148       -0.03431309581731       -0.20800975141593
H           -0.49602820489943        1.02593819889857        0.98432541752929
H           -0.59050534050375       -0.73274475157082        1.21046662195304
H            0.55502125452282        0.64521375544579       -1.27399949934091
H            0.55700512122658       -1.10676525963393       -0.93823979767509
H            2.54139546952772       -0.12499102867147       -0.27140961607292
H           -1.88635304605815        0.67760372542851       -0.85478402031719
