
                                 *****************
                                 * O   R   C   A *
                                 *****************

                                            #,                                       
                                            ###                                      
                                            ####                                     
                                            #####                                    
                                            ######                                   
                                           ########,                                 
                                     ,,################,,,,,                         
                               ,,#################################,,                 
                          ,,##########################################,,             
                       ,#########################################, ''#####,          
                    ,#############################################,,   '####,        
                  ,##################################################,,,,####,       
                ,###########''''           ''''###############################       
              ,#####''   ,,,,##########,,,,          '''####'''          '####       
            ,##' ,,,,###########################,,,                        '##       
           ' ,,###''''                  '''############,,,                           
         ,,##''                                '''############,,,,        ,,,,,,###''
      ,#''                                            '''#######################'''  
     '                                                          ''''####''''         
             ,#######,   #######,   ,#######,      ##                                
            ,#'     '#,  ##    ##  ,#'     '#,    #''#        ,####,   ,####,        
            ##       ##  ##   ,#'  ##            #'  '#       #'       #'  '#        
            ##       ##  #######   ##           ,######,      #####,   #    #        
            '#,     ,#'  ##    ##  '#,     ,#' ,#      #,     #,   #   #,  ,#        
             '#######'   ##     ##  '#######'  #'      '#     '####' # '####'        



                #########################################################
                #                        -***-                          #
                #          Department of theory and spectroscopy        #
                #                                                       #
                #                      Frank Neese                      #
                #                                                       #
                #     Directorship, Architecture, Infrastructure        #
                #                    SHARK, DRIVERS                     #
                #        Core code/Algorithms in most modules           #
                #                                                       #
                #        Max Planck Institute fuer Kohlenforschung      #
                #                Kaiser Wilhelm Platz 1                 #
                #                 D-45470 Muelheim/Ruhr                 #
                #                      Germany                          #
                #                                                       #
                #                  All rights reserved                  #
                #                        -***-                          #
                #########################################################


                         Program Version 6.0.0  -   RELEASE  -


 With contributions from (in alphabetic order):
   Daniel Aravena         : Magnetic Suceptibility
   Michael Atanasov       : Ab Initio Ligand Field Theory (pilot matlab implementation)
   Alexander A. Auer      : GIAO ZORA, VPT2 properties, NMR spectrum
   Ute Becker             : All parallelization in ORCA, NUMFREQ, NUMCALC
   Giovanni Bistoni       : ED, misc. LED, open-shell LED, HFLD
   Martin Brehm           : Molecular dynamics
   Dmytro Bykov           : pre 5.0 version of the SCF Hessian
   Marcos Casanova-Páez   : Triplet and SCS-CIS(D). UHF-(DLPNO)-IP/EA/STEOM-CCSD. UHF-CVS-IP/STEOM-CCSD
   Vijay G. Chilkuri      : MRCI spin determinant printing, contributions to CSF-ICE
   Pauline Colinet        : FMM embedding
   Dipayan Datta          : RHF DLPNO-CCSD density
   Achintya Kumar Dutta   : EOM-CC, STEOM-CC
   Nicolas Foglia         : Exact transition moments, OPA infrastructure, MCD improvements
   Dmitry Ganyushin       : Spin-Orbit,Spin-Spin,Magnetic field MRCI
   Miquel Garcia          : C-PCM and meta-GGA Hessian, CCSD/C-PCM, Gaussian charge scheme
   Tiago L. C. Gouveia    : GS-ROHF, GS-ROCIS
   Yang Guo               : DLPNO-NEVPT2, F12-NEVPT2, CIM, IAO-localization
   Andreas Hansen         : Spin unrestricted coupled pair/coupled cluster methods
   Ingolf Harden          : AUTO-CI MPn and infrastructure 
   Benjamin Helmich-Paris : MC-RPA, TRAH-(SCF,CASSCF), AVAS, COSX integrals, SCF dyn. polar.
   Lee Huntington         : MR-EOM, pCC
   Robert Izsak           : Overlap fitted RIJCOSX, COSX-SCS-MP3, EOM
   Riya Kayal             : Wick's Theorem for AUTO-CI, AUTO-CI UHF-CCSDT
   Emily Kempfer          : AUTO-CI, RHF CISDT and CCSDT
   Christian Kollmar      : KDIIS, OOCD, Brueckner-CCSD(T), CCSD density, CASPT2, CASPT2-K, improved NEVPT2
   Axel Koslowski         : Symmetry handling
   Simone Kossmann        : Meta GGA functionals, TD-DFT gradient, OOMP2, (MP2 Hessian; deprecated post 5.0)
   Lucas Lang             : DCDCAS
   Marvin Lechner         : AUTO-CI (C++ implementation), FIC-MRCC
   Spencer Leger          : CASSCF response
   Dagmar Lenk            : GEPOL surface, SMD, ORCA-2-JSON
   Dimitrios Liakos       : Extrapolation schemes; Compound Job, initial MDCI parallelization
   Dimitrios Manganas     : Further ROCIS development; embedding schemes. LFT, Crystal Embedding
   Dimitrios Pantazis     : SARC Basis sets
   Anastasios Papadopoulos: AUTO-CI, single reference methods and gradients
   Taras Petrenko         : pre 6.0 DFT Hessian and TD-DFT gradient, (ASA, deprecated), ECA, 1-Electron XAS/XES, NRVS
   Peter Pinski           : DLPNO-MP2, DLPNO-MP2 Gradient
   Christoph Reimann      : Effective Core Potentials
   Marius Retegan         : Local ZFS, SOC
   Christoph Riplinger    : Optimizer, TS searches, QM/MM, DLPNO-CCSD(T), (RO)-DLPNO pert. Triples
   Michael Roemelt        : Original ROCIS implementation
   Masaaki Saitow         : Open-shell DLPNO-CCSD energy and density
   Barbara Sandhoefer     : DKH picture change effects
   Kantharuban Sivalingam : CASSCF convergence/infrastructure, NEVPT2 and variants, FIC-MRCI
   Bernardo de Souza      : ESD, SOC TD-DFT
   Georgi Stoychev        : AutoAux, RI-MP2 NMR, DLPNO-MP2 response, X2C
   Van Anh Tran           : RI-MP2 g-tensors
   Willem Van den Heuvel  : Paramagnetic NMR
   Zikuan Wang            : NOTCH, Electric field optimization 
   Frank Wennmohs         : Technical directorship and infrastructure
   Hang Xu                : AUTO-CI-Response properties 


 We gratefully acknowledge several colleagues who have allowed us to
 interface, adapt or use parts of their codes:
   Stefan Grimme, W. Hujo, H. Kruse, P. Pracht,  : VdW corrections, initial TS optimization,
                  C. Bannwarth, S. Ehlert,         DFT functionals, gCP, sTDA/sTD-DF
                  L. Wittmann, M. Mueller
   Ed Valeev, F. Pavosevic, A. Kumar             : LibInt (2-el integral package), F12 methods
   Garnet Chan, S. Sharma, J. Yang, R. Olivares  : DMRG
   Ulf Ekstrom                                   : XCFun DFT Library
   Mihaly Kallay                                 : mrcc  (arbitrary order and MRCC methods)
   Frank Weinhold                                : gennbo (NPA and NBO analysis)
   Simon Mueller                                 : openCOSMO-RS
   Christopher J. Cramer and Donald G. Truhlar   : smd solvation model
   Lars Goerigk                                  : TD-DFT with DH, B97 family of functionals
   V. Asgeirsson, H. Jonsson                     : NEB implementation
   FAccTs GmbH                                   : IRC, NEB, NEB-TS, DLPNO-Multilevel, CI-OPT
                                                   MM, QMMM, 2- and 3-layer-ONIOM, Crystal-QMMM,
                                                   LR-CPCM, SF, NACMEs, symmetry and pop. for TD-DFT,
                                                   nearIR, NL-DFT gradient (VV10), updates on ESD,
                                                   ML-optimized integration grids, MBIS, APM,
                                                   GOAT, DOCKER, SOLVATOR, interface openCOSMO-RS
   S Lehtola, MJT Oliveira, MAL Marques          : LibXC Library
   Liviu Ungur et al                             : ANISO software


 Your calculation uses the libint2 library for the computation of 2-el integrals
 For citations please refer to: http://libint.valeyev.net

 Your ORCA version has been built with support for libXC version: 6.2.2
 For citations please refer to: https://libxc.gitlab.io

 This ORCA versions uses:
   CBLAS   interface :  Fast vector & matrix operations
   LAPACKE interface :  Fast linear algebra routines
   SCALAPACK package :  Parallel linear algebra routines
   Shared memory     :  Shared parallel matrices
   BLAS/LAPACK       :  OpenBLAS 0.3.27  USE64BITINT DYNAMIC_ARCH NO_AFFINITY SkylakeX SINGLE_THREADED
        Core in use  :  SkylakeX
   Copyright (c) 2011-2014, The OpenBLAS Project




***************************************
The coordinates will be read from file: censo.xyz
***************************************


Your calculation utilizes the geometrical counterpoise correction gCP
Please cite in your paper:
H.Kruse, S. Grimme J.Chem.Phys., 136, (2012), 154101 
   

Your calculation utilizes the atom-pairwise dispersion correction
based on EEQ partial charges (D4)


================================================================================

----- Orbital basis set information -----
Your calculation utilizes the basis: def2-TZVP
   F. Weigend and R. Ahlrichs, Phys. Chem. Chem. Phys. 7, 3297 (2005).

----- AuxJ basis set information -----
Your calculation utilizes the basis: def2-mTZVPP/J
   Stefan Grimme, Andreas Hansen, Sebastian Ehlert, and Jan-Michael Mewes 
   J. Chem. Phys. 154, 000000 (2021). DOI: 10.1063/5.0040021

================================================================================
                                        WARNINGS
                       Please study these warnings very carefully!
================================================================================

Using LibXC functional ID 497 : Re-regularized SCAN exchange by Furness et al
[ 1]  J. W. Furness, A. D. Kaplan, J. Ning, J. P. Perdew, and J. Sun.,  J. Phys. Chem. Lett. 11, 8208-8215 (2020)
[ 2]  J. W. Furness, A. D. Kaplan, J. Ning, J. P. Perdew, and J. Sun.,  J. Phys. Chem. Lett. 11, 9248-9248 (2020)
Using LibXC functional ID 498 : Re-regularized SCAN correlation by Furness et al
[ 1]  J. W. Furness, A. D. Kaplan, J. Ning, J. P. Perdew, and J. Sun.,  J. Phys. Chem. Lett. 11, 8208-8215 (2020)
[ 2]  J. W. Furness, A. D. Kaplan, J. Ning, J. P. Perdew, and J. Sun.,  J. Phys. Chem. Lett. 11, 9248-9248 (2020)
Using LibXC functional ID 497 : Re-regularized SCAN exchange by Furness et al
[ 1]  J. W. Furness, A. D. Kaplan, J. Ning, J. P. Perdew, and J. Sun.,  J. Phys. Chem. Lett. 11, 8208-8215 (2020)
[ 2]  J. W. Furness, A. D. Kaplan, J. Ning, J. P. Perdew, and J. Sun.,  J. Phys. Chem. Lett. 11, 9248-9248 (2020)
Using LibXC functional ID 498 : Re-regularized SCAN correlation by Furness et al
[ 1]  J. W. Furness, A. D. Kaplan, J. Ning, J. P. Perdew, and J. Sun.,  J. Phys. Chem. Lett. 11, 8208-8215 (2020)
[ 2]  J. W. Furness, A. D. Kaplan, J. Ning, J. P. Perdew, and J. Sun.,  J. Phys. Chem. Lett. 11, 9248-9248 (2020)

================================================================================
                                       INPUT FILE
================================================================================
NAME = censo.inp
|  1> ! r2SCAN-3c DEF2-TZVP FREQ
|  2> * xyzfile 0 1 censo.xyz
|  3> 
|  4>                          ****END OF INPUT****
================================================================================

                       ****************************
                       * Single Point Calculation *
                       ****************************

---------------------------------
CARTESIAN COORDINATES (ANGSTROEM)
---------------------------------
  C      0.255431   -0.535838    0.000647
  C      1.392249    0.152006   -0.000917
  F      2.582928   -0.393551   -0.001027
  F      1.431853    1.465836   -0.002989
  C     -1.101082    0.110638    0.000255
  F     -1.295202    0.888327    1.091841
  F     -1.281657    0.912359   -1.075889
  F     -2.059885   -0.828558   -0.015790
  F      0.279476   -1.876868    0.003814

----------------------------
CARTESIAN COORDINATES (A.U.)
----------------------------
  NO LB      ZA    FRAG     MASS         X           Y           Z
   0 C     6.0000    0    12.011    0.482695   -1.012586    0.001223
   1 C     6.0000    0    12.011    2.630970    0.287250   -0.001734
   2 F     9.0000    0    18.998    4.881027   -0.743703   -0.001941
   3 F     9.0000    0    18.998    2.705811    2.770028   -0.005648
   4 C     6.0000    0    12.011   -2.080743    0.209075    0.000482
   5 F     9.0000    0    18.998   -2.447576    1.678694    2.063281
   6 F     9.0000    0    18.998   -2.421980    1.724108   -2.033136
   7 F     9.0000    0    18.998   -3.892618   -1.565747   -0.029838
   8 F     9.0000    0    18.998    0.528133   -3.546767    0.007207

--------------------------------
INTERNAL COORDINATES (ANGSTROEM)
--------------------------------
 C      0   0   0     0.000000000000     0.00000000     0.00000000
 C      1   0   0     1.328716275527     0.00000000     0.00000000
 F      2   1   0     1.309713104578   124.20672316     0.00000000
 F      2   1   3     1.314427973846   122.90313442   179.97617190
 C      1   2   3     1.502683893819   123.34234143   180.02223749
 F      5   1   2     1.354268172026   112.10073545   299.44369035
 F      5   1   2     1.354049713912   112.04408792    58.92831103
 F      5   1   2     1.342254739655   110.10943049   179.18548225
 F      1   2   3     1.341250090155   120.14933807     0.07718666

---------------------------
INTERNAL COORDINATES (A.U.)
---------------------------
 C      0   0   0     0.000000000000     0.00000000     0.00000000
 C      1   0   0     2.510909870430     0.00000000     0.00000000
 F      2   1   0     2.474999081661   124.20672316     0.00000000
 F      2   1   3     2.483908893335   122.90313442   179.97617190
 C      1   2   3     2.839661025172   123.34234143   180.02223749
 F      5   1   2     2.559195957015   112.10073545   299.44369035
 F      5   1   2     2.558783131007   112.04408792    58.92831103
 F      5   1   2     2.536493859905   110.10943049   179.18548225
 F      1   2   3     2.534595347490   120.14933807     0.07718666

---------------------
BASIS SET INFORMATION
---------------------
There are 2 groups of distinct atoms

 Group   1 Type C   : 11s6p2d1f contracted to 5s3p2d1f pattern {62111/411/11/1}
 Group   2 Type F   : 11s6p2d1f contracted to 5s3p2d1f pattern {62111/411/11/1}

Atom   0C    basis set group =>   1
Atom   1C    basis set group =>   1
Atom   2F    basis set group =>   2
Atom   3F    basis set group =>   2
Atom   4C    basis set group =>   1
Atom   5F    basis set group =>   2
Atom   6F    basis set group =>   2
Atom   7F    basis set group =>   2
Atom   8F    basis set group =>   2
---------------------------------
AUXILIARY/J BASIS SET INFORMATION
---------------------------------
There are 2 groups of distinct atoms

 Group   1 Type C   : 8s3p3d contracted to 6s3p3d pattern {311111/111/111}
 Group   2 Type F   : 8s3p4d contracted to 6s3p4d pattern {311111/111/1111}

Atom   0C    basis set group =>   1
Atom   1C    basis set group =>   1
Atom   2F    basis set group =>   2
Atom   3F    basis set group =>   2
Atom   4C    basis set group =>   1
Atom   5F    basis set group =>   2
Atom   6F    basis set group =>   2
Atom   7F    basis set group =>   2
Atom   8F    basis set group =>   2
------------------------------------------------------------------------------
                             ORCA STARTUP CALCULATIONS
                           -- RI-GTO INTEGRALS CHOSEN --
------------------------------------------------------------------------------
------------------------------------------------------------------------------
                   ___                                                        
                  /   \      - P O W E R E D   B Y -                         
                 /     \                                                     
                 |  |  |   _    _      __       _____    __    __             
                 |  |  |  | |  | |    /  \     |  _  \  |  |  /  |          
                  \  \/   | |  | |   /    \    | | | |  |  | /  /          
                 / \  \   | |__| |  /  /\  \   | |_| |  |  |/  /          
                |  |  |   |  __  | /  /__\  \  |    /   |      \           
                |  |  |   | |  | | |   __   |  |    \   |  |\   \          
                \     /   | |  | | |  |  |  |  | |\  \  |  | \   \       
                 \___/    |_|  |_| |__|  |__|  |_| \__\ |__|  \__/        
                                                                              
                      - O R C A' S   B I G   F R I E N D -                    
                                      &                                       
                       - I N T E G R A L  F E E D E R -                       
                                                                              
 v1 FN, 2020, v2 2021, v3 2022-2024                                           
------------------------------------------------------------------------------


----------------------
SHARK INTEGRAL PACKAGE
----------------------

Number of atoms                             ...      9
Number of basis functions                   ...    279
Number of shells                            ...     99
Maximum angular momentum                    ...      3
Integral batch strategy                     ... SHARK/LIBINT Hybrid
RI-J (if used) integral strategy            ... SPLIT-RIJ (Revised 2003 algorithm where possible)
Printlevel                                  ...      1
Contraction scheme used                     ... SEGMENTED contraction
Prescreening option                         ... SCHWARTZ
   Thresh                                   ... 1.000e-10
   Tcut                                     ... 1.000e-11
   Tpresel                                  ... 1.000e-11 
Coulomb Range Separation                    ... NOT USED
Exchange Range Separation                   ... NOT USED
Multipole approximations                    ... NOT USED
Finite Nucleus Model                        ... NOT USED
CABS basis                                  ... NOT available
Auxiliary Coulomb fitting basis             ... AVAILABLE
   # of basis functions in Aux-J            ...    300
   # of shells in Aux-J                     ...    114
   Maximum angular momentum in Aux-J        ...      2
Auxiliary J/K fitting basis                 ... NOT available
Auxiliary Correlation fitting basis         ... NOT available
Auxiliary 'external' fitting basis          ... NOT available

Checking pre-screening integrals            ... done (  0.0 sec) Dimension = 99
Check shell pair data                       ... done (  0.0 sec)
Shell pair information
Shell pair cut-off parameter TPreSel        ...   1.0e-11
Total number of shell pairs                 ...      4950
Shell pairs after pre-screening             ...      4189
Total number of primitive shell pairs       ...     16488
Primitive shell pairs kept                  ...      9924
          la=0 lb=0:    794 shell pairs
          la=1 lb=0:   1082 shell pairs
          la=1 lb=1:    361 shell pairs
          la=2 lb=0:    653 shell pairs
          la=2 lb=1:    446 shell pairs
          la=2 lb=2:    149 shell pairs
          la=3 lb=0:    310 shell pairs
          la=3 lb=1:    221 shell pairs
          la=3 lb=2:    135 shell pairs
          la=3 lb=3:     38 shell pairs

Calculating one electron integrals          ... done (  0.0 sec)
Calculating RI/J V-Matrix + Cholesky decomp.... done (  0.0 sec)
Calculating Nuclear repulsion               ... done (  0.0 sec) ENN=    509.908042397549 Eh

Diagonalization of the overlap matrix:
Smallest eigenvalue                        ... 1.072e-04
Time for diagonalization                   ...    0.008 sec
Threshold for overlap eigenvalues          ... 1.000e-07
Number of eigenvalues below threshold      ... 0
Time for construction of square roots      ...    0.024 sec
Total time needed                          ...    0.042 sec

-------------------
DFT GRID GENERATION
-------------------

General Integration Accuracy     IntAcc      ... 4.388
Radial Grid Type                 RadialGrid  ... OptM3 with GC (2021)
Angular Grid (max. ang.)         AngularGrid ... 4 (Lebedev-302)
Angular grid pruning method      GridPruning ... 4 (adaptive)
Weight generation scheme         WeightScheme... mBecke (2022)
Basis function cutoff            BFCut       ... 1.0000e-10
Integration weight cutoff        WCut        ... 1.0000e-14
Partially contracted basis set               ... off
Rotationally invariant grid construction     ... off
Angular grids for H and He will be reduced by one unit

Total number of grid points                  ...    54851
Total number of batches                      ...      862
Average number of points per batch           ...       63
Average number of grid points per atom       ...     6095
Initializing property integral containers    ... done (  0.0 sec)

SHARK setup successfully completed in   0.9 seconds

Maximum memory used throughout the entire STARTUP-calculation: 33.1 MB
-------------------------------------------------------------------------------
                                 ORCA GUESS
                   Start orbitals & Density for SCF / CASSCF
-------------------------------------------------------------------------------

------------
SCF SETTINGS
------------
Hamiltonian:
 Density Functional     Method          .... DFT(GTOs)
  Functional kind                       .... Exchange
  Functional name                       .... Re-regularized SCAN exchange by Furness et al
  Functional family                     .... MGGA
  Functional refs                              
    [ 0] J. W. Furness, A. D. Kaplan, J. Ning, J. P. Perdew, and J. Sun.,  J. Phys. Chem. Lett. 11, 8208-8215 (2020), doi: 10.1021/acs.jpclett.0c02405
    [ 1] J. W. Furness, A. D. Kaplan, J. Ning, J. P. Perdew, and J. Sun.,  J. Phys. Chem. Lett. 11, 9248-9248 (2020), doi: 10.1021/acs.jpclett.0c03077
  Functional external parameters        .... 6
    Parameter  0 _c1        =  6.670000e-01 : c1 parameter        
    Parameter  1 _c2        =  8.000000e-01 : c2 parameter        
    Parameter  2 _d         =  1.240000e+00 : d parameter         
    Parameter  3 _k1        =  6.500000e-02 : k1 parameter        
    Parameter  4 _eta       =  1.000000e-03 : eta parameter       
    Parameter  5 _dp2       =  3.610000e-01 : dp2 parameter       
  Functional kind                       .... Correlation
  Functional name                       .... Re-regularized SCAN correlation by Furness et al
  Functional family                     .... MGGA
  Functional refs                              
    [ 0] J. W. Furness, A. D. Kaplan, J. Ning, J. P. Perdew, and J. Sun.,  J. Phys. Chem. Lett. 11, 8208-8215 (2020), doi: 10.1021/acs.jpclett.0c02405
    [ 1] J. W. Furness, A. D. Kaplan, J. Ning, J. P. Perdew, and J. Sun.,  J. Phys. Chem. Lett. 11, 9248-9248 (2020), doi: 10.1021/acs.jpclett.0c03077
  Functional external parameters        .... 1
    Parameter  0 _eta       =  1.000000e-03 : Regularization parameter
 Gradients option       PostSCFGGA      .... off
 RI-approximation to the Coulomb term is turned on
   Number of AuxJ basis functions       .... 300


General Settings:
 Integral files         IntName         .... censo
 Hartree-Fock type      HFTyp           .... RHF
 Total Charge           Charge          ....    0
 Multiplicity           Mult            ....    1
 Number of Electrons    NEL             ....   72
 Basis Dimension        Dim             ....  279
 Nuclear Repulsion      ENuc            ....    509.9080423975 Eh

Convergence Acceleration:
 AO-DIIS                CNVDIIS         .... on
   Start iteration      DIISMaxIt       ....    12
   Startup error        DIISStart       ....  0.200000
   # of expansion vecs  DIISMaxEq       ....     5
   Bias factor          DIISBfac        ....   1.050
   Max. coefficient     DIISMaxC        ....  10.000
 MO-DIIS                CNVKDIIS        .... off
 Trust-Rad. Augm. Hess. CNVTRAH         .... auto
   Auto Start mean grad. ratio tolernc. ....  1.125000
   Auto Start start iteration           ....    50
   Auto Start num. interpolation iter.  ....    10
   Max. Number of Micro iterations      ....    24
   Max. Number of Macro iterations      .... Maxiter - #DIIS iter
   Number of Davidson start vectors     ....     2
   Converg. threshold    (grad. norm)   ....   5.000e-05
   Grad. Scal. Fac. for Micro threshold ....   0.100
   Minimum threshold for Micro iter.    ....   1.000e-02
   NR start threshold (gradient norm)   ....   1.000e-04
   Initial trust radius                 ....   0.400
   Minimum AH scaling param. (alpha)    ....   1.000
   Maximum AH scaling param. (alpha)    .... 1000.000
   Quad. conv. algorithm                .... NR
   White noise on init. David. guess    .... on
   Maximum white noise                  ....   0.010
   Pseudo random numbers                .... off
   Inactive MOs                         .... canonical
   Orbital update algorithm             .... Taylor
   Preconditioner                       .... Diag
   Full preconditioner red. dimension   ....   250
   COSX micro iterations for RIJONX calc.... off
 SOSCF                  CNVSOSCF        .... on
   Start iteration      SOSCFMaxIt      ....   150
   Startup grad/error   SOSCFStart      ....  0.003300
   Hessian update       SOSCFHessUp     .... L-BFGS
 Level Shifting         CNVShift        .... on
   Level shift para.    LevelShift      ....    0.2500
   Turn off err/grad.   ShiftErr        ....    0.0010
 Zerner damping         CNVZerner       .... off
 Static damping         CNVDamp         .... on
   Fraction old density DampFac         ....    0.7000
   Max. Damping (<1)    DampMax         ....    0.9800
   Min. Damping (>=0)   DampMin         ....    0.0000
   Turn off err/grad.   DampErr         ....    0.1000

SCF Procedure:
 Maximum # iterations   MaxIter         ....   125
 SCF integral mode      SCFMode         .... Direct
   Integral package                     .... SHARK and LIBINT hybrid scheme
 Reset frequency        DirectResetFreq ....    20
 Integral Threshold     Thresh          ....  1.000e-10 Eh
 Primitive CutOff       TCut            ....  1.000e-11 Eh

Convergence Tolerance:
 Convergence Check Mode ConvCheckMode   .... Total+1el-Energy
 Convergence forced     ConvForced      .... 0
 Energy Change          TolE            ....  1.000e-06 Eh
 1-El. energy change                    ....  1.000e-03 Eh
 Orbital Gradient       TolG            ....  5.000e-05
 Orbital Rotation angle TolX            ....  5.000e-05
 DIIS Error             TolErr          ....  1.000e-06

------------------------------
INITIAL GUESS: MODEL POTENTIAL
------------------------------
Loading Hartree-Fock densities                     ... done
Calculating cut-offs                               ... done
Initializing the effective Hamiltonian             ... done
Setting up the integral package (SHARK)            ... done
Starting the Coulomb interaction                   ... done (   0.2 sec)
Making the grid                                    ... done (   0.1 sec)
Mapping shells                                     ... done
Starting the XC term evaluation                    ... done (   0.2 sec)
  promolecular density results
     # of electrons  =     71.998873798
     EX              =    -75.357145734
     EC              =     -2.517468201
     EX+EC           =    -77.874613935
Transforming the Hamiltonian                       ... done (   0.0 sec)
Diagonalizing the Hamiltonian                      ... done (   0.0 sec)
Back transforming the eigenvectors                 ... done (   0.0 sec)
Now organizing SCF variables                       ... done
                      ------------------
                      INITIAL GUESS DONE (   0.6 sec)
                      ------------------
             **** ENERGY FILE WAS UPDATED (censo.en.tmp) ****
Finished Guess after   0.9 sec
Maximum memory used throughout the entire GUESS-calculation: 23.1 MB

-------------------------------------------------------------------------------------------
                                      ORCA LEAN-SCF
                              memory conserving SCF solver
-------------------------------------------------------------------------------------------

----------------------------------------D-I-I-S--------------------------------------------
Iteration    Energy (Eh)           Delta-E    RMSDP     MaxDP     DIISErr   Damp  Time(sec)
-------------------------------------------------------------------------------------------
               ***  Starting incremental Fock matrix formation  ***
    1    -713.2479186364755606     0.00e+00  9.44e-04  3.38e-02  1.40e-01  0.700   2.3
    2    -713.2985760111089348    -5.07e-02  5.68e-04  1.60e-02  5.37e-02  0.700   2.1
                               ***Turning on AO-DIIS***
    3    -713.3152001879736872    -1.66e-02  2.39e-04  7.56e-03  2.00e-02  0.700   2.0
    4    -713.3266194307025216    -1.14e-02  5.56e-04  1.78e-02  1.33e-02  0.000   1.8
    5    -713.3529734357455254    -2.64e-02  1.01e-04  5.75e-03  3.63e-03  0.000   2.0
                              *** Initializing SOSCF ***
---------------------------------------S-O-S-C-F--------------------------------------
Iteration    Energy (Eh)           Delta-E    RMSDP     MaxDP     MaxGrad    Time(sec)
--------------------------------------------------------------------------------------
    6    -713.3530470832165520    -7.36e-05  3.22e-05  1.34e-03  2.34e-03     1.9
               *** Restarting incremental Fock matrix formation ***
    7    -713.3530631663943495    -1.61e-05  2.53e-05  1.07e-03  2.44e-04     2.2
    8    -713.3530583971435135     4.77e-06  1.61e-05  8.59e-04  1.00e-03     1.8
    9    -713.3530653625346076    -6.97e-06  4.11e-06  1.55e-04  8.20e-05     1.7
   10    -713.3530652588960947     1.04e-07  2.37e-06  8.40e-05  8.52e-05     1.7
                 **** Energy Check signals convergence ****

               *****************************************************
               *                     SUCCESS                       *
               *           SCF CONVERGED AFTER  10 CYCLES          *
               *****************************************************

             **** ENERGY FILE WAS UPDATED (censo.en.tmp) ****

----------------
TOTAL SCF ENERGY
----------------

Total Energy       :       -713.35306525889609 Eh          -19411.32376 eV

Components:
Nuclear Repulsion  :        509.90804239754857 Eh           13875.30324 eV
Electronic Energy  :      -1223.26110765644466 Eh          -33286.62700 eV
One Electron Energy:      -2003.52970547937025 Eh          -54518.81497 eV
Two Electron Energy:        780.26859782292559 Eh           21232.18797 eV

Virial components:
Potential Energy   :      -1424.27205397118246 Eh          -38756.41293 eV
Kinetic Energy     :        710.91898871228636 Eh           19345.08917 eV
Virial Ratio       :          2.00342384517119

DFT components:
N(Alpha)           :       35.999989119925 electrons
N(Beta)            :       35.999989119925 electrons
N(Total)           :       71.999978239851 electrons
E(X)               :      -76.301752525174 Eh       
E(C)               :       -2.500124788412 Eh       
E(XC)              :      -78.801877313586 Eh       

---------------
SCF CONVERGENCE
---------------

  Last Energy change         ...   -1.0364e-07  Tolerance :   1.0000e-06
  Last MAX-Density change    ...    8.4017e-05  Tolerance :   1.0000e-05
  Last RMS-Density change    ...    2.3714e-06  Tolerance :   1.0000e-06
  Last DIIS Error            ...    2.3448e-03  Tolerance :   1.0000e-06
  Last Orbital Gradient      ...    8.5210e-05  Tolerance :   5.0000e-05
  Last Orbital Rotation      ...    1.2819e-04  Tolerance :   5.0000e-05


----------------
ORBITAL ENERGIES
----------------

  NO   OCC          E(Eh)            E(eV) 
   0   2.0000     -24.570991      -668.6107 
   1   2.0000     -24.570133      -668.5873 
   2   2.0000     -24.543608      -667.8655 
   3   2.0000     -24.543029      -667.8498 
   4   2.0000     -24.536625      -667.6755 
   5   2.0000     -24.536483      -667.6717 
   6   2.0000     -10.314475      -280.6711 
   7   2.0000     -10.245191      -278.7858 
   8   2.0000     -10.165396      -276.6145 
   9   2.0000      -1.296226       -35.2721 
  10   2.0000      -1.290760       -35.1234 
  11   2.0000      -1.239699       -33.7339 
  12   2.0000      -1.229149       -33.4468 
  13   2.0000      -1.207423       -32.8556 
  14   2.0000      -1.201172       -32.6856 
  15   2.0000      -0.812623       -22.1126 
  16   2.0000      -0.709684       -19.3115 
  17   2.0000      -0.640612       -17.4319 
  18   2.0000      -0.600630       -16.3440 
  19   2.0000      -0.595250       -16.1976 
  20   2.0000      -0.574980       -15.6460 
  21   2.0000      -0.567356       -15.4385 
  22   2.0000      -0.545597       -14.8465 
  23   2.0000      -0.530564       -14.4374 
  24   2.0000      -0.459455       -12.5024 
  25   2.0000      -0.458863       -12.4863 
  26   2.0000      -0.450168       -12.2497 
  27   2.0000      -0.444222       -12.0879 
  28   2.0000      -0.443994       -12.0817 
  29   2.0000      -0.435768       -11.8578 
  30   2.0000      -0.428868       -11.6701 
  31   2.0000      -0.407175       -11.0798 
  32   2.0000      -0.406260       -11.0549 
  33   2.0000      -0.387872       -10.5545 
  34   2.0000      -0.374564       -10.1924 
  35   2.0000      -0.264612        -7.2005 
  36   0.0000      -0.055419        -1.5080 
  37   0.0000      -0.013870        -0.3774 
  38   0.0000       0.045066         1.2263 
  39   0.0000       0.105397         2.8680 
  40   0.0000       0.114446         3.1142 
  41   0.0000       0.134347         3.6558 
  42   0.0000       0.143246         3.8979 
  43   0.0000       0.185417         5.0454 
  44   0.0000       0.201073         5.4715 
  45   0.0000       0.205598         5.5946 
  46   0.0000       0.214269         5.8306 
*Only the first 10 virtual orbitals were printed.

                    ********************************
                    * MULLIKEN POPULATION ANALYSIS *
                    ********************************

-----------------------
MULLIKEN ATOMIC CHARGES
-----------------------
   0 C :    0.049598
   1 C :    0.363724
   2 F :   -0.132154
   3 F :   -0.131311
   4 C :    0.487116
   5 F :   -0.161799
   6 F :   -0.161642
   7 F :   -0.148798
   8 F :   -0.164733
Sum of atomic charges:   -0.0000000

--------------------------------
MULLIKEN REDUCED ORBITAL CHARGES
--------------------------------
  0 C s       :     3.146754  s :     3.146754
      pz      :     1.146155  p :     2.634619
      px      :     0.899669
      py      :     0.588794
      dz2     :     0.006704  d :     0.150349
      dxz     :     0.013165
      dyz     :     0.044313
      dx2y2   :     0.016593
      dxy     :     0.069575
      f0      :     0.002832  f :     0.018681
      f+1     :     0.001181
      f-1     :     0.001349
      f+2     :     0.003181
      f-2     :     0.001036
      f+3     :     0.006039
      f-3     :     0.003062

  1 C s       :     2.979052  s :     2.979052
      pz      :     1.017490  p :     2.371808
      px      :     0.739700
      py      :     0.614618
      dz2     :     0.007437  d :     0.256048
      dxz     :     0.056129
      dyz     :     0.048151
      dx2y2   :     0.065588
      dxy     :     0.078742
      f0      :     0.003859  f :     0.029368
      f+1     :     0.001410
      f-1     :     0.001386
      f+2     :     0.004419
      f-2     :     0.002662
      f+3     :     0.010991
      f-3     :     0.004641

  2 F s       :     3.930346  s :     3.930346
      pz      :     1.858116  p :     5.182637
      px      :     1.509327
      py      :     1.815195
      dz2     :     0.002385  d :     0.018369
      dxz     :     0.004273
      dyz     :     0.000796
      dx2y2   :     0.005132
      dxy     :     0.005784
      f0      :     0.000076  f :     0.000802
      f+1     :     0.000128
      f-1     :     0.000037
      f+2     :     0.000063
      f-2     :     0.000068
      f+3     :     0.000170
      f-3     :     0.000260

  3 F s       :     3.930642  s :     3.930642
      pz      :     1.862458  p :     5.181469
      px      :     1.885989
      py      :     1.433022
      dz2     :     0.002406  d :     0.018408
      dxz     :     0.000128
      dyz     :     0.004958
      dx2y2   :     0.007286
      dxy     :     0.003630
      f0      :     0.000078  f :     0.000792
      f+1     :     0.000012
      f-1     :     0.000154
      f+2     :     0.000123
      f-2     :     0.000006
      f+3     :     0.000159
      f-3     :     0.000261

  4 C s       :     3.016695  s :     3.016695
      pz      :     0.637484  p :     2.115613
      px      :     0.807680
      py      :     0.670449
      dz2     :     0.071697  d :     0.340392
      dxz     :     0.074669
      dyz     :     0.071265
      dx2y2   :     0.065522
      dxy     :     0.057239
      f0      :     0.008430  f :     0.040184
      f+1     :     0.004185
      f-1     :     0.005290
      f+2     :     0.004672
      f-2     :     0.008575
      f+3     :     0.004225
      f-3     :     0.004807

  5 F s       :     3.924025  s :     3.924025
      pz      :     1.598168  p :     5.220644
      px      :     1.885267
      py      :     1.737209
      dz2     :     0.004481  d :     0.016417
      dxz     :     0.002390
      dyz     :     0.006457
      dx2y2   :     0.001556
      dxy     :     0.001533
      f0      :     0.000115  f :     0.000712
      f+1     :     0.000058
      f-1     :     0.000261
      f+2     :     0.000131
      f-2     :     0.000101
      f+3     :     0.000023
      f-3     :     0.000023

  6 F s       :     3.924050  s :     3.924050
      pz      :     1.606111  p :     5.220451
      px      :     1.886601
      py      :     1.727739
      dz2     :     0.004298  d :     0.016428
      dxz     :     0.002295
      dyz     :     0.006576
      dx2y2   :     0.001669
      dxy     :     0.001590
      f0      :     0.000110  f :     0.000713
      f+1     :     0.000053
      f-1     :     0.000260
      f+2     :     0.000140
      f-2     :     0.000101
      f+3     :     0.000025
      f-3     :     0.000025

  7 F s       :     3.922706  s :     3.922706
      pz      :     1.887046  p :     5.208329
      px      :     1.646215
      py      :     1.675069
      dz2     :     0.002453  d :     0.017015
      dxz     :     0.001758
      dyz     :     0.001810
      dx2y2   :     0.003648
      dxy     :     0.007345
      f0      :     0.000060  f :     0.000748
      f+1     :     0.000082
      f-1     :     0.000083
      f+2     :     0.000008
      f-2     :     0.000098
      f+3     :     0.000215
      f-3     :     0.000202

  8 F s       :     3.934915  s :     3.934915
      pz      :     1.883082  p :     5.211506
      px      :     1.906327
      py      :     1.422097
      dz2     :     0.002269  d :     0.017596
      dxz     :     0.000037
      dyz     :     0.004695
      dx2y2   :     0.006938
      dxy     :     0.003657
      f0      :     0.000070  f :     0.000716
      f+1     :     0.000010
      f-1     :     0.000142
      f+2     :     0.000110
      f-2     :     0.000001
      f+3     :     0.000148
      f-3     :     0.000235



                     *******************************
                     * LOEWDIN POPULATION ANALYSIS *
                     *******************************

----------------------
LOEWDIN ATOMIC CHARGES
----------------------
   0 C :   -0.286941
   1 C :   -0.431231
   2 F :    0.267369
   3 F :    0.263971
   4 C :   -0.636996
   5 F :    0.192893
   6 F :    0.193406
   7 F :    0.217606
   8 F :    0.219922

-------------------------------
LOEWDIN REDUCED ORBITAL CHARGES
-------------------------------
  0 C s       :     2.754138  s :     2.754138
      pz      :     1.009403  p :     2.799249
      px      :     1.026997
      py      :     0.762849
      dz2     :     0.051615  d :     0.625652
      dxz     :     0.055393
      dyz     :     0.121650
      dx2y2   :     0.186850
      dxy     :     0.210145
      f0      :     0.008478  f :     0.107902
      f+1     :     0.006044
      f-1     :     0.012757
      f+2     :     0.018237
      f-2     :     0.006935
      f+3     :     0.032315
      f-3     :     0.023135

  1 C s       :     2.748549  s :     2.748549
      pz      :     0.940780  p :     2.615113
      px      :     0.891549
      py      :     0.782783
      dz2     :     0.069191  d :     0.886022
      dxz     :     0.150012
      dyz     :     0.131226
      dx2y2   :     0.276785
      dxy     :     0.258808
      f0      :     0.013102  f :     0.181548
      f+1     :     0.012221
      f-1     :     0.014479
      f+2     :     0.025057
      f-2     :     0.017173
      f+3     :     0.061171
      f-3     :     0.038346

  2 F s       :     3.582752  s :     3.582752
      pz      :     1.784727  p :     5.113341
      px      :     1.567501
      py      :     1.761113
      dz2     :     0.004449  d :     0.034778
      dxz     :     0.008931
      dyz     :     0.001626
      dx2y2   :     0.009336
      dxy     :     0.010437
      f0      :     0.000202  f :     0.001760
      f+1     :     0.000237
      f-1     :     0.000078
      f+2     :     0.000175
      f-2     :     0.000178
      f+3     :     0.000387
      f-3     :     0.000503

  3 F s       :     3.584148  s :     3.584148
      pz      :     1.792276  p :     5.115604
      px      :     1.799131
      py      :     1.524197
      dz2     :     0.004409  d :     0.034546
      dxz     :     0.000127
      dyz     :     0.010511
      dx2y2   :     0.013435
      dxy     :     0.006066
      f0      :     0.000203  f :     0.001730
      f+1     :     0.000024
      f-1     :     0.000286
      f+2     :     0.000337
      f-2     :     0.000016
      f+3     :     0.000369
      f-3     :     0.000495

  4 C s       :     2.756982  s :     2.756982
      pz      :     0.775407  p :     2.491133
      px      :     0.915874
      py      :     0.799852
      dz2     :     0.244474  d :     1.138129
      dxz     :     0.180910
      dyz     :     0.284183
      dx2y2   :     0.189502
      dxy     :     0.239061
      f0      :     0.043614  f :     0.250751
      f+1     :     0.028132
      f-1     :     0.042224
      f+2     :     0.034007
      f-2     :     0.046712
      f+3     :     0.027757
      f-3     :     0.028306

  5 F s       :     3.614019  s :     3.614019
      pz      :     1.629034  p :     5.161635
      px      :     1.813090
      py      :     1.719511
      dz2     :     0.007932  d :     0.029952
      dxz     :     0.004247
      dyz     :     0.012463
      dx2y2   :     0.002503
      dxy     :     0.002807
      f0      :     0.000269  f :     0.001501
      f+1     :     0.000117
      f-1     :     0.000510
      f+2     :     0.000265
      f-2     :     0.000241
      f+3     :     0.000053
      f-3     :     0.000046

  6 F s       :     3.613738  s :     3.613738
      pz      :     1.634223  p :     5.161380
      px      :     1.813791
      py      :     1.713366
      dz2     :     0.007563  d :     0.029974
      dxz     :     0.004062
      dyz     :     0.012716
      dx2y2   :     0.002729
      dxy     :     0.002905
      f0      :     0.000257  f :     0.001502
      f+1     :     0.000104
      f-1     :     0.000508
      f+2     :     0.000281
      f-2     :     0.000242
      f+3     :     0.000059
      f-3     :     0.000050

  7 F s       :     3.604252  s :     3.604252
      pz      :     1.812444  p :     5.145560
      px      :     1.651883
      py      :     1.681233
      dz2     :     0.004686  d :     0.030985
      dxz     :     0.002457
      dyz     :     0.002939
      dx2y2   :     0.006678
      dxy     :     0.014226
      f0      :     0.000130  f :     0.001596
      f+1     :     0.000174
      f-1     :     0.000160
      f+2     :     0.000011
      f-2     :     0.000218
      f+3     :     0.000475
      f-3     :     0.000429

  8 F s       :     3.596123  s :     3.596123
      pz      :     1.821272  p :     5.148784
      px      :     1.823916
      py      :     1.503596
      dz2     :     0.003912  d :     0.033617
      dxz     :     0.000019
      dyz     :     0.010661
      dx2y2   :     0.012061
      dxy     :     0.006964
      f0      :     0.000194  f :     0.001554
      f+1     :     0.000022
      f-1     :     0.000241
      f+2     :     0.000326
      f-2     :     0.000001
      f+3     :     0.000367
      f-3     :     0.000403



                      *****************************
                      * MAYER POPULATION ANALYSIS *
                      *****************************

  NA   - Mulliken gross atomic population
  ZA   - Total nuclear charge
  QA   - Mulliken gross atomic charge
  VA   - Mayer's total valence
  BVA  - Mayer's bonded valence
  FA   - Mayer's free valence

  ATOM       NA         ZA         QA         VA         BVA        FA
  0 C      5.9504     6.0000     0.0496     3.8284     3.8284     0.0000
  1 C      5.6363     6.0000     0.3637     4.1421     4.1421     0.0000
  2 F      9.1322     9.0000    -0.1322     1.2035     1.2035    -0.0000
  3 F      9.1313     9.0000    -0.1313     1.1986     1.1986    -0.0000
  4 C      5.5129     6.0000     0.4871     4.4215     4.4215     0.0000
  5 F      9.1618     9.0000    -0.1618     1.1365     1.1365    -0.0000
  6 F      9.1616     9.0000    -0.1616     1.1366     1.1366    -0.0000
  7 F      9.1488     9.0000    -0.1488     1.1650     1.1650    -0.0000
  8 F      9.1647     9.0000    -0.1647     1.1262     1.1262    -0.0000

  Mayer bond orders larger than 0.100000
B(  0-C ,  1-C ) :   1.7604 B(  0-C ,  4-C ) :   0.9773 B(  0-C ,  8-F ) :   1.0456 
B(  1-C ,  2-F ) :   1.1412 B(  1-C ,  3-F ) :   1.1345 B(  4-C ,  5-F ) :   1.1238 
B(  4-C ,  6-F ) :   1.1236 B(  4-C ,  7-F ) :   1.1436 

-------
TIMINGS
-------

Total SCF time: 0 days 0 hours 0 min 19 sec 

Total time                  ....      19.787 sec
Sum of individual times     ....      19.317 sec  ( 97.6%)

SCF preparation             ....       0.200 sec  (  1.0%)
Fock matrix formation       ....      18.148 sec  ( 91.7%)
  Startup                   ....       0.063 sec  (  0.3% of F)
  Split-RI-J                ....       2.242 sec  ( 12.4% of F)
  XC integration            ....      15.271 sec  ( 84.1% of F)
    Basis function eval.    ....       2.313 sec  ( 15.1% of XC)
    Density eval.           ....       4.582 sec  ( 30.0% of XC)
    XC-Functional eval.     ....       1.538 sec  ( 10.1% of XC)
    XC-Potential eval.      ....       6.073 sec  ( 39.8% of XC)
Diagonalization             ....       0.000 sec  (  0.0%)
Density matrix formation    ....       0.228 sec  (  1.2%)
Total Energy calculation    ....       0.033 sec  (  0.2%)
Population analysis         ....       0.034 sec  (  0.2%)
Orbital Transformation      ....       0.071 sec  (  0.4%)
Orbital Orthonormalization  ....       0.000 sec  (  0.0%)
DIIS solution               ....       0.393 sec  (  2.0%)
SOSCF solution              ....       0.210 sec  (  1.1%)
Finished LeanSCF after  19.9 sec

Maximum memory used throughout the entire LEANSCF-calculation: 26.3 MB

------------------------------------------------------------------------------
                         ORCA PROPERTY INTEGRAL CALCULATIONS
------------------------------------------------------------------------------

GBWName                                   ... censo.gbw
Number of atoms                           ...      9
Number of basis functions                 ...    279
Max core memory                           ...   1024 MB

Dipole integrals                          ... YES
Quadrupole integrals                      ...  NO
Linear momentum integrals                 ...  NO
Angular momentum integrals                ...  NO
Higher moments length integrals           ...  NO
Higher moments velocity integrals         ...  NO
Kinetic energy integrals                  ...  NO
GIAO right hand sides                     ...  NO
GIAO dipole derivative integrals          ...  NO
SOC integrals                             ...  NO
EPR diamagnetic integrals (GIAO)          ...  NO
EPR gauge integrals                       ...  NO
Field gradient integrals                  ...  NO (   0 nuclei)
Spin-dipole/Fermi contact integrals       ...  NO (   0 nuclei)
Contact density integrals                 ...  NO (   0 nuclei)
Nucleus-orbit integrals                   ...  NO (   0 nuclei)
Geometric perturbations                   ... YES (   9 nuclei)

Choice of electric origin   ... Center of mass
Position of electric origin ... (  0.0007, -0.0012, -0.0000) 
Choice of magnetic origin   ... GIAO
Position of magnetic origin ... (  0.0000,  0.0000,  0.0000) 

Calculating integrals                     ... Electric Dipole (Length)     done (  0.1 sec)
Calculating integrals                     ... Geometrical perturbation right hand sides

-----------------------
GEOMETRIC PERTURBATIONS (9 nuclei)
-----------------------

MaxCore                            ...   1024 MB
Number of batches                  ...      1

BATCH   0: Atoms    0 -    8 ( 27 perturbations)
   => H(core) and overlap derivative integrals     ... done (     0.2 sec)
   => Making and storing internal U-coefficients   ... done (     0.2 sec)
   => RI-J derivative integrals                    ... done (     3.0 sec)
   => RI-J response operators                      ... done (     0.7 sec)
   => XC derivative integrals                      ... done (   107.2 sec)
   => XC response operators                        ... done (    27.7 sec)
   => Completing and storing right hand sides      ... done (     0.2 sec)
   => Total time for right hand sides = 140.8 sec

  geometrical perturbations done (140.8 sec)

Property integrals calculated in 140.8 sec

Maximum memory used throughout the entire PROPINT-calculation: 88.5 MB


-------------------------------------------------------------------------------
                          DFT DISPERSION CORRECTION                            
                                                                               
                                DFTD4 V3.4.0                                   
-------------------------------------------------------------------------------
The R2SCAN3C composite method is recognized
Using three-body term ABC
Active option DFTDOPT                   ...         5   

-------------------------   ----------------
Dispersion correction           -0.002043690
-------------------------   ----------------

------------------   -----------------
gCP correction             0.010860756
------------------   -----------------

-------------------------   --------------------
FINAL SINGLE POINT ENERGY      -713.344248193171
-------------------------   --------------------

------------------------------------------------------------------------------
                            ORCA SCF RESPONSE CALCULATION
------------------------------------------------------------------------------

GBWName                                 ... censo.gbw
Number of atoms                         ...      9
Number of basis functions               ...    279
Max core memory                         ...   1024 MB

Electric field perturbation             ...  NO
Quadrupolar field perturbation          ...  NO
Magnetic field perturbation (no GIAO)   ...  NO
Magnetic field perturbation (with GIAO) ...  NO
Linear momentum (velocity) perturbation ...  NO
Spin-orbit coupling perturbation        ...  NO
Choice of electric origin               ... Center of mass
Position of electric origin             ...     0.000739    -0.001238    -0.000012
Choice of magnetic origin               ... GIAO
Position of magnetic origin             ...     0.000000     0.000000     0.000000
Nuclear geometric perturbations         ... YES (  27 perturbations)
Nucleus-orbit perturbations             ...  NO (   0 perturbations)
Spin-dipole/Fermi contact perturbations ...  NO (   0 perturbations)

Total number of real perturbations      ...     27
Total number of imaginary perturbations ...      0
Total number of triplet perturbations   ...      0
Total number of SOC perturbations       ...      0


                                **********************
                                * REAL PERTURBATIONS *
                                **********************



-------------------
SHARK CP-SCF DRIVER
-------------------

Dimension of the orbital basis          ...    279
Dimension of the CPSCF-problem          ...   8748
Number of operators                     ...      1
Max. number of iterations               ...    128
Convergence Tolerance                   ... 1.0e-03
Number of perturbations                 ...     27
Perturbation type                       ... REAL

----------------------------
POPLE LINEAR EQUATION SOLVER
----------------------------

  ITERATION   0:   ||err||_max =   4.6070e-01 (   9.0 sec   0/ 27 done)
  ITERATION   1:   ||err||_max =   4.4041e-02 (   9.1 sec   0/ 27 done)
  ITERATION   2:   ||err||_max =   1.2782e-02 (   9.7 sec   1/ 27 done)
  ITERATION   3:   ||err||_max =   3.4906e-03 (  10.2 sec  10/ 27 done)
  ITERATION   4:   ||err||_max =   1.1360e-03 (   7.0 sec  25/ 27 done)
  ITERATION   5:   ||err||_max =   4.3503e-04 (   1.1 sec  27/ 27 done)

CP-SCF equations solved in  47.2 sec
Response densities calculated in   0.1 sec

Maximum memory used throughout the entire SCFRESP-calculation: 57.6 MB

------------------------------------------------------------------------------
                              ORCA PROPERTY CALCULATIONS
------------------------------------------------------------------------------

GBWName                                 ... censo.gbw
Number of atoms                         ...      9
Number of basis functions               ...    279
Max core memory                         ...   1024 MB

Electric properties:
Dipole moment                           ... YES
Quadrupole moment                       ...  NO
Static polarizability (Dipole/Dipole)   ...  NO
Static polarizability (Dipole/Quad.)    ...  NO
Static polarizability (Quad./Quad.)     ...  NO
Static polarizability (Velocity)        ...  NO

Atomic electric properties:
Dipole moment                           ...  NO
Quadrupole moment                       ...  NO
Static polarizability                   ...  NO

Choice of electric origin               ... Center of mass
Position of electric origin             ...     0.000739    -0.001238    -0.000012

General magnetic properties:
Magnetizability                         ...  NO

EPR properties:
g-Tensor (aka g-matrix)                 ...  NO
Zero-Field splitting spin-orbit         ...  NO
Zero-field splitting spin-spin          ...  NO
Hyperfine couplings                     ...  NO (   0 nuclei)
Quadrupole couplings                    ...  NO (   0 nuclei)
Contact density                         ...  NO (   0 nuclei)

NMR properties:
Chemical shifts                         ...  NO (   0 nuclei)
Spin-rotation constants                 ...  NO (   0 nuclei)
Spin-spin couplings                     ...  NO (   0 nuclei,    0 pairs)

Choice of magnetic origin               ... GIAO
Position of magnetic origin             ...     0.000000     0.000000     0.000000

Properties with geometric perturbations:
SCF Hessian                             ... YES
IR spectrum                             ... YES
VCD spectrum                            ...  NO
X-ray spectroscopy properties:
SCF XES/XAS/RIXS spectra                ...  NO


-------------
DIPOLE MOMENT
-------------

Method             : SCF
Type of density    : Electron Density
Multiplicity       :   1
Irrep              :   0
Energy             :  -713.3530652588960947 Eh
Relativity type    : 
Basis              : AO
                                X                 Y                 Z
Electronic contribution:      0.113759926       0.174610823      -0.000982363
Nuclear contribution   :      0.319497891      -0.158878919       0.000002296
                        -----------------------------------------
Total Dipole Moment    :      0.433257817       0.015731904      -0.000980067
                        -----------------------------------------
Magnitude (a.u.)       :      0.433544449
Magnitude (Debye)      :      1.101982414



--------------------
Rotational spectrum 
--------------------
 
Rotational constants in cm-1:             0.083027             0.042769             0.033191 
Rotational constants in MHz :          2489.097478          1282.196021           995.034078 

Dipole components along the rotational axes: 
x,y,z [a.u.] :     0.433110     0.019398    -0.000694 
x,y,z [Debye]:     1.100877     0.049305    -0.001765 

 

Dipole moment calculation done in   0.0 sec 

-----------
SCF HESSIAN
-----------

Occupied/Occupied contributions to the Hessian:
   => Occupied/Occupied contributions              ... done (  0.0 sec)
Perturbed density contributions to the Hessian:
   => Perturbed density contributions              ... done (  0.0 sec)
Explicit contributions to the Hessian:
   => Nuclear repulsion Hessian                    ... done (  0.0 sec)
   => HCore and overlap Hessian                    ... done (  4.6 sec)
   => RI-J Hessian                                 ... done (  8.5 sec)
   => XC-Hessian                                   ... done ( 41.6 sec)
   => Van der Waals-Hessian                        ... done (  1.7 sec)
   => GCP-Hessian                                  ... done (  0.0 sec)
   => Explicit contributions done
Dipole derivatives                                 ... done (  0.1 sec)
Mass weighting the Hessian           ... done
Calculating normal modes             ... done
Scaling frequencies                  ... done

-----------------------
VIBRATIONAL FREQUENCIES
-----------------------

Scaling factor for frequencies =  1.000000000  (already applied!)

     0:       0.00 cm**-1
     1:       0.00 cm**-1
     2:       0.00 cm**-1
     3:       0.00 cm**-1
     4:       0.00 cm**-1
     5:       0.00 cm**-1
     6:      -7.96 cm**-1 ***imaginary mode***
     7:     133.61 cm**-1
     8:     147.74 cm**-1
     9:     255.47 cm**-1
    10:     290.68 cm**-1
    11:     358.66 cm**-1
    12:     376.18 cm**-1
    13:     433.10 cm**-1
    14:     500.93 cm**-1
    15:     558.49 cm**-1
    16:     591.52 cm**-1
    17:     647.42 cm**-1
    18:     655.88 cm**-1
    19:     754.40 cm**-1
    20:    1027.56 cm**-1
    21:    1108.49 cm**-1
    22:    1149.49 cm**-1
    23:    1211.75 cm**-1
    24:    1322.68 cm**-1
    25:    1372.59 cm**-1
    26:    1814.17 cm**-1


------------
NORMAL MODES
------------

These modes are the Cartesian displacements weighted by the diagonal matrix
M(i,i)=1/sqrt(m[i]) where m[i] is the mass of the displaced atom
Thus, these vectors are normalized but *not* orthogonal

                  0          1          2          3          4          5    
      0       0.000000   0.000000   0.000000   0.000000   0.000000   0.000000
      1       0.000000   0.000000   0.000000   0.000000   0.000000   0.000000
      2       0.000000   0.000000   0.000000   0.000000   0.000000   0.000000
      3       0.000000   0.000000   0.000000   0.000000   0.000000   0.000000
      4       0.000000   0.000000   0.000000   0.000000   0.000000   0.000000
      5       0.000000   0.000000   0.000000   0.000000   0.000000   0.000000
      6       0.000000   0.000000   0.000000   0.000000   0.000000   0.000000
      7       0.000000   0.000000   0.000000   0.000000   0.000000   0.000000
      8       0.000000   0.000000   0.000000   0.000000   0.000000   0.000000
      9       0.000000   0.000000   0.000000   0.000000   0.000000   0.000000
     10       0.000000   0.000000   0.000000   0.000000   0.000000   0.000000
     11       0.000000   0.000000   0.000000   0.000000   0.000000   0.000000
     12       0.000000   0.000000   0.000000   0.000000   0.000000   0.000000
     13       0.000000   0.000000   0.000000   0.000000   0.000000   0.000000
     14       0.000000   0.000000   0.000000   0.000000   0.000000   0.000000
     15       0.000000   0.000000   0.000000   0.000000   0.000000   0.000000
     16       0.000000   0.000000   0.000000   0.000000   0.000000   0.000000
     17       0.000000   0.000000   0.000000   0.000000   0.000000   0.000000
     18       0.000000   0.000000   0.000000   0.000000   0.000000   0.000000
     19       0.000000   0.000000   0.000000   0.000000   0.000000   0.000000
     20       0.000000   0.000000   0.000000   0.000000   0.000000   0.000000
     21       0.000000   0.000000   0.000000   0.000000   0.000000   0.000000
     22       0.000000   0.000000   0.000000   0.000000   0.000000   0.000000
     23       0.000000   0.000000   0.000000   0.000000   0.000000   0.000000
     24       0.000000   0.000000   0.000000   0.000000   0.000000   0.000000
     25       0.000000   0.000000   0.000000   0.000000   0.000000   0.000000
     26       0.000000   0.000000   0.000000   0.000000   0.000000   0.000000
                  6          7          8          9         10         11    
      0      -0.000062  -0.000221  -0.002366   0.000279   0.065746  -0.067709
      1       0.003272  -0.001490  -0.282658   0.001156   0.008556  -0.010418
      2       0.086477  -0.341572   0.001821  -0.344965   0.004683   0.002013
      3       0.001118  -0.000652  -0.122071   0.001291   0.160983  -0.184780
      4       0.001039  -0.000145  -0.096170  -0.000202  -0.135099  -0.015597
      5      -0.131366  -0.055826  -0.001035  -0.104640   0.002492   0.001555
      6      -0.000644   0.000498   0.057045   0.001325   0.311079  -0.376316
      7      -0.003086   0.002332   0.323210  -0.000312   0.183287  -0.340157
      8      -0.059339   0.660259  -0.004359  -0.131294   0.000383   0.000666
      9       0.006206  -0.002393  -0.588708   0.001354  -0.112152  -0.362319
     10       0.000226  -0.000572  -0.072174   0.000828  -0.112060  -0.032894
     11      -0.419707  -0.411938  -0.000856   0.371686  -0.003249  -0.000841
     12      -0.000983   0.000409   0.126838   0.000679   0.129571   0.123017
     13       0.000280  -0.000558  -0.033653   0.000291   0.116694   0.113585
     14       0.029166  -0.076423  -0.000195  -0.243739   0.001812  -0.000075
     15      -0.224713   0.298792   0.358003   0.405879  -0.106663   0.032335
     16      -0.325694  -0.137442   0.020028  -0.133350   0.078409   0.272975
     17       0.228398   0.087873   0.007150  -0.076716  -0.022783  -0.105261
     18       0.214719  -0.290071   0.369687  -0.402019  -0.113203   0.017346
     19       0.319353   0.134833   0.021784   0.128004   0.079031   0.271558
     20       0.238217   0.086780  -0.003922  -0.080747   0.024621   0.109742
     21       0.004692  -0.005835  -0.131910  -0.002010   0.469155   0.491015
     22       0.002360   0.003333   0.240004   0.000783  -0.232341  -0.225935
     23      -0.425167   0.071185  -0.005777  -0.153276  -0.000279  -0.006583
     24      -0.000306  -0.000698  -0.065635  -0.005950  -0.673478   0.279794
     25       0.003939  -0.001097  -0.272073   0.003260   0.009901  -0.000911
     26       0.447539  -0.194597   0.007390   0.508695  -0.004376   0.000068
                 12         13         14         15         16         17    
      0       0.087385   0.000761   0.136869  -0.000280  -0.098380  -0.005083
      1      -0.164552   0.001722   0.224114   0.000101  -0.193878   0.001417
      2       0.001404   0.589074  -0.000212  -0.076709  -0.000265  -0.702185
      3       0.185679   0.000110   0.223843  -0.000375  -0.230052  -0.001882
      4      -0.270892   0.002154  -0.075682  -0.001372  -0.024500  -0.002903
      5       0.001522   0.442353  -0.000717  -0.699277  -0.000475   0.570021
      6       0.387531  -0.000873   0.180329   0.000484  -0.262282   0.000009
      7       0.091134  -0.000520  -0.344041   0.000393   0.252379   0.003782
      8      -0.000557  -0.098149   0.000713   0.158530   0.000047  -0.103181
      9      -0.092759   0.001754  -0.430442   0.000249   0.241902   0.000837
     10      -0.297594   0.001843  -0.057426  -0.000094  -0.077666  -0.007893
     11       0.000135  -0.160713   0.000387   0.139174   0.000252  -0.086787
     12      -0.087887  -0.001070   0.085596  -0.000377   0.126064  -0.002992
     13       0.109349  -0.000924   0.182508   0.000128   0.229594   0.001323
     14      -0.000619   0.064361   0.000112   0.241969   0.000258   0.113272
     15      -0.324769   0.308242  -0.097603   0.006458  -0.147404  -0.068105
     16       0.242129   0.127124  -0.224747   0.329862  -0.080652   0.205663
     17      -0.123642   0.055763   0.289748   0.193208   0.326401   0.141370
     18      -0.335530  -0.306697  -0.088842  -0.012595  -0.144912   0.067578
     19       0.240683  -0.140335  -0.210485  -0.337026  -0.062306  -0.207232
     20       0.124460   0.039522  -0.299301   0.177333  -0.337275   0.127579
     21      -0.123942  -0.001927   0.081975   0.006072   0.367889   0.003918
     22       0.138374   0.009931   0.299347   0.007258   0.311236  -0.000231
     23      -0.003722  -0.419458   0.010019  -0.332580   0.009961  -0.128029
     24       0.372395  -0.000373   0.072415  -0.000017   0.072749   0.002058
     25      -0.208560   0.000091   0.328124   0.000331  -0.350083   0.006014
     26       0.001868  -0.109748  -0.001049   0.001952   0.000919   0.060993
                 18         19         20         21         22         23    
      0       0.316738  -0.003029  -0.588451  -0.004981   0.094003  -0.142708
      1      -0.187909  -0.063853   0.072300  -0.000393   0.137970  -0.605213
      2      -0.013981  -0.000252  -0.000761   0.102907  -0.000493   0.001156
      3       0.173166   0.111574  -0.237617  -0.002340   0.132838  -0.316226
      4       0.257010   0.077852  -0.142977  -0.001945  -0.078106  -0.270932
      5       0.009128  -0.000344   0.000498  -0.001081   0.000107   0.000652
      6       0.006383   0.200578   0.327107   0.002222  -0.123506   0.131212
      7      -0.275600  -0.167614  -0.097885  -0.000643   0.043288  -0.032810
      8      -0.001277   0.000050  -0.000000  -0.008321   0.000049  -0.000011
      9      -0.070036  -0.039030   0.019240   0.000328  -0.008907   0.056844
     10       0.519595   0.308650   0.222416   0.002080  -0.008194   0.233618
     11      -0.002068  -0.000577  -0.000322   0.002826  -0.000039  -0.000454
     12       0.226927  -0.296962  -0.443710   0.000918   0.154629   0.466658
     13      -0.085756   0.116023   0.212927   0.000998   0.866585   0.128041
     14       0.002886  -0.001268   0.005785  -0.917811  -0.000124   0.003141
     15      -0.146384   0.059992   0.077677  -0.047631   0.027134  -0.052212
     16      -0.051527   0.222012  -0.127864   0.125746  -0.137633   0.018843
     17      -0.186614   0.414410  -0.139770   0.230679  -0.105069   0.033722
     18      -0.146358   0.065640   0.074980   0.044750   0.026994  -0.052294
     19      -0.062627   0.231739  -0.128338  -0.129363  -0.143693   0.019904
     20       0.187927  -0.408464   0.133904   0.227749   0.107978  -0.033971
     21       0.041109  -0.167585   0.231580   0.003719  -0.179759  -0.111135
     22       0.265078  -0.382608   0.123978   0.003119  -0.203218  -0.084609
     23       0.001084  -0.005086   0.002479   0.070220  -0.002773  -0.001671
     24      -0.137911  -0.000474   0.072201   0.000660   0.016870   0.022702
     25      -0.384389  -0.294382  -0.082242  -0.000093  -0.136273   0.318024
     26       0.002191   0.000845   0.000218  -0.007269   0.000177  -0.000744
                 24         25         26    
      0       0.243176  -0.413659  -0.529603
      1      -0.224606   0.478775  -0.383587
      2       0.000166  -0.000600   0.001244
      3       0.379027   0.236928   0.645250
      4      -0.612358  -0.447112   0.362802
      5       0.000628   0.000634  -0.001014
      6      -0.264851  -0.062838  -0.095319
      7       0.121208   0.059453   0.018713
      8       0.000016  -0.000045   0.000068
      9       0.006077  -0.013273  -0.027051
     10       0.229977   0.165674  -0.080603
     11      -0.000366  -0.000290   0.000160
     12      -0.448618   0.464398   0.025550
     13      -0.013749  -0.242662   0.039483
     14      -0.001060   0.001951   0.000114
     15       0.028224  -0.030679   0.001637
     16      -0.003959   0.035093  -0.010579
     17      -0.012343   0.030548  -0.004085
     18       0.028208  -0.030443   0.001178
     19      -0.003677   0.035973  -0.010420
     20       0.011904  -0.030847   0.003734
     21       0.091826  -0.075254   0.017906
     22       0.056304  -0.018853   0.001807
     23       0.001175  -0.000884   0.000101
     24       0.000770   0.030617   0.012381
     25       0.137988  -0.143940   0.069260
     26      -0.000219   0.000264  -0.000195


-----------
IR SPECTRUM
-----------

 Mode   freq       eps      Int      T**2         TX        TY        TZ
       cm**-1   L/(mol*cm) km/mol    a.u.
----------------------------------------------------------------------------
  7:    133.61   0.000051    0.26  0.000120  (-0.000105 -0.000096 -0.010946)
  8:    147.74   0.000244    1.23  0.000515  ( 0.001429 -0.022654 -0.000058)
  9:    255.47   0.000124    0.63  0.000151  ( 0.000013  0.000058 -0.012295)
 10:    290.68   0.000435    2.20  0.000467  ( 0.020914 -0.005450  0.000153)
 11:    358.66   0.000074    0.37  0.000064  ( 0.006256  0.005029  0.000036)
 12:    376.18   0.000266    1.34  0.000221  ( 0.012778 -0.007573  0.000049)
 13:    433.10   0.000352    1.78  0.000254  (-0.000618 -0.000106  0.015915)
 14:    500.93   0.000236    1.19  0.000147  ( 0.009445  0.007619  0.000042)
 15:    558.49   0.000134    0.68  0.000075  (-0.000007 -0.000002 -0.008642)
 16:    591.52   0.000032    0.16  0.000017  ( 0.003798  0.001590  0.000095)
 17:    647.42   0.000195    0.99  0.000094  (-0.000342  0.000097  0.009697)
 18:    655.88   0.002697   13.63  0.001283  ( 0.035650 -0.003489  0.000208)
 19:    754.40   0.001396    7.06  0.000578  (-0.023573  0.004681 -0.000167)
 20:   1027.56   0.050421  254.81  0.015313  (-0.123412  0.009026  0.000923)
 21:   1108.49   0.058499  295.63  0.016469  (-0.000119 -0.000303 -0.128330)
 22:   1149.49   0.052824  266.95  0.014341  ( 0.036053  0.114197  0.000004)
 23:   1211.75   0.015330   77.47  0.003948  ( 0.004042 -0.062700  0.000559)
 24:   1322.68   0.042824  216.41  0.010104  (-0.016430 -0.099165  0.000034)
 25:   1372.59   0.047115  238.10  0.010712  ( 0.098859 -0.030637  0.000111)
 26:   1814.17   0.033587  169.74  0.005778  ( 0.074866  0.013137 -0.000004)

* The epsilon (eps) is given for a Dirac delta lineshape.
** The dipole moment derivative (T) already includes vibrational overlap.

The first frequency considered to be a vibration is 7
The total number of vibrations considered is 20


--------------------------
THERMOCHEMISTRY AT 298.15K
--------------------------

Temperature         ...   298.15 K
Pressure            ...     1.00 atm
Total Mass          ...   150.02 AMU
Quasi RRHO          ...     True
Cut-Off Frequency   ...     1.00 cm^-1

Throughout the following assumptions are being made:
  (1) The electronic state is orbitally nondegenerate
  (2) There are no thermally accessible electronically excited states
  (3) Hindered rotations indicated by low frequency modes are not
      treated as such but are treated as vibrations and this may
      cause some error
  (4) All equations used are the standard statistical mechanics
      equations for an ideal gas
  (5) All vibrations are strictly harmonic

freq.     133.61  E(vib)   ...       0.42 
freq.     147.74  E(vib)   ...       0.41 
freq.     255.47  E(vib)   ...       0.30 
freq.     290.68  E(vib)   ...       0.27 
freq.     358.66  E(vib)   ...       0.22 
freq.     376.18  E(vib)   ...       0.21 
freq.     433.10  E(vib)   ...       0.17 
freq.     500.93  E(vib)   ...       0.14 
freq.     558.49  E(vib)   ...       0.12 
freq.     591.52  E(vib)   ...       0.10 
freq.     647.42  E(vib)   ...       0.09 
freq.     655.88  E(vib)   ...       0.08 
freq.     754.40  E(vib)   ...       0.06 
freq.    1027.56  E(vib)   ...       0.02 
freq.    1108.49  E(vib)   ...       0.02 
freq.    1149.49  E(vib)   ...       0.01 
freq.    1211.75  E(vib)   ...       0.01 
freq.    1322.68  E(vib)   ...       0.01 
freq.    1372.59  E(vib)   ...       0.01 
freq.    1814.17  E(vib)   ...       0.00 

------------
INNER ENERGY
------------

The inner energy is: U= E(el) + E(ZPE) + E(vib) + E(rot) + E(trans)
    E(el)   - is the total energy from the electronic structure calculation
              = E(kin-el) + E(nuc-el) + E(el-el) + E(nuc-nuc)
    E(ZPE)  - the the zero temperature vibrational energy from the frequency calculation
    E(vib)  - the the finite temperature correction to E(ZPE) due to population
              of excited vibrational states
    E(rot)  - is the rotational thermal energy
    E(trans)- is the translational thermal energy

Summary of contributions to the inner energy U:
Electronic energy                ...   -713.34424819 Eh
Zero point energy                ...      0.03351366 Eh      21.03 kcal/mol
Thermal vibrational correction   ...      0.00424011 Eh       2.66 kcal/mol
Thermal rotational correction    ...      0.00141627 Eh       0.89 kcal/mol
Thermal translational correction ...      0.00141627 Eh       0.89 kcal/mol
-----------------------------------------------------------------------
Total thermal energy                   -713.30366188 Eh


Summary of corrections to the electronic energy:
(perhaps to be used in another calculation)
Total thermal correction                  0.00707265 Eh       4.44 kcal/mol
Non-thermal (ZPE) correction              0.03351366 Eh      21.03 kcal/mol
-----------------------------------------------------------------------
Total correction                          0.04058631 Eh      25.47 kcal/mol


--------
ENTHALPY
--------

The enthalpy is H = U + kB*T
                kB is Boltzmann's constant
Total thermal energy              ...   -713.30366188 Eh 
Thermal Enthalpy correction       ...      0.00094421 Eh       0.59 kcal/mol
-----------------------------------------------------------------------
Total Enthalpy                    ...   -713.30271767 Eh


Note: Only C1 symmetry has been detected, increase convergence thresholds 
      if your molecule has a higher symmetry. Symmetry factor of 1.0 is   
      used for the rotational entropy correction. 
 

Note: Rotational entropy computed according to Herzberg 
Infrared and Raman Spectra, Chapter V,1, Van Nostrand Reinhold, 1945 
Point Group:  C1, Symmetry Number:   1  
Rotational constants in cm-1:     0.083027     0.042769     0.033191 

Vibrational entropy computed according to the QRRHO of S. Grimme
Chem.Eur.J. 2012 18 9955 using a reference frequency of 100.0 cm-1


-------
ENTROPY
-------

The entropy contributions are T*S = T*(S(el)+S(vib)+S(rot)+S(trans))
     S(el)   - electronic entropy
     S(vib)  - vibrational entropy
     S(rot)  - rotational entropy
     S(trans)- translational entropy
The entropies will be listed as multiplied by the temperature to get
units of energy

Electronic entropy                ...      0.00000000 Eh      0.00 kcal/mol
Vibrational entropy               ...      0.00693904 Eh      4.35 kcal/mol
Rotational entropy                ...      0.01378134 Eh      8.65 kcal/mol
Translational entropy             ...      0.01944569 Eh     12.20 kcal/mol
-----------------------------------------------------------------------
Final entropy term                ...      0.04016607 Eh     25.20 kcal/mol

In case the symmetry of your molecule has not been determined correctly
or in case you have a reason to use a different symmetry number we print 
out the resulting rotational entropy values for sn=1,12:

 non-linear molecules -----------------------------------
|  sn= 1 | S(rot)=       0.01378134 Eh      8.65 kcal/mol|
|  sn= 2 | S(rot)=       0.01312688 Eh      8.24 kcal/mol|
|  sn= 3 | S(rot)=       0.01274405 Eh      8.00 kcal/mol|
|  sn= 4 | S(rot)=       0.01247243 Eh      7.83 kcal/mol|
|  sn= 5 | S(rot)=       0.01226174 Eh      7.69 kcal/mol|
|  sn= 6 | S(rot)=       0.01208960 Eh      7.59 kcal/mol|
|  sn= 7 | S(rot)=       0.01194405 Eh      7.49 kcal/mol|
|  sn= 8 | S(rot)=       0.01181797 Eh      7.42 kcal/mol|
|  sn= 9 | S(rot)=       0.01170676 Eh      7.35 kcal/mol|
|  sn=10 | S(rot)=       0.01160728 Eh      7.28 kcal/mol|
|  sn=11 | S(rot)=       0.01151729 Eh      7.23 kcal/mol|
|  sn=12 | S(rot)=       0.01143514 Eh      7.18 kcal/mol|
 linear molecules ---------------------------------------
|  Dinfh | S(rot)=       0.00854120 Eh      5.36 kcal/mol|
|  Cinfv | S(rot)=       0.00919566 Eh      5.77 kcal/mol|
 --------------------------------------------------------


-------------------
GIBBS FREE ENERGY
-------------------

The Gibbs free energy is G = H - T*S

Total enthalpy                    ...   -713.30271767 Eh 
Total entropy correction          ...     -0.04016607 Eh    -25.20 kcal/mol
-----------------------------------------------------------------------
Final Gibbs free energy         ...   -713.34288374 Eh

For completeness - the Gibbs free energy minus the electronic energy
G-E(el)                           ...      0.00136446 Eh      0.86 kcal/mol


Maximum memory used throughout the entire PROP-calculation: 48.0 MB

--------------------------------
SUGGESTED CITATIONS FOR THIS RUN
--------------------------------

Below you find a list of papers that are relevant to this ORCA run
We neither can nor want to force you to cite these papers, but we appreciate if you do
You receive ORCA, which is the product of decades of hard work by many enthusiastic individuals, for free
The only thing we kindly ask in return is that you cite our papers,
We deeply appreciate it, if you show your appreciation for ORCA by not just citing the generic ORCA reference.

Please note that relegating all ORCA citations to the supporting information does *not* help us.
SI sections are not indexed - citations you put there will not count into any citation statistics
But we need these citations in order to attract the funding resources that allow us to do what we are doing

Therefore, if you are a happy ORCA user, please consider citing a few of the papers listed below in the main body of your paper

In addition to the list printed below, the program has created the file censo.bibtex that contains the list in bibtex format
You can import this file easily into all common literature databanks and citation aid programs


List of essential papers. We consider these as the minimum necessary citations

  1. Neese,F.
     Software update: the ORCA program system, version 5.0
     WIRES Comput. Molec. Sci., 2022 12(1)e1606
     doi.org/10.1002/wcms.1606
  2. Grimme,S.; Hansen,A.; Ehlert,S.; Mewes,J.
     r2SCAN-3c: A 'Swiss army knife' composite electronic-structure method
     J. Chem. Phys., 2021 154 064103
     doi.org/10.1063/5.0040021

List of papers to cite with high priority. The work reported in these papers was absolutely
necessary for this run to complete.
Our perspective: the developers of density functionals and basis sets usually get cited in chemistry papers
Good! But without the algorithms to do something with them, the functionals or basis sets would not do anything.
Hence, in our opinion, the algorithm design and method developments papers are equally worthy of getting cited

  1. Neese,F.
     An improvement of the resolution of the identity approximation for the formation of the Coulomb matrix
     J. Comp. Chem., 2003 24(14)1740-1747
     doi.org/10.1002/jcc.10318
  2. Bykov,D.; Petrenko,T.; Izsak,R.; Kossmann,S.; Becker,U.; Valeev,E.; Neese,F.
     Efficient implementation of the analytic second derivatives of Hartree-Fock and hybrid DFT energies: a detailed analysis of different approximations
     Molec. Phys., 2015 113 1961-1977
     doi.org/10.1080/00268976.2015.1025114
  3. Neese,F.
     The SHARK Integral Generation and Digestion System
     J. Comp. Chem., 2022  1-16
     doi.org/10.1002/jcc.26942
  4. Lehtola,S.; Steigemann,C.; Oliveira,M.; Marques,M.
     Recent developments in Libxc - A comprehensive library of functionals for density functional theory
     Software X, 2018 7 
     doi.org/10.1016/j.softx.2017.11.002
  5. Caldeweyher,E.; Bannwarth,C.; Grimme,S.
     Extension of the D3 dispersion coefficient model
     J. Chem. Phys., 2017 147 034112-XXXX
     doi.org/10.1063/1.4993215
  6. Caldeweyher,E.; Ehlert,S.; Hansen,A.; Neugebauer,H.; Spicher,S.; Bannwarth,C.; Grimme,S.
     A generally applicable atomic-charge dependent London dispersion correction
     J. Chem. Phys., 2019 150 154122-XXXX
     doi.org/10.1063/1.5090222
  7. Caldeweyher,E.; Mewes,J.; Ehlert,S.; Grimme,S.
     Extension and evaluation of the D4 London-dispersion model for periodic systems
     Phys. Chem. Chem. Phys., 2020 22(16)8499-8512
     doi.org/10.1039/D0CP00502A

List of suggested additional citations. These are papers that are important in the 'surrounding' of 
of this run, or papers that preceded the highly important papers. If you like your results we are grateful for a citation.

  1. Neese,F.
     The ORCA program system
     WIRES Comput. Molec. Sci., 2012 2(1)73-78
     doi.org/10.1002/wcms.81
  2. Neese,F.
     Software update: the ORCA program system, version 4.0
     WIRES Comput. Molec. Sci., 2018 8(1)1-6
     doi.org/10.1002/wcms.1327
  3. Neese,F.; Wennmohs,F.; Becker,U.; Riplinger,C.
     The ORCA quantum chemistry program package
     J. Chem. Phys., 2020 152 Art. No. L224108
     doi.org/10.1063/5.0004608

List of optional additional citations

  1. Neese,F.
     Approximate second-order SCF convergence for spin unrestricted wavefunctions
     Chem. Phys. Lett., 2000 325(1-3)93-98
     doi.org/10.1016/s0009-2614(00)00662-x

Timings for individual modules:

Sum of individual times          ...      267.203 sec (=   4.453 min)
Startup calculation              ...        0.925 sec (=   0.015 min)   0.3 %
SCF iterations                   ...       20.784 sec (=   0.346 min)   7.8 %
Property integrals               ...      140.924 sec (=   2.349 min)  52.7 %
SCF Response                     ...       47.949 sec (=   0.799 min)  17.9 %
Property calculations            ...       56.621 sec (=   0.944 min)  21.2 %
                             ****ORCA TERMINATED NORMALLY****
TOTAL RUN TIME: 0 days 0 hours 4 minutes 27 seconds 869 msec
