
                                 *****************
                                 * O   R   C   A *
                                 *****************

                                            #,                                       
                                            ###                                      
                                            ####                                     
                                            #####                                    
                                            ######                                   
                                           ########,                                 
                                     ,,################,,,,,                         
                               ,,#################################,,                 
                          ,,##########################################,,             
                       ,#########################################, ''#####,          
                    ,#############################################,,   '####,        
                  ,##################################################,,,,####,       
                ,###########''''           ''''###############################       
              ,#####''   ,,,,##########,,,,          '''####'''          '####       
            ,##' ,,,,###########################,,,                        '##       
           ' ,,###''''                  '''############,,,                           
         ,,##''                                '''############,,,,        ,,,,,,###''
      ,#''                                            '''#######################'''  
     '                                                          ''''####''''         
             ,#######,   #######,   ,#######,      ##                                
            ,#'     '#,  ##    ##  ,#'     '#,    #''#        ,####,   ,####,        
            ##       ##  ##   ,#'  ##            #'  '#       #'       #'  '#        
            ##       ##  #######   ##           ,######,      #####,   #    #        
            '#,     ,#'  ##    ##  '#,     ,#' ,#      #,     #,   #   #,  ,#        
             '#######'   ##     ##  '#######'  #'      '#     '####' # '####'        



                #########################################################
                #                        -***-                          #
                #          Department of theory and spectroscopy        #
                #                                                       #
                #                      Frank Neese                      #
                #                                                       #
                #     Directorship, Architecture, Infrastructure        #
                #                    SHARK, DRIVERS                     #
                #        Core code/Algorithms in most modules           #
                #                                                       #
                #        Max Planck Institute fuer Kohlenforschung      #
                #                Kaiser Wilhelm Platz 1                 #
                #                 D-45470 Muelheim/Ruhr                 #
                #                      Germany                          #
                #                                                       #
                #                  All rights reserved                  #
                #                        -***-                          #
                #########################################################


                         Program Version 6.0.1  -  RELEASE   -


 With contributions from (in alphabetic order):
[Max-Planck-Institut fuer Kohlenforschung]                               
  Daniel Aravena         : Magnetic Suceptibility                        
  Michael Atanasov       : Ab Initio Ligand Field Theory (pilot matlab implementation)
  Alexander A. Auer      : GIAO ZORA, VPT2 properties, NMR spectrum      
  Ute Becker             : All parallelization in ORCA, NUMFREQ, NUMCALC 
  Giovanni Bistoni       : ED, misc. LED, open-shell LED, HFLD           
  Martin Brehm           : Molecular dynamics                            
  Dmytro Bykov           : pre 5.0 version of the SCF Hessian            
  Marcos Casanova-Páez   : Triplet and SCS-CIS(D). UHF-(DLPNO)-IP/EA/STEOM-CCSD. UHF-CVS-IP/STEOM-CCSD   
  Vijay G. Chilkuri      : MRCI spin determinant printing, contributions to CSF-ICE 
  Pauline Colinet        : FMM embedding                                 
  Dipayan Datta          : RHF DLPNO-CCSD density                        
  Achintya Kumar Dutta   : EOM-CC, STEOM-CC                              
  Nicolas Foglia         : Exact transition moments, OPA infrastructure, MCD improvements    
  Dmitry Ganyushin       : Spin-Orbit,Spin-Spin,Magnetic field MRCI      
  Miquel Garcia-Rates    : C-PCM and meta-GGA Hessian, CCSD/C-PCM, Gaussian charge scheme 
  Tiago L. C. Gouveia    : GS-ROHF, GS-ROCIS                             
  Yang Guo               : DLPNO-NEVPT2, F12-NEVPT2, CIM, IAO-localization        
  Andreas Hansen         : Spin unrestricted coupled pair/coupled cluster methods 
  Ingolf Harden          : AUTO-CI MPn and infrastructure                
  Benjamin Helmich-Paris : MC-RPA, TRAH-(SCF,CASSCF), AVAS, COSX integrals, SCF dyn. polar. 
  Lee Huntington         : MR-EOM, pCC                                   
  Robert Izsak           : Overlap fitted RIJCOSX, COSX-SCS-MP3, EOM     
  Riya Kayal             : Wick's Theorem for AUTO-CI, AUTO-CI UHF-CCSDT 
  Emily Kempfer          : AUTO-CI, RHF CISDT and CCSDT                  
  Christian Kollmar      : KDIIS, OOCD, Brueckner-CCSD(T), CCSD density, CASPT2, CASPT2-K, improved NEVPT2 
  Axel Koslowski         : Symmetry handling                             
  Simone Kossmann        : meta-GGA functionals, TD-DFT gradient, OOMP2, (MP2 Hessian; deprecated post 5.0) 
  Lucas Lang             : DCDCAS                                        
  Marvin Lechner         : AUTO-CI (C++ implementation), FIC-MRCC        
  Spencer Leger          : CASSCF response                               
  Dagmar Lenk            : GEPOL surface, SMD, ORCA-2-JSON               
  Dimitrios Liakos       : Extrapolation schemes; Compound Job, initial MDCI parallelization 
  Dimitrios Manganas     : Further ROCIS development; embedding schemes. LFT, Crystal Embedding 
  Dimitrios Pantazis     : SARC Basis sets                               
  Anastasios Papadopoulos: AUTO-CI, single reference methods and gradients 
  Taras Petrenko         : pre 6.0 DFT Hessian and TD-DFT gradient, (ASA, deprecated), ECA, 1-Electron XAS/XES, NRVS 
  Peter Pinski           : DLPNO-MP2, DLPNO-MP2 Gradient                 
  Christoph Reimann      : Effective Core Potentials                     
  Marius Retegan         : Local ZFS, SOC                                
  Christoph Riplinger    : Optimizer, TS searches, QM/MM, DLPNO-CCSD(T), (RO)-DLPNO pert. Triples 
  Michael Roemelt        : Original ROCIS implementation                 
  Masaaki Saitow         : Open-shell DLPNO-CCSD energy and density      
  Barbara Sandhoefer     : DKH picture change effects                    
  Kantharuban Sivalingam : CASSCF convergence/infrastructure, NEVPT2 and variants, FIC-MRCI 
  Bernardo de Souza      : ESD, SOC TD-DFT                               
  Georgi L. Stoychev     : AutoAux, RI-MP2 NMR, DLPNO-MP2 response, X2C  
  Van Anh Tran           : RI-MP2 g-tensors                              
  Willem Van den Heuvel  : Paramagnetic NMR                              
  Zikuan Wang            : NOTCH, Electric field optimization            
  Frank Wennmohs         : Technical directorship and infrastructure     
  Hang Xu                : AUTO-CI-Response properties                   
                                                                         
[FACCTs GmbH]                                                            
  Markus Bursch, Miquel Garcia-Rates, Christoph Riplinger, Bernardo de Souza, Georgi L. Stoychev 
                                                                 
  APM, Basis sets (HGBS, AHGBS, def-TZVP (Ac-Lr), def2-XVPD (La-Lu)), CI-OPT, improved COSX, DLPNO-Multilevel,           
  DOCKER, DRACO, updates on ESD, GOAT, IRC, LR-CPCM, MBIS, meta-GGA TD-DFT gradient, ML-optimized integration grids, 
  MM, NACMEs, nearIR, NEB, NEB-TS, NL-DFT gradient (VV10), 2- and 3-layer-ONIOM, interface openCOSMO-RS, QMMM,   
  Crystal-QMMM, SF, symmetry and pop. for TD-DFT, r2SCAN hybrids, SOLVATOR                                   
                                                                         
[Other institutions]                                                     
  V. Asgeirsson          : NEB                                           
  Christoph Bannwarth    : sTDA-DFT, sTD-DFT, PBEh-3c, B97-3c, D3        
  Sebastian Ehlert       : rSCAN, r2SCAN, r2SCAN-3c, D4, dhf basis sets  
  Marvin Friede          : D4 for Fr, Ra, Ac-Lr                          
  Lars Goerigk           : TD-DFT with DH, B97 family of functionals     
  Stefan Grimme          : VdW corrections, initial TS optimization, DFT functionals, gCP, sTDA/sTD-DF 
  Waldemar Hujo          : DFT-NL                                        
  H. Jonsson             : NEB                                           
  Holger Kruse           : gCP                                           
  Marcel Mueller         : wB97X-3c, vDZP basis set                      
  Hagen Neugebauer       : wr2SCAN                                       
  Tobias Risthaus        : range-separated hybrid DFT                    
  Lukas Wittmann         : regularized MP2, r2SCAN double-hybrids, wr2SCAN        
                                                                         
We gratefully acknowledge several colleagues who have allowed us to      
interface, adapt or use parts of their codes:                            
  Ed Valeev, F. Pavosevic, A. Kumar             : LibInt (2-el integral package), F12 methods 
  Garnet Chan, S. Sharma, J. Yang, R. Olivares  : DMRG                   
  Ulf Ekstrom                                   : XCFun DFT Library      
  Mihaly Kallay                                 : mrcc  (arbitrary order and MRCC methods)
  Frank Weinhold                                : gennbo (NPA and NBO analysis)           
  Simon Mueller                                 : openCOSMO-RS                            
  Christopher J. Cramer and Donald G. Truhlar   : smd solvation model                     
  S Lehtola, MJT Oliveira, MAL Marques          : LibXC Library                           
  Liviu Ungur et al                             : ANISO software                          


 Your calculation uses the libint2 library for the computation of 2-el integrals
 For citations please refer to: http://libint.valeyev.net

 Your ORCA version has been built with support for libXC version: 6.2.2
 For citations please refer to: https://libxc.gitlab.io

 This ORCA versions uses:
   CBLAS   interface :  Fast vector & matrix operations
   LAPACKE interface :  Fast linear algebra routines
   SCALAPACK package :  Parallel linear algebra routines
   Shared memory     :  Shared parallel matrices
   BLAS/LAPACK       :  OpenBLAS 0.3.27  USE64BITINT DYNAMIC_ARCH NO_AFFINITY Zen SINGLE_THREADED
        Core in use  :  Zen
   Copyright (c) 2011-2014, The OpenBLAS Project


Your calculation utilizes the geometrical counterpoise correction gCP
Please cite in your paper:
H.Kruse, S. Grimme J.Chem.Phys., 136, (2012), 154101 
   

Your calculation utilizes the atom-pairwise dispersion correction
based on EEQ partial charges (D4)


================================================================================

----- Orbital basis set information -----
Your calculation utilizes the basis: def2-mTZVPP
   Stefan Grimme, Andreas Hansen, Sebastian Ehlert, and Jan-Michael Mewes 
   J. Chem. Phys. 154, 064103 (2021). DOI: 10.1063/5.0040021

----- AuxJ basis set information -----
Your calculation utilizes the auxiliary basis: def2/J
   F. Weigend, Phys. Chem. Chem. Phys. 8, 1057 (2006).

================================================================================
                                        WARNINGS
                       Please study these warnings very carefully!
================================================================================



WARNING: SCAN, rSCAN, or r2SCAN functional requested.
  ===> : libXC variant has now been activated.



================================================================================
                                       INPUT FILE
================================================================================
NAME = sp.inp
|  1> ! r2scan-3c def2/J RI DEFGRID2 scfconv6 printgap
|  2> %output
|  3>     printlevel normal
|  4> end
|  5> * xyz 0 1
|  6> C -1.5913220181 0.938705964 0.0929005044
|  7> C -1.3089779511 -0.5573255596 -0.0027079476
|  8> C 0.0762648177 -0.9954813768 -0.3912674206
|  9> C 1.2671989061 -0.4402797934 -0.2181177331
| 10> C 1.6485577529 0.8482502735 0.4382203688
| 11> H -1.2187510505 1.4567873523 -0.7878058909
| 12> H -1.1445264201 1.3741478384 0.9822315585
| 13> H -2.6667592072 1.0989029777 0.1511824741
| 14> H -1.5507246223 -1.0260449817 0.9583237077
| 15> H -1.9962683024 -0.9852635144 -0.7385568434
| 16> H 0.0677192515 -1.9691958724 -0.869637066
| 17> H 2.1221921978 -1.00531771 -0.5727940272
| 18> H 2.5247832375 1.2670021584 -0.0541098695
| 19> H 1.9144999369 0.6613265681 1.4801457679
| 20> H 0.8548029067 1.5840827475 0.4159546386
| 21> *
| 22> 
| 23>                          ****END OF INPUT****
================================================================================

                       ****************************
                       * Single Point Calculation *
                       ****************************

---------------------------------
CARTESIAN COORDINATES (ANGSTROEM)
---------------------------------
  C     -1.591322    0.938706    0.092901
  C     -1.308978   -0.557326   -0.002708
  C      0.076265   -0.995481   -0.391267
  C      1.267199   -0.440280   -0.218118
  C      1.648558    0.848250    0.438220
  H     -1.218751    1.456787   -0.787806
  H     -1.144526    1.374148    0.982232
  H     -2.666759    1.098903    0.151182
  H     -1.550725   -1.026045    0.958324
  H     -1.996268   -0.985264   -0.738557
  H      0.067719   -1.969196   -0.869637
  H      2.122192   -1.005318   -0.572794
  H      2.524783    1.267002   -0.054110
  H      1.914500    0.661327    1.480146
  H      0.854803    1.584083    0.415955

----------------------------
CARTESIAN COORDINATES (A.U.)
----------------------------
  NO LB      ZA    FRAG     MASS         X           Y           Z
   0 C     6.0000    0    12.011   -3.007163    1.773897    0.175557
   1 C     6.0000    0    12.011   -2.473610   -1.053193   -0.005117
   2 C     6.0000    0    12.011    0.144120   -1.881187   -0.739388
   3 C     6.0000    0    12.011    2.394659   -0.832008   -0.412183
   4 C     6.0000    0    12.011    3.115323    1.602961    0.828116
   5 H     1.0000    0     1.008   -2.303106    2.752929   -1.488737
   6 H     1.0000    0     1.008   -2.162841    2.596763    1.856149
   7 H     1.0000    0     1.008   -5.039445    2.076626    0.285693
   8 H     1.0000    0     1.008   -2.930445   -1.938944    1.810969
   9 H     1.0000    0     1.008   -3.772400   -1.861878   -1.395670
  10 H     1.0000    0     1.008    0.127971   -3.721241   -1.643376
  11 H     1.0000    0     1.008    4.010362   -1.899775   -1.082424
  12 H     1.0000    0     1.008    4.771149    2.394287   -0.102253
  13 H     1.0000    0     1.008    3.617881    1.249726    2.797070
  14 H     1.0000    0     1.008    1.615343    2.993483    0.786040

--------------------------------
INTERNAL COORDINATES (ANGSTROEM)
--------------------------------
 C      0   0   0     0.000000000000     0.00000000     0.00000000
 C      1   0   0     1.525440745447     0.00000000     0.00000000
 C      2   1   0     1.503946978027   118.18985840     0.00000000
 C      3   2   1     1.325350374582   132.21076930    29.16017687
 C      4   3   2     1.495501256216   130.34677795   359.83934855
 H      1   2   3     1.087594228342   110.67171365    47.91320518
 H      1   2   3     1.086345090733   111.61014409   285.90181800
 H      1   2   3     1.088864095693   109.29604214   166.92346009
 H      2   1   3     1.096230446657   108.87880195   123.30238127
 H      2   1   3     1.094062392004   108.02825869   238.56577487
 H      3   2   1     1.084910348040   111.60100034   206.64280540
 H      4   3   2     1.084470677171   116.58006742   177.64942339
 H      5   4   3     1.088812795899   109.76341418   212.30058317
 H      5   4   3     1.091455108633   109.48339940    94.46905881
 H      5   4   3     1.082585769535   112.93181521   333.66330338

---------------------------
INTERNAL COORDINATES (A.U.)
---------------------------
 C      0   0   0     0.000000000000     0.00000000     0.00000000
 C      1   0   0     2.882665242419     0.00000000     0.00000000
 C      2   1   0     2.842047908410   118.18985840     0.00000000
 C      3   2   1     2.504549239450   132.21076930    29.16017687
 C      4   3   2     2.826087807183   130.34677795   359.83934855
 H      1   2   3     2.055255236400   110.67171365    47.91320518
 H      1   2   3     2.052894708415   111.61014409   285.90181800
 H      1   2   3     2.057654937920   109.29604214   166.92346009
 H      2   1   3     2.071575323849   108.87880195   123.30238127
 H      2   1   3     2.067478294311   108.02825869   238.56577487
 H      3   2   1     2.050183437652   111.60100034   206.64280540
 H      4   3   2     2.049352580122   116.58006742   177.64942339
 H      5   4   3     2.057557995359   109.76341418   212.30058317
 H      5   4   3     2.062551242785   109.48339940    94.46905881
 H      5   4   3     2.045790620902   112.93181521   333.66330338

---------------------
BASIS SET INFORMATION
---------------------
There are 2 groups of distinct atoms

 Group   1 Type C   : 11s6p1d contracted to 5s3p1d pattern {62111/411/1}
 Group   2 Type H   : 4s1p contracted to 2s1p pattern {31/1}

Atom   0C    basis set group =>   1
Atom   1C    basis set group =>   1
Atom   2C    basis set group =>   1
Atom   3C    basis set group =>   1
Atom   4C    basis set group =>   1
Atom   5H    basis set group =>   2
Atom   6H    basis set group =>   2
Atom   7H    basis set group =>   2
Atom   8H    basis set group =>   2
Atom   9H    basis set group =>   2
Atom  10H    basis set group =>   2
Atom  11H    basis set group =>   2
Atom  12H    basis set group =>   2
Atom  13H    basis set group =>   2
Atom  14H    basis set group =>   2
---------------------------------
AUXILIARY/J BASIS SET INFORMATION
---------------------------------
There are 2 groups of distinct atoms

 Group   1 Type C   : 12s5p4d2f1g contracted to 6s4p3d1f1g pattern {711111/2111/211/2/1}
 Group   2 Type H   : 5s2p1d contracted to 3s1p1d pattern {311/2/1}

Atom   0C    basis set group =>   1
Atom   1C    basis set group =>   1
Atom   2C    basis set group =>   1
Atom   3C    basis set group =>   1
Atom   4C    basis set group =>   1
Atom   5H    basis set group =>   2
Atom   6H    basis set group =>   2
Atom   7H    basis set group =>   2
Atom   8H    basis set group =>   2
Atom   9H    basis set group =>   2
Atom  10H    basis set group =>   2
Atom  11H    basis set group =>   2
Atom  12H    basis set group =>   2
Atom  13H    basis set group =>   2
Atom  14H    basis set group =>   2

Checking for AutoStart:
The File: sp.gbw exists
Trying to determine its content:
     ... Fine, the file contains calculation information
     ... Fine, the calculation information was read
     ... Fine, the file contains a basis set
     ... Fine, the basis set was read
     ... Fine, the file contains a geometry
     ... Fine, the geometry was read
     ... Fine, the file contains a set of orbitals
     ... Fine, the orbitals can be read
     => possible old guess file was deleted
     => GBW file was renamed to GES file
     => GES file is set as startup file
     => Guess is set to MORead
     ... now leaving AutoStart

------------------------------------------------------------------------------
                             ORCA STARTUP CALCULATIONS
                           -- RI-GTO INTEGRALS CHOSEN --
------------------------------------------------------------------------------
------------------------------------------------------------------------------
                   ___                                                        
                  /   \      - P O W E R E D   B Y -                         
                 /     \                                                     
                 |  |  |   _    _      __       _____    __    __             
                 |  |  |  | |  | |    /  \     |  _  \  |  |  /  |          
                  \  \/   | |  | |   /    \    | | | |  |  | /  /          
                 / \  \   | |__| |  /  /\  \   | |_| |  |  |/  /          
                |  |  |   |  __  | /  /__\  \  |    /   |      \           
                |  |  |   | |  | | |   __   |  |    \   |  |\   \          
                \     /   | |  | | |  |  |  |  | |\  \  |  | \   \       
                 \___/    |_|  |_| |__|  |__|  |_| \__\ |__|  \__/        
                                                                              
                      - O R C A' S   B I G   F R I E N D -                    
                                      &                                       
                       - I N T E G R A L  F E E D E R -                       
                                                                              
 v1 FN, 2020, v2 2021, v3 2022-2024                                           
------------------------------------------------------------------------------


----------------------
SHARK INTEGRAL PACKAGE
----------------------

Number of atoms                             ...     15
Number of basis functions                   ...    145
Number of shells                            ...     75
Maximum angular momentum                    ...      2
Integral batch strategy                     ... SHARK/LIBINT Hybrid
RI-J (if used) integral strategy            ... SPLIT-RIJ (Revised 2003 algorithm where possible)
Printlevel                                  ...      1
Contraction scheme used                     ... SEGMENTED contraction
Prescreening option                         ... SCHWARTZ
   Thresh                                   ... 1.000e-10
   Tcut                                     ... 1.000e-11
   Tpresel                                  ... 1.000e-11 
Coulomb Range Separation                    ... NOT USED
Exchange Range Separation                   ... NOT USED
Multipole approximations                    ... NOT USED
Finite Nucleus Model                        ... NOT USED
CABS basis                                  ... NOT available
Auxiliary Coulomb fitting basis             ... AVAILABLE
   # of basis functions in Aux-J            ...    355
   # of shells in Aux-J                     ...    125
   Maximum angular momentum in Aux-J        ...      4
Auxiliary J/K fitting basis                 ... NOT available
Auxiliary Correlation fitting basis         ... NOT available
Auxiliary 'external' fitting basis          ... NOT available

Checking pre-screening integrals            ... done (  0.0 sec) Dimension = 75
Check shell pair data                       ... done (  0.0 sec)
Shell pair information
Shell pair cut-off parameter TPreSel        ...   1.0e-11
Total number of shell pairs                 ...      2850
Shell pairs after pre-screening             ...      2716
Total number of primitive shell pairs       ...     10010
Primitive shell pairs kept                  ...      7131
          la=0 lb=0:    977 shell pairs
          la=1 lb=0:   1068 shell pairs
          la=1 lb=1:    310 shell pairs
          la=2 lb=0:    221 shell pairs
          la=2 lb=1:    125 shell pairs
          la=2 lb=2:     15 shell pairs

Calculating one electron integrals          ... done (  0.0 sec)
Calculating RI/J V-Matrix + Cholesky decomp.... done (  0.0 sec)
Calculating Nuclear repulsion               ... done (  0.0 sec) ENN=    174.434301342074 Eh

Diagonalization of the overlap matrix:
Smallest eigenvalue                        ... 1.881e-04
Time for diagonalization                   ...    0.002 sec
Threshold for overlap eigenvalues          ... 1.000e-07
Number of eigenvalues below threshold      ... 0
Time for construction of square roots      ...    0.005 sec
Total time needed                          ...    0.008 sec

-------------------
DFT GRID GENERATION
-------------------

General Integration Accuracy     IntAcc      ... 4.388
Radial Grid Type                 RadialGrid  ... OptM3 with GC (2021)
Angular Grid (max. ang.)         AngularGrid ... 4 (Lebedev-302)
Angular grid pruning method      GridPruning ... 4 (adaptive)
Weight generation scheme         WeightScheme... mBecke (2022)
Basis function cutoff            BFCut       ... 1.0000e-10
Integration weight cutoff        WCut        ... 1.0000e-14
Partially contracted basis set               ... off
Rotationally invariant grid construction     ... off
Angular grids for H and He will be reduced by one unit

Total number of grid points                  ...    62342
Total number of batches                      ...      982
Average number of points per batch           ...       63
Average number of grid points per atom       ...     4156
Initializing property integral containers    ... done (  0.0 sec)

SHARK setup successfully completed in   0.5 seconds

Maximum memory used throughout the entire STARTUP-calculation: 26.2 MB
-------------------------------------------------------------------------------
                                 ORCA GUESS
                   Start orbitals & Density for SCF / CASSCF
-------------------------------------------------------------------------------

------------
SCF SETTINGS
------------
Hamiltonian:
 Density Functional     Method          .... DFT(GTOs)
  Functional kind                       .... Exchange
  Functional name                       .... Re-regularized SCAN exchange by Furness et al
  Functional family                     .... MGGA
  Functional refs                              
    [ 0] J. W. Furness, A. D. Kaplan, J. Ning, J. P. Perdew, and J. Sun.,  J. Phys. Chem. Lett. 11, 8208-8215 (2020), doi: 10.1021/acs.jpclett.0c02405
    [ 1] J. W. Furness, A. D. Kaplan, J. Ning, J. P. Perdew, and J. Sun.,  J. Phys. Chem. Lett. 11, 9248-9248 (2020), doi: 10.1021/acs.jpclett.0c03077
  Functional external parameters        .... 6
    Parameter  0 _c1        =  6.670000e-01 : c1 parameter        
    Parameter  1 _c2        =  8.000000e-01 : c2 parameter        
    Parameter  2 _d         =  1.240000e+00 : d parameter         
    Parameter  3 _k1        =  6.500000e-02 : k1 parameter        
    Parameter  4 _eta       =  1.000000e-03 : eta parameter       
    Parameter  5 _dp2       =  3.610000e-01 : dp2 parameter       
  Functional kind                       .... Correlation
  Functional name                       .... Re-regularized SCAN correlation by Furness et al
  Functional family                     .... MGGA
  Functional refs                              
    [ 0] J. W. Furness, A. D. Kaplan, J. Ning, J. P. Perdew, and J. Sun.,  J. Phys. Chem. Lett. 11, 8208-8215 (2020), doi: 10.1021/acs.jpclett.0c02405
    [ 1] J. W. Furness, A. D. Kaplan, J. Ning, J. P. Perdew, and J. Sun.,  J. Phys. Chem. Lett. 11, 9248-9248 (2020), doi: 10.1021/acs.jpclett.0c03077
  Functional external parameters        .... 1
    Parameter  0 _eta       =  1.000000e-03 : Regularization parameter
 Gradients option       PostSCFGGA      .... off
 RI-approximation to the Coulomb term is turned on
   Number of AuxJ basis functions       .... 355


General Settings:
 Integral files         IntName         .... sp
 Hartree-Fock type      HFTyp           .... RHF
 Total Charge           Charge          ....    0
 Multiplicity           Mult            ....    1
 Number of Electrons    NEL             ....   40
 Basis Dimension        Dim             ....  145
 Nuclear Repulsion      ENuc            ....    174.4343013421 Eh

Convergence Acceleration:
 AO-DIIS                CNVDIIS         .... on
   Start iteration      DIISMaxIt       ....    12
   Startup error        DIISStart       ....  0.200000
   # of expansion vecs  DIISMaxEq       ....     5
   Bias factor          DIISBfac        ....   1.050
   Max. coefficient     DIISMaxC        ....  10.000
 MO-DIIS                CNVKDIIS        .... off
 Trust-Rad. Augm. Hess. CNVTRAH         .... auto
   Auto Start mean grad. ratio tolernc. ....  1.125000
   Auto Start start iteration           ....     1
   Auto Start num. interpolation iter.  ....    10
   Max. Number of Micro iterations      ....    24
   Max. Number of Macro iterations      .... Maxiter - #DIIS iter
   Number of Davidson start vectors     ....     2
   Converg. threshold    (grad. norm)   ....   3.330e-04
   Grad. Scal. Fac. for Micro threshold ....   0.100
   Minimum threshold for Micro iter.    ....   1.000e-02
   NR start threshold (gradient norm)   ....   1.000e-04
   Initial trust radius                 ....   0.400
   Minimum AH scaling param. (alpha)    ....   1.000
   Maximum AH scaling param. (alpha)    .... 1000.000
   Quad. conv. algorithm                .... NR
   White noise on init. David. guess    .... on
   Maximum white noise                  ....   0.010
   Pseudo random numbers                .... off
   Inactive MOs                         .... canonical
   Orbital update algorithm             .... Taylor
   Preconditioner                       .... Diag
   Full preconditioner red. dimension   ....   250
   COSX micro iterations for RIJONX calc.... off
 SOSCF                  CNVSOSCF        .... on
   Start iteration      SOSCFMaxIt      ....   150
   Startup grad/error   SOSCFStart      ....  0.003300
   Hessian update       SOSCFHessUp     .... L-BFGS
 Level Shifting         CNVShift        .... on
   Level shift para.    LevelShift      ....    0.2500
   Turn off err/grad.   ShiftErr        ....    0.0010
 Zerner damping         CNVZerner       .... off
 Static damping         CNVDamp         .... on
   Fraction old density DampFac         ....    0.7000
   Max. Damping (<1)    DampMax         ....    0.9800
   Min. Damping (>=0)   DampMin         ....    0.0000
   Turn off err/grad.   DampErr         ....    0.1000

SCF Procedure:
 Maximum # iterations   MaxIter         ....   125
 SCF integral mode      SCFMode         .... Direct
   Integral package                     .... SHARK and LIBINT hybrid scheme
 Reset frequency        DirectResetFreq ....    20
 Integral Threshold     Thresh          ....  1.000e-10 Eh
 Primitive CutOff       TCut            ....  1.000e-11 Eh

Convergence Tolerance:
 Convergence Check Mode ConvCheckMode   .... Total+1el-Energy
 Convergence forced     ConvForced      .... 0
 Energy Change          TolE            ....  1.000e-06 Eh
 1-El. energy change                    ....  1.000e-03 Eh
 Orbital Gradient       TolG            ....  3.330e-04
 Orbital Rotation angle TolX            ....  3.330e-04
 DIIS Error             TolErr          ....  1.000e-06

---------------------
INITIAL GUESS: MOREAD
---------------------
Guess MOs are being read from file: sp.ges
Input Geometry matches current geometry (good)
Atom 0: N(Shells)= 9 and 6 - projection required
Input basis set needs projection
NBasis(read)= 90
NBasis(calc)= 145
Basis set overlap was calculated
Using GuessMode=FMatrix for the initial guess
C*T matrix was formed
Effective Fockian was calculated
Effective Fockian was diagonalized
Initial density was built
                      ------------------
                      INITIAL GUESS DONE (   0.0 sec)
                      ------------------
             **** ENERGY FILE WAS UPDATED (sp.en.tmp) ****
Finished Guess after   0.1 sec
Maximum memory used throughout the entire GUESS-calculation: 10.5 MB

-------------------------------------------------------------------------------------------
                                      ORCA LEAN-SCF
                              memory conserving SCF solver
-------------------------------------------------------------------------------------------

----------------------------------------D-I-I-S--------------------------------------------
Iteration    Energy (Eh)           Delta-E    RMSDP     MaxDP     DIISErr   Damp  Time(sec)
-------------------------------------------------------------------------------------------
               ***  Starting incremental Fock matrix formation  ***
    1    -196.3559838818515288     0.00e+00  3.94e-03  1.18e-01  2.81e-01  0.700   0.9
    2    -196.3858644209666693    -2.99e-02  3.19e-03  7.09e-02  1.98e-01  0.700   0.8
                               ***Turning on AO-DIIS***
    3    -196.4070307600782996    -2.12e-02  2.37e-03  5.14e-02  1.38e-01  0.700   1.0
    4    -196.4218989899386827    -1.49e-02  1.70e-03  3.65e-02  9.69e-02  0.700   0.8
    5    -196.4323319296450165    -1.04e-02  4.03e-03  8.58e-02  6.78e-02  0.000   1.0
                              *** Initializing SOSCF ***
---------------------------------------S-O-S-C-F--------------------------------------
Iteration    Energy (Eh)           Delta-E    RMSDP     MaxDP     MaxGrad    Time(sec)
--------------------------------------------------------------------------------------
    6    -196.4567658414254936    -2.44e-02  5.55e-05  1.30e-03  2.24e-04     0.8
               *** Restarting incremental Fock matrix formation ***
    7    -196.4567664475809750    -6.06e-07  2.34e-05  3.53e-04  7.09e-05     0.9
                  *** Gradient check signals convergence ***

               *****************************************************
               *                     SUCCESS                       *
               *           SCF CONVERGED AFTER   7 CYCLES          *
               *****************************************************

             **** ENERGY FILE WAS UPDATED (sp.en.tmp) ****

----------------
TOTAL SCF ENERGY
----------------

Total Energy       :       -196.45676644758097 Eh           -5345.86039 eV

Components:
Nuclear Repulsion  :        174.43430134207367 Eh            4746.59865 eV
Electronic Energy  :       -370.89106778965470 Eh          -10092.45905 eV
One Electron Energy:       -608.06224802829399 Eh          -16546.21496 eV
Two Electron Energy:        237.17118023863932 Eh            6453.75592 eV

Virial components:
Potential Energy   :       -392.01914966931690 Eh          -10667.38338 eV
Kinetic Energy     :        195.56238322173590 Eh            5321.52299 eV
Virial Ratio       :          2.00457339091041

DFT components:
N(Alpha)           :       19.999985657107 electrons
N(Beta)            :       19.999985657107 electrons
N(Total)           :       39.999971314215 electrons
E(X)               :      -29.561195579780 Eh       
E(C)               :       -1.225329755372 Eh       
E(XC)              :      -30.786525335152 Eh       

---------------
SCF CONVERGENCE
---------------

  Last Energy change         ...    6.0616e-07  Tolerance :   1.0000e-06
  Last MAX-Density change    ...    3.5262e-04  Tolerance :   1.0000e-05
  Last RMS-Density change    ...    2.3396e-05  Tolerance :   1.0000e-06
  Last DIIS Error            ...    2.2372e-04  Tolerance :   1.0000e-06
  Last Orbital Gradient      ...    7.0917e-05  Tolerance :   3.3300e-04
  Last Orbital Rotation      ...    1.6653e-04  Tolerance :   3.3300e-04


----------------
ORBITAL ENERGIES
----------------

  NO   OCC          E(Eh)            E(eV) 
   0   2.0000     -10.030725      -272.9499 
   1   2.0000     -10.023051      -272.7411 
   2   2.0000     -10.020694      -272.6770 
   3   2.0000     -10.019690      -272.6496 
   4   2.0000     -10.018169      -272.6082 
   5   2.0000      -0.768898       -20.9228 
   6   2.0000      -0.715749       -19.4765 
   7   2.0000      -0.654734       -17.8162 
   8   2.0000      -0.585248       -15.9254 
   9   2.0000      -0.486350       -13.2343 
  10   2.0000      -0.442185       -12.0325 
  11   2.0000      -0.414073       -11.2675 
  12   2.0000      -0.387415       -10.5421 
  13   2.0000      -0.378560       -10.3011 
  14   2.0000      -0.357999        -9.7416 
  15   2.0000      -0.350691        -9.5428 
  16   2.0000      -0.327052        -8.8995 
  17   2.0000      -0.301367        -8.2006 
  18   2.0000      -0.284783        -7.7494 
  19   2.0000      -0.217119        -5.9081 
  20   0.0000       0.000761         0.0207 
  21   0.0000       0.084446         2.2979 
  22   0.0000       0.118847         3.2340 
  23   0.0000       0.129295         3.5183 
  24   0.0000       0.138077         3.7573 
  25   0.0000       0.146318         3.9815 
  26   0.0000       0.147305         4.0084 
  27   0.0000       0.164122         4.4660 
  28   0.0000       0.177292         4.8244 
  29   0.0000       0.186020         5.0619 
  30   0.0000       0.191739         5.2175 
*Only the first 10 virtual orbitals were printed.

                    ********************************
                    * MULLIKEN POPULATION ANALYSIS *
                    ********************************

-----------------------
MULLIKEN ATOMIC CHARGES
-----------------------
   0 C :   -0.505374
   1 C :   -0.201850
   2 C :   -0.183349
   3 C :   -0.115652
   4 C :   -0.479007
   5 H :    0.160372
   6 H :    0.144171
   7 H :    0.144223
   8 H :    0.148547
   9 H :    0.136345
  10 H :    0.145766
  11 H :    0.146211
  12 H :    0.143177
  13 H :    0.157405
  14 H :    0.159015
Sum of atomic charges:   -0.0000000

--------------------------------
MULLIKEN REDUCED ORBITAL CHARGES
--------------------------------
  0 C s       :     3.337643  s :     3.337643
      pz      :     1.084782  p :     3.140688
      px      :     1.117513
      py      :     0.938393
      dz2     :     0.004967  d :     0.027043
      dxz     :     0.002658
      dyz     :     0.007321
      dx2y2   :     0.007827
      dxy     :     0.004271

  1 C s       :     3.206283  s :     3.206283
      pz      :     1.062142  p :     2.957608
      px      :     0.970241
      py      :     0.925226
      dz2     :     0.005420  d :     0.037958
      dxz     :     0.007315
      dyz     :     0.007422
      dx2y2   :     0.009341
      dxy     :     0.008460

  2 C s       :     3.196644  s :     3.196644
      pz      :     1.004946  p :     2.949254
      px      :     0.882659
      py      :     1.061649
      dz2     :     0.002828  d :     0.037451
      dxz     :     0.008962
      dyz     :     0.003176
      dx2y2   :     0.013346
      dxy     :     0.009139

  3 C s       :     3.158941  s :     3.158941
      pz      :     0.989458  p :     2.918837
      px      :     1.007016
      py      :     0.922362
      dz2     :     0.003894  d :     0.037874
      dxz     :     0.006834
      dyz     :     0.004910
      dx2y2   :     0.009762
      dxy     :     0.012474

  4 C s       :     3.326105  s :     3.326105
      pz      :     1.052270  p :     3.125282
      px      :     1.092832
      py      :     0.980180
      dz2     :     0.006853  d :     0.027620
      dxz     :     0.003628
      dyz     :     0.004889
      dx2y2   :     0.004387
      dxy     :     0.007863

  5 H s       :     0.821442  s :     0.821442
      pz      :     0.008410  p :     0.018186
      px      :     0.004515
      py      :     0.005261

  6 H s       :     0.837293  s :     0.837293
      pz      :     0.008584  p :     0.018536
      px      :     0.005119
      py      :     0.004834

  7 H s       :     0.837520  s :     0.837520
      pz      :     0.003766  p :     0.018257
      px      :     0.010700
      py      :     0.003790

  8 H s       :     0.833435  s :     0.833435
      pz      :     0.009188  p :     0.018018
      px      :     0.003976
      py      :     0.004854

  9 H s       :     0.845817  s :     0.845817
      pz      :     0.006862  p :     0.017838
      px      :     0.006417
      py      :     0.004559

 10 H s       :     0.834972  s :     0.834972
      pz      :     0.005818  p :     0.019262
      px      :     0.003209
      py      :     0.010236

 11 H s       :     0.834545  s :     0.834545
      pz      :     0.005082  p :     0.019243
      px      :     0.008278
      py      :     0.005883

 12 H s       :     0.838567  s :     0.838567
      pz      :     0.005144  p :     0.018256
      px      :     0.008420
      py      :     0.004693

 13 H s       :     0.824220  s :     0.824220
      pz      :     0.010305  p :     0.018375
      px      :     0.004229
      py      :     0.003841

 14 H s       :     0.821910  s :     0.821910
      pz      :     0.003778  p :     0.019075
      px      :     0.008156
      py      :     0.007141


------------------------
MULLIKEN OVERLAP CHARGES
------------------------
B(  0-C ,  1-C ) :   0.4694 B(  0-C ,  2-C ) :  -0.1245 B(  0-C ,  5-H ) :   0.8739 
B(  0-C ,  6-H ) :   0.8109 B(  0-C ,  7-H ) :   0.8082 B(  0-C ,  8-H ) :  -0.0524 
B(  0-C ,  9-H ) :  -0.1051 B(  1-C ,  2-C ) :   0.4884 B(  1-C ,  3-C ) :  -0.1312 
B(  1-C ,  5-H ) :  -0.1239 B(  1-C ,  6-H ) :  -0.0546 B(  1-C ,  7-H ) :  -0.0815 
B(  1-C ,  8-H ) :   0.8222 B(  1-C ,  9-H ) :   0.8977 B(  1-C , 10-H ) :  -0.0625 
B(  2-C ,  3-C ) :   1.1972 B(  2-C ,  4-C ) :  -0.1171 B(  2-C ,  8-H ) :  -0.0791 
B(  2-C ,  9-H ) :  -0.1031 B(  2-C , 10-H ) :   0.7880 B(  3-C ,  4-C ) :   0.4829 
B(  3-C , 11-H ) :   0.7884 B(  3-C , 12-H ) :  -0.0782 B(  3-C , 13-H ) :  -0.0921 
B(  3-C , 14-H ) :  -0.1343 B(  4-C , 11-H ) :  -0.0563 B(  4-C , 12-H ) :   0.8172 
B(  4-C , 13-H ) :   0.8436 B(  4-C , 14-H ) :   0.8753 B(  5-H ,  6-H ) :  -0.0503 
B(  8-H ,  9-H ) :  -0.0557 


                     *******************************
                     * LOEWDIN POPULATION ANALYSIS *
                     *******************************

----------------------
LOEWDIN ATOMIC CHARGES
----------------------
   0 C :   -0.425475
   1 C :   -0.305268
   2 C :   -0.214091
   3 C :   -0.215187
   4 C :   -0.414173
   5 H :    0.153657
   6 H :    0.148742
   7 H :    0.150804
   8 H :    0.164456
   9 H :    0.157147
  10 H :    0.162281
  11 H :    0.159962
  12 H :    0.155603
  13 H :    0.162053
  14 H :    0.159490

-------------------------------
LOEWDIN REDUCED ORBITAL CHARGES
-------------------------------
  0 C s       :     2.972658  s :     2.972658
      pz      :     1.155742  p :     3.389670
      px      :     1.156218
      py      :     1.077710
      dz2     :     0.012331  d :     0.063147
      dxz     :     0.006974
      dyz     :     0.016361
      dx2y2   :     0.018718
      dxy     :     0.008763

  1 C s       :     2.927887  s :     2.927887
      pz      :     1.134419  p :     3.296157
      px      :     1.081268
      py      :     1.080469
      dz2     :     0.012841  d :     0.081225
      dxz     :     0.016186
      dyz     :     0.015162
      dx2y2   :     0.020045
      dxy     :     0.016991

  2 C s       :     2.926098  s :     2.926098
      pz      :     1.020021  p :     3.207222
      px      :     1.101742
      py      :     1.085458
      dz2     :     0.005288  d :     0.080772
      dxz     :     0.016832
      dyz     :     0.006824
      dx2y2   :     0.031231
      dxy     :     0.020596

  3 C s       :     2.925595  s :     2.925595
      pz      :     1.016671  p :     3.208247
      px      :     1.126058
      py      :     1.065518
      dz2     :     0.007008  d :     0.081346
      dxz     :     0.013918
      dyz     :     0.009295
      dx2y2   :     0.022261
      dxy     :     0.028864

  4 C s       :     2.960853  s :     2.960853
      pz      :     1.139206  p :     3.389069
      px      :     1.147697
      py      :     1.102166
      dz2     :     0.016788  d :     0.064250
      dxz     :     0.008514
      dyz     :     0.010596
      dx2y2   :     0.009504
      dxy     :     0.018849

  5 H s       :     0.802863  s :     0.802863
      pz      :     0.020916  p :     0.043480
      px      :     0.010277
      py      :     0.012287

  6 H s       :     0.807248  s :     0.807248
      pz      :     0.021011  p :     0.044010
      px      :     0.011734
      py      :     0.011265

  7 H s       :     0.805969  s :     0.805969
      pz      :     0.008152  p :     0.043227
      px      :     0.026592
      py      :     0.008483

  8 H s       :     0.792394  s :     0.792394
      pz      :     0.022695  p :     0.043150
      px      :     0.009053
      py      :     0.011402

  9 H s       :     0.800354  s :     0.800354
      pz      :     0.016742  p :     0.042499
      px      :     0.015058
      py      :     0.010698

 10 H s       :     0.793235  s :     0.793235
      pz      :     0.013192  p :     0.044485
      px      :     0.007110
      py      :     0.024183

 11 H s       :     0.795618  s :     0.795618
      pz      :     0.011429  p :     0.044419
      px      :     0.019232
      py      :     0.013758

 12 H s       :     0.801374  s :     0.801374
      pz      :     0.012078  p :     0.043023
      px      :     0.020324
      py      :     0.010621

 13 H s       :     0.794406  s :     0.794406
      pz      :     0.025541  p :     0.043542
      px      :     0.009328
      py      :     0.008672

 14 H s       :     0.795204  s :     0.795204
      pz      :     0.008263  p :     0.045306
      px      :     0.019811
      py      :     0.017231


---------------------------------
LOEWDIN BOND ORDERS (THRESH 0.050000)
---------------------------------
B(  0-C ,  1-C ) :   1.1392 B(  0-C ,  2-C ) :   0.0587 B(  0-C ,  5-H ) :   0.9286 
B(  0-C ,  6-H ) :   0.9287 B(  0-C ,  7-H ) :   0.9277 B(  1-C ,  2-C ) :   1.1274 
B(  1-C ,  3-C ) :   0.0860 B(  1-C ,  8-H ) :   0.8787 B(  1-C ,  9-H ) :   0.8894 
B(  2-C ,  3-C ) :   1.9975 B(  2-C ,  4-C ) :   0.0886 B(  2-C , 10-H ) :   0.8701 
B(  2-C , 11-H ) :   0.0678 B(  3-C ,  4-C ) :   1.1558 B(  3-C , 10-H ) :   0.0666 
B(  3-C , 11-H ) :   0.8761 B(  4-C , 12-H ) :   0.9226 B(  4-C , 13-H ) :   0.9120 
B(  4-C , 14-H ) :   0.9164 

------------------------------------------
LOEWDIN REDUCED ORBITAL POPULATIONS PER MO
-------------------------------------------
THRESHOLD FOR PRINTING IS 0.1%%
                      0         1         2         3         4         5   
                 -10.03072 -10.02305 -10.02069 -10.01969 -10.01817  -0.76890
                   2.00000   2.00000   2.00000   2.00000   2.00000   2.00000
                  --------  --------  --------  --------  --------  --------
 0 C  s               0.0       0.0       0.0       0.0      99.7       7.8
 0 C  px              0.0       0.0       0.0       0.0       0.0       0.3
 0 C  py              0.1       0.0       0.0       0.0       0.0       1.8
 1 C  s              99.7       0.0       0.0       0.0       0.0      17.6
 1 C  px              0.0       0.0       0.1       0.0       0.0       1.5
 1 C  py              0.0       0.0       0.0       0.0       0.1       0.1
 2 C  s               0.0       2.8      96.8       0.0       0.0      22.0
 2 C  pz              0.0       0.0       0.0       0.0       0.0       0.3
 2 C  px              0.1       0.1       0.0       0.0       0.0       0.1
 2 C  py              0.0       0.0       0.0       0.0       0.0       1.2
 2 C  dz2             0.0       0.0       0.0       0.0       0.0       0.1
 2 C  dx2y2           0.0       0.0       0.0       0.0       0.0       0.1
 3 C  s               0.0      96.7       2.8       0.1       0.0      18.0
 3 C  px              0.0       0.0       0.1       0.0       0.0       2.0
 4 C  s               0.0       0.1       0.0      99.6       0.0       7.4
 4 C  pz              0.0       0.0       0.0       0.0       0.0       0.3
 4 C  px              0.0       0.0       0.0       0.0       0.0       0.3
 4 C  py              0.0       0.1       0.0       0.0       0.0       1.3
 5 H  s               0.0       0.0       0.0       0.0       0.0       1.0
 6 H  s               0.0       0.0       0.0       0.0       0.0       1.1
 7 H  s               0.0       0.0       0.0       0.0       0.0       1.0
 8 H  s               0.0       0.0       0.0       0.0       0.0       2.3
 8 H  pz              0.0       0.0       0.0       0.0       0.0       0.2
 9 H  s               0.0       0.0       0.0       0.0       0.0       2.4
10 H  s               0.0       0.0       0.0       0.0       0.0       2.7
10 H  py              0.0       0.0       0.0       0.0       0.0       0.2
11 H  s               0.0       0.0       0.0       0.0       0.0       2.2
11 H  px              0.0       0.0       0.0       0.0       0.0       0.1
12 H  s               0.0       0.0       0.0       0.0       0.0       0.9
13 H  s               0.0       0.0       0.0       0.0       0.0       1.0
14 H  s               0.0       0.0       0.0       0.0       0.0       1.2

                      6         7         8         9        10        11   
                  -0.71575  -0.65473  -0.58525  -0.48635  -0.44219  -0.41407
                   2.00000   2.00000   2.00000   2.00000   2.00000   2.00000
                  --------  --------  --------  --------  --------  --------
 0 C  s              15.2      12.2      11.7       0.4       0.3       0.0
 0 C  pz              0.0       0.0       0.0       0.0       1.7      25.6
 0 C  px              0.0       0.0       0.2       1.4       5.7       0.8
 0 C  py              1.2       0.5       5.6       5.2       1.1       0.3
 0 C  dxz             0.0       0.0       0.0       0.0       0.0       0.1
 1 C  s              13.6       0.1      10.7       3.1       0.2       0.1
 1 C  pz              0.0       0.4       0.0       1.4       5.9      26.2
 1 C  px              0.9       3.1       0.1       9.7       3.4       0.1
 1 C  py              1.5       5.4       7.2       0.1       2.1       1.8
 1 C  dx2y2           0.1       0.2       0.1       0.0       0.0       0.0
 2 C  s               0.2      14.3       0.1       7.4       0.4       0.1
 2 C  pz              0.0       0.1       0.2       0.6       7.1       1.1
 2 C  px              9.9       0.2      13.9       1.4       0.3       1.0
 2 C  py              0.1       0.7       0.1       1.5      18.5       6.0
 2 C  dx2y2           0.0       0.0       0.0       0.1       0.0       0.0
 2 C  dxy             0.1       0.0       0.1       0.0       0.0       0.0
 3 C  s              13.1       0.8       5.5       7.6       0.5       0.2
 3 C  pz              0.3       1.7       1.0       0.1       2.0       0.2
 3 C  px              0.7       5.2       0.3      13.0       9.1       0.1
 3 C  py              1.2       8.6       3.1       0.1       3.6       3.4
 3 C  dx2y2           0.0       0.2       0.0       0.0       0.0       0.0
 3 C  dxy             0.0       0.0       0.0       0.1       0.0       0.0
 4 C  s              15.8      17.1       5.2       1.4       0.3       0.1
 4 C  pz              0.2       0.1       0.6       2.5       0.0       2.7
 4 C  px              0.0       0.1       0.4       0.7      10.2       0.6
 4 C  py              0.9       0.6       1.6       9.7       0.6       0.5
 4 C  dyz             0.0       0.0       0.0       0.1       0.0       0.0
 4 C  dx2y2           0.0       0.0       0.0       0.1       0.0       0.0
 5 H  s               2.4       2.8       4.4       1.5       0.6       5.5
 5 H  pz              0.1       0.2       0.2       0.1       0.0       0.0
 5 H  py              0.1       0.0       0.0       0.0       0.0       0.2
 6 H  s               2.4       3.2       4.3       1.2       0.3       6.4
 6 H  pz              0.1       0.2       0.2       0.1       0.0       0.0
 6 H  px              0.0       0.0       0.1       0.0       0.0       0.1
 7 H  s               2.8       3.0       4.2       0.0       2.8       0.7
 7 H  pz              0.0       0.0       0.0       0.0       0.0       0.1
 7 H  px              0.2       0.2       0.3       0.0       0.1       0.0
 8 H  s               2.3       0.0       4.3       3.6       0.8       8.7
 8 H  pz              0.2       0.0       0.3       0.2       0.0       0.1
 9 H  s               2.5       0.0       4.6       2.6       2.7       3.2
 9 H  pz              0.1       0.0       0.2       0.1       0.0       0.0
 9 H  px              0.1       0.0       0.2       0.0       0.0       0.1
 9 H  py              0.0       0.0       0.0       0.0       0.0       0.1
10 H  s               0.0       3.8       0.0       5.6      10.2       1.6
10 H  py              0.0       0.3       0.0       0.2       0.3       0.0
11 H  s               2.3       0.2       2.3       9.6       3.3       0.1
11 H  px              0.1       0.0       0.2       0.2       0.1       0.0
11 H  py              0.1       0.0       0.0       0.2       0.0       0.0
12 H  s               2.8       4.3       2.0       0.4       3.7       0.1
12 H  px              0.2       0.2       0.1       0.0       0.0       0.0
13 H  s               2.7       4.1       2.0       1.2       0.6       1.2
13 H  pz              0.2       0.3       0.1       0.0       0.0       0.0
14 H  s               2.3       4.5       1.4       4.6       0.5       0.0
14 H  px              0.1       0.2       0.1       0.1       0.0       0.0
14 H  py              0.1       0.1       0.0       0.0       0.1       0.0

                     12        13        14        15        16        17   
                  -0.38741  -0.37856  -0.35800  -0.35069  -0.32705  -0.30137
                   2.00000   2.00000   2.00000   2.00000   2.00000   2.00000
                  --------  --------  --------  --------  --------  --------
 0 C  s               0.1       0.1       0.2       0.1       0.1       0.2
 0 C  pz              0.7       0.9       0.9       0.0      22.8       4.6
 0 C  px             17.2       0.1       6.9      15.9       0.0       1.9
 0 C  py              2.9       0.8      12.4       0.3       8.1      12.5
 0 C  dz2             0.1       0.0       0.0       0.1       0.0       0.2
 0 C  dxz             0.0       0.0       0.0       0.0       0.1       0.1
 0 C  dyz             0.0       0.0       0.0       0.0       0.6       0.1
 0 C  dx2y2           0.0       0.0       0.3       0.1       0.0       0.0
 0 C  dxy             0.0       0.0       0.0       0.1       0.0       0.1
 1 C  s               0.0       0.0       0.5       0.1       0.1       0.1
 1 C  pz              0.4       0.4       0.3       0.6      11.0       5.9
 1 C  px             14.0       2.5       0.2       3.6       0.0       2.8
 1 C  py              0.2       0.1      16.1       0.3       7.6      10.1
 1 C  dxz             0.1       0.0       0.0       0.1       0.0       0.2
 1 C  dyz             0.0       0.0       0.0       0.0       0.6       0.1
 1 C  dx2y2           0.0       0.0       0.1       0.1       0.0       0.2
 1 C  dxy             0.0       0.0       0.0       0.2       0.0       0.4
 2 C  s               0.0       0.0       0.0       1.7       0.1       0.1
 2 C  pz              0.0       1.4       0.0       1.3       5.3       0.3
 2 C  px             11.2       2.2       3.3       0.4       1.1       2.4
 2 C  py              0.2       0.1       1.1       2.6       0.0       7.4
 2 C  dxz             0.1       0.0       0.0       0.0       0.0       0.0
 2 C  dx2y2           0.0       0.0       0.0       0.0       0.1       0.4
 2 C  dxy             0.2       0.0       0.1       0.0       0.0       0.1
 3 C  s               0.1       0.0       0.4       0.1       0.0       0.2
 3 C  pz              0.4       9.1       2.3       0.5       0.0       0.3
 3 C  px             11.2       0.9       0.6       3.8       0.3       4.8
 3 C  py              1.2       0.3      10.8       3.2       2.0       1.1
 3 C  dx2y2           0.0       0.0       0.2       0.0       0.0       0.2
 3 C  dxy             0.0       0.0       0.0       0.3       0.0       0.0
 4 C  s               0.1       0.0       0.2       0.1       0.0       0.2
 4 C  pz              8.9      26.6       4.7       5.3       0.0       0.3
 4 C  px              4.4       1.2      13.9      17.1       0.3       7.5
 4 C  py              1.0      21.2       5.5       1.2       1.9       0.3
 4 C  dz2             0.0       0.2       0.1       0.0       0.0       0.0
 4 C  dxz             0.1       0.1       0.0       0.0       0.0       0.0
 4 C  dyz             0.0       0.0       0.1       0.0       0.0       0.0
 4 C  dx2y2           0.0       0.1       0.1       0.0       0.0       0.0
 4 C  dxy             0.0       0.0       0.0       0.5       0.0       0.1
 5 H  s               1.4       0.9       0.0       1.2      16.7       0.0
 5 H  px              0.0       0.0       0.0       0.1       0.1       0.0
 5 H  py              0.0       0.0       0.1       0.0       0.0       0.1
 6 H  s               4.2       0.0       0.7       2.3       5.3       8.7
 6 H  pz              0.2       0.0       0.0       0.1       0.0       0.1
 6 H  py              0.0       0.0       0.1       0.0       0.2       0.0
 7 H  s               5.7       0.0       5.0       8.3       0.0       0.9
 7 H  pz              0.0       0.0       0.0       0.0       0.2       0.0
 7 H  px              0.1       0.0       0.1       0.1       0.0       0.0
 7 H  py              0.1       0.0       0.1       0.0       0.1       0.1
 8 H  s               0.0       0.4       0.2       0.1      11.5       0.1
 8 H  pz              0.0       0.0       0.0       0.0       0.1       0.0
 8 H  px              0.1       0.0       0.0       0.0       0.0       0.0
 8 H  py              0.0       0.0       0.1       0.0       0.0       0.1
 9 H  s               2.8       0.2       1.3       2.9       1.0      12.0
10 H  s               0.1       0.0       0.5       0.4       1.1       6.2
11 H  s               2.4       0.0       0.8       5.3       0.1       0.5
11 H  py              0.1       0.0       0.0       0.0       0.0       0.0
12 H  s               2.4       5.2       4.3       9.0       0.4       2.7
12 H  pz              0.0       0.0       0.2       0.0       0.0       0.1
12 H  px              0.0       0.3       0.0       0.1       0.0       0.0
12 H  py              0.1       0.0       0.0       0.1       0.0       0.0
13 H  s               2.9      15.7       3.2       0.4       0.0       0.5
13 H  pz              0.0       0.3       0.0       0.0       0.0       0.0
13 H  px              0.1       0.0       0.1       0.2       0.0       0.1
14 H  s               1.6       7.7       0.8       9.0       0.1       1.9
14 H  pz              0.1       0.2       0.0       0.1       0.0       0.0
14 H  px              0.1       0.2       0.0       0.0       0.0       0.0
14 H  py              0.1       0.0       0.1       0.1       0.0       0.1

                     18        19        20        21        22        23   
                  -0.28478  -0.21712   0.00076   0.08445   0.11885   0.12929
                   2.00000   2.00000   0.00000   0.00000   0.00000   0.00000
                  --------  --------  --------  --------  --------  --------
 0 C  s               0.1       0.1       0.9      12.4       5.0      12.8
 0 C  pz              0.4       0.0       0.1       0.1       0.2       1.9
 0 C  px              7.2       0.1       0.1       0.1       1.0      10.8
 0 C  py              0.6       0.6       0.4       0.8      13.8       1.6
 0 C  dz2             0.1       0.0       0.0       0.0       0.1       0.3
 0 C  dxz             0.0       0.0       0.0       0.0       0.0       0.2
 0 C  dyz             0.0       0.1       0.0       0.0       0.0       0.2
 0 C  dx2y2           0.2       0.0       0.0       0.4       0.4       0.0
 0 C  dxy             0.1       0.0       0.0       0.0       0.2       0.0
 1 C  s               0.4       0.0       0.1      11.6       6.8       2.7
 1 C  pz              1.7       2.5       0.1       0.4       0.1       0.6
 1 C  px             12.1       0.1       0.0       0.5       3.9       2.2
 1 C  py              0.9       0.4       0.6       1.2       4.7       3.0
 1 C  dz2             0.0       0.2       0.5       0.0       0.1       0.5
 1 C  dxz             0.0       0.4       0.8       0.2       0.3       0.1
 1 C  dyz             0.0       0.1       0.0       0.0       0.0       0.2
 1 C  dx2y2           0.2       0.0       0.0       0.3       0.3       0.1
 1 C  dxy             0.1       0.0       0.1       0.2       0.4       0.0
 2 C  s               0.1       0.0       0.1       8.1       5.5       0.2
 2 C  pz              2.4      30.9      31.1       1.0       0.8       0.2
 2 C  px              7.2       0.4       0.4       0.1       0.6       1.2
 2 C  py              7.4       7.4       8.0       1.3       7.1       1.0
 2 C  dz2             0.0       0.0       0.1       0.2       0.0       0.0
 2 C  dxz             0.1       0.4       0.7       0.0       0.0       0.0
 2 C  dyz             0.1       0.0       0.1       0.1       0.2       0.1
 2 C  dx2y2           0.7       0.0       0.0       1.3       0.0       0.1
 2 C  dxy             0.2       0.1       0.2       0.0       0.0       0.2
 3 C  s               0.1       0.0       0.0       8.8       0.2       4.0
 3 C  pz              2.2      30.8      31.6       0.1       0.1       1.3
 3 C  px              4.2       0.2       0.3       1.3       1.6       6.3
 3 C  py              6.2       8.2       8.3       1.2       0.8       0.6
 3 C  dxz             0.2       0.3       0.8       0.2       0.1       0.0
 3 C  dyz             0.0       0.1       0.1       0.1       0.1       0.0
 3 C  dx2y2           0.3       0.0       0.1       0.3       0.0       0.1
 3 C  dxy             0.7       0.1       0.1       0.4       0.4       0.7
 4 C  s               0.3       0.0       0.0      16.5       9.0       6.6
 4 C  pz              2.4       2.2       0.0       0.2       0.4       2.6
 4 C  px              0.8       0.0       0.1       0.3       2.1       9.6
 4 C  py              7.9       0.6       0.0       0.2       6.3       0.0
 4 C  dz2             0.0       0.4       1.1       0.0       0.0       0.0
 4 C  dxz             0.0       0.1       0.2       0.0       0.1       0.1
 4 C  dyz             0.0       0.1       0.2       0.1       0.0       0.2
 4 C  dx2y2           0.0       0.0       0.1       0.2       0.0       0.1
 4 C  dxy             0.2       0.0       0.0       0.0       0.5       0.0
 5 H  s               1.6       0.2       0.1       1.2       1.6       0.2
 5 H  pz              0.0       0.0       0.0       0.6       0.3       0.7
 5 H  px              0.0       0.0       0.0       0.2       0.2       0.1
 5 H  py              0.0       0.0       0.0       0.0       0.6       0.0
 6 H  s               0.2       0.1       0.0       2.1       0.7       7.1
 6 H  pz              0.0       0.0       0.0       0.7       0.3       2.0
 6 H  px              0.0       0.0       0.0       0.5       0.1       0.2
 6 H  py              0.0       0.0       0.0       0.0       0.6       0.3
 7 H  s               5.7       0.1       0.0       2.1       0.3       0.8
 7 H  px              0.0       0.0       0.0       1.0       0.0       1.0
 8 H  s               1.2       4.1       3.5       1.1       0.8       2.6
 8 H  pz              0.0       0.0       0.2       0.8       0.5       0.9
 8 H  px              0.1       0.0       0.1       0.0       0.1       0.0
 8 H  py              0.0       0.0       0.0       0.0       0.3       0.0
 9 H  s               0.3       1.5       0.7       3.3       3.2       0.7
 9 H  pz              0.0       0.0       0.0       0.7       1.0       0.5
 9 H  px              0.1       0.0       0.0       0.7       0.1       0.1
 9 H  py              0.0       0.0       0.0       0.0       0.6       0.2
10 H  s               7.5       0.0       0.0       2.4       2.1       0.7
10 H  pz              0.0       0.3       0.9       0.1       0.4       0.1
10 H  px              0.1       0.0       0.0       0.0       0.0       0.1
10 H  py              0.0       0.1       0.3       0.8       0.9       0.2
11 H  s              10.8       0.0       0.0       2.2       1.4       2.3
11 H  pz              0.0       0.3       1.0       0.1       0.1       0.0
11 H  px              0.0       0.0       0.0       0.9       0.0       0.9
11 H  py              0.0       0.1       0.2       0.1       0.3       0.4
12 H  s               0.4       1.4       0.7       3.0       0.9       1.1
12 H  pz              0.0       0.0       0.0       0.4       0.1       0.2
12 H  px              0.0       0.0       0.0       0.7       0.1       0.7
12 H  py              0.1       0.0       0.0       0.0       0.0       0.2
13 H  s               0.1       4.0       3.4       1.4       1.6       1.9
13 H  pz              0.0       0.0       0.2       0.7       0.5       0.4
13 H  px              0.0       0.0       0.0       0.0       0.3       0.1
13 H  py              0.1       0.0       0.1       0.1       0.1       0.1
14 H  s               3.4       0.6       0.9       1.0       4.5       0.1
14 H  pz              0.0       0.0       0.0       0.0       0.1       0.2
14 H  px              0.1       0.0       0.0       0.8       1.0       0.1
14 H  py              0.0       0.0       0.0       0.1       1.2       0.0

                     24        25        26        27        28        29   
                   0.13808   0.14632   0.14730   0.16412   0.17729   0.18602
                   0.00000   0.00000   0.00000   0.00000   0.00000   0.00000
                  --------  --------  --------  --------  --------  --------
 0 C  s               1.6       2.3       0.6       0.1       0.7       0.3
 0 C  pz              0.3       6.5       4.0       5.1       1.9       1.4
 0 C  px              0.9       4.0       0.4       3.5       3.9       4.0
 0 C  py             12.6       0.2      12.3       0.8       1.9       4.4
 0 C  dz2             0.2       0.1       0.7       0.9       1.4       0.0
 0 C  dxz             0.1       0.5       0.1       0.1       0.1       0.1
 0 C  dyz             0.0       0.6       0.3       0.1       0.6       0.3
 0 C  dx2y2           0.9       0.3       0.2       0.2       0.5       0.8
 0 C  dxy             0.3       0.0       0.4       0.0       0.6       0.1
 1 C  s               9.9       0.4       2.1       0.2       0.6       0.4
 1 C  pz              0.5       1.8       7.7       1.2       1.1       5.8
 1 C  px              6.9       9.2       0.8       6.9       3.0       3.2
 1 C  py             10.4       0.1       2.5       1.5       2.5       5.4
 1 C  dz2             0.3       0.2       0.0       0.6       0.1       0.0
 1 C  dxz             0.4       0.0       0.3       0.0       0.1       0.7
 1 C  dyz             0.0       0.4       0.4       0.0       0.3       0.7
 1 C  dx2y2           0.3       0.3       0.0       0.1       0.7       0.1
 1 C  dxy             0.1       0.1       0.4       0.2       0.6       0.1
 2 C  s               1.4       1.7       3.1       4.5       2.1       4.2
 2 C  pz              0.3       0.7       5.3       1.3       2.9       1.5
 2 C  px              3.1       0.1       0.3       0.5       2.4       0.3
 2 C  py              0.5       3.0       5.9       1.3       0.8       9.5
 2 C  dz2             0.0       0.0       0.1       0.1       0.1       0.0
 2 C  dxz             0.2       0.0       0.0       0.1       0.1       0.2
 2 C  dyz             0.4       0.0       0.6       0.4       0.1       0.3
 2 C  dx2y2           0.0       0.0       0.0       0.5       0.4       0.5
 2 C  dxy             0.3       0.1       0.0       0.0       0.5       0.0
 3 C  s               5.5       4.2       4.5       6.1       1.0       1.5
 3 C  pz              1.7       0.3       0.6       0.2       4.5       0.3
 3 C  px              3.8       0.2       4.0       2.2       0.6       2.2
 3 C  py              4.3       1.3       0.5       1.6       2.3       5.2
 3 C  dz2             0.0       0.2       0.0       0.3       0.0       0.2
 3 C  dxz             0.1       0.0       0.0       0.0       0.5       0.0
 3 C  dyz             0.6       0.1       0.2       0.6       0.1       0.1
 3 C  dx2y2           0.1       0.0       0.0       0.9       0.4       0.2
 3 C  dxy             0.0       0.1       0.1       0.0       0.5       0.0
 4 C  s               1.8       3.8       0.2       0.4       1.5       4.1
 4 C  pz              0.2      16.7       0.1       6.9       5.8       1.4
 4 C  px              3.0       0.7       1.7       1.9       0.8       4.4
 4 C  py              5.9      10.1      11.5       2.0       5.3       0.7
 4 C  dz2             0.0       0.1       0.0       1.5       0.2       0.0
 4 C  dxz             0.3       0.1       0.4       0.2       0.1       0.4
 4 C  dyz             0.3       0.4       0.3       0.3       0.5       0.1
 4 C  dx2y2           0.5       0.2       0.6       0.2       0.1       0.1
 4 C  dxy             0.1       0.7       0.0       0.1       1.3       0.5
 5 H  s               0.8       4.6       0.4       6.3       9.1       0.2
 5 H  pz              0.0       0.3       0.0       1.6       1.6       0.0
 5 H  px              0.4       1.3       0.1       0.0       0.0       0.0
 5 H  py              0.3       0.4       0.7       0.2       0.3       0.1
 6 H  s               0.2       4.1       4.1       0.3       0.3       0.0
 6 H  pz              0.0       0.5       0.6       0.1       0.6       0.0
 6 H  px              0.0       0.1       0.2       1.0       0.4       0.1
 6 H  py              0.3       0.3       0.0       0.3       0.1       0.6
 7 H  s               0.2       3.3       0.6       3.5       7.0       3.0
 7 H  pz              0.1       0.5       0.1       0.2       0.1       0.1
 7 H  px              0.0       1.2       0.1       0.6       0.7       1.0
 7 H  py              0.9       0.1       0.4       0.0       0.4       0.0
 8 H  s               1.1       1.5       1.9       1.5       1.5       5.3
 8 H  pz              0.4       0.1       0.5       0.4       0.1       0.8
 8 H  px              0.4       0.1       0.1       0.1       0.1       0.7
 8 H  py              0.8       0.1       0.5       0.0       0.6       0.5
 9 H  s               1.2       0.7       2.6       0.2       0.0       4.1
 9 H  pz              0.0       0.0       0.2       0.2       0.0       0.2
 9 H  px              0.1       0.7       0.1       0.6       0.1       0.2
 9 H  py              0.4       0.2       0.3       0.1       0.0       0.4
10 H  s               1.3       0.4       5.8       3.4       0.6       0.5
10 H  pz              0.2       0.1       0.5       0.0       0.0       0.0
10 H  px              0.7       0.0       0.0       0.0       0.3       0.0
10 H  py              0.2       0.2       1.7       0.1       0.0       0.7
11 H  s               2.4       0.3       0.6       3.3       5.0       0.9
11 H  pz              0.6       0.0       0.1       0.1       0.1       0.0
11 H  px              0.3       0.1       0.3       0.6       0.8       0.8
11 H  py              1.0       0.2       0.1       0.0       0.0       0.1
12 H  s               2.3       2.3       2.1       0.6       0.9       8.5
12 H  pz              0.2       0.0       0.4       0.3       0.1       0.5
12 H  px              0.0       0.4       0.2       0.8       0.1       1.2
12 H  py              0.0       0.6       0.1       0.2       0.5       0.8
13 H  s               0.1       1.0       0.0       9.0       4.9       0.5
13 H  pz              0.1       0.5       0.0       1.2       0.9       0.5
13 H  px              0.3       0.1       0.2       0.0       0.5       0.2
13 H  py              0.1       0.2       0.2       0.1       0.9       0.0
14 H  s               1.4       0.9       0.1       5.5       4.1       1.5
14 H  pz              0.0       0.6       0.1       0.6       0.6       0.0
14 H  px              0.0       0.0       0.0       1.0       0.9       0.0
14 H  py              0.6       0.1       0.6       0.1       0.2       0.3

                     30        31        32        33        34        35   
                   0.19174   0.20652   0.21859   0.22642   0.23147   0.24338
                   0.00000   0.00000   0.00000   0.00000   0.00000   0.00000
                  --------  --------  --------  --------  --------  --------
 0 C  s               0.3       0.2       0.5       5.2       1.7       2.5
 0 C  pz             23.7       0.2      12.8       7.9       1.5      18.8
 0 C  px              9.7       2.7       4.4       0.4      12.2       2.1
 0 C  py              2.3       4.0       3.9       2.9       8.0      10.0
 0 C  dz2             0.4       0.0       0.0       0.5       0.1       0.1
 0 C  dxz             1.1       0.0       0.1       0.5       0.0       0.6
 0 C  dyz             0.0       0.1       0.5       0.2       0.3       0.1
 0 C  dx2y2           0.0       0.6       0.3       0.0       1.2       0.0
 0 C  dxy             0.2       0.0       0.3       0.0       0.0       0.1
 1 C  s               0.5       0.6       1.4       0.2       2.6       0.3
 1 C  pz             11.0       1.7       1.9       0.9       2.4       0.3
 1 C  px              2.8       1.9       0.6       9.2       1.0       2.1
 1 C  py              1.9       4.6       3.9       0.6       9.0       9.6
 1 C  dz2             0.0       0.1       0.5       0.2       0.0       1.1
 1 C  dxz             0.3       0.1       0.0       0.0       0.1       0.4
 1 C  dyz             0.0       0.1       0.4       0.0       0.5       0.0
 1 C  dx2y2           0.0       1.1       0.1       0.8       0.2       0.4
 1 C  dxy             0.2       0.0       0.0       0.0       0.0       0.2
 2 C  s               0.6       3.1       0.6       3.8       1.2       1.9
 2 C  pz              2.1       0.7       0.9       0.4       0.9       4.3
 2 C  px              0.6       0.3       0.8       7.6       2.7       1.9
 2 C  py              0.3       1.4       3.0       1.1       0.0       3.0
 2 C  dz2             0.4       0.2       0.1       0.4       0.1       0.3
 2 C  dyz             0.1       0.1       0.3       0.0       0.0       0.0
 2 C  dx2y2           0.0       0.5       0.0       0.1       0.0       0.0
 2 C  dxy             0.0       0.0       0.0       0.2       0.0       0.7
 3 C  s               0.3       0.1       0.1       2.1       0.4       0.7
 3 C  pz              0.1       6.3       1.0       3.1       2.0       2.9
 3 C  px              1.2       0.9       0.3       0.7       1.0       1.2
 3 C  py              0.1       2.9       0.3       1.3       6.3       0.1
 3 C  dz2             0.0       0.4       0.0       0.1       0.0       0.0
 3 C  dxz             0.2       0.0       0.0       0.0       0.0       0.0
 3 C  dx2y2           0.2       0.1       0.0       0.0       0.1       0.0
 3 C  dxy             0.3       0.0       0.0       0.0       0.1       0.7
 4 C  s               0.1       0.0       0.0       0.1       0.5       0.1
 4 C  pz              0.9      21.8       9.6       0.3       1.2       1.5
 4 C  px              3.8       5.9      22.7      20.3       4.9       1.9
 4 C  py              2.4       7.4       1.1       8.9       3.1       3.1
 4 C  dz2             0.4       0.2       0.1       0.4       0.1       0.2
 4 C  dxz             0.0       0.6       0.0       0.1       0.8       0.0
 4 C  dyz             0.0       0.1       0.0       0.0       0.4       0.1
 4 C  dx2y2           0.0       0.1       0.0       0.4       0.2       0.0
 4 C  dxy             1.2       0.1       0.0       0.4       0.0       0.5
 5 H  s               0.4       0.5       3.7       5.7       0.2       1.1
 5 H  pz              0.7       0.1       0.1       1.0       0.0       0.7
 5 H  px              0.2       0.4       0.2       0.1       0.2       0.1
 5 H  py              0.0       0.0       0.0       0.0       0.8       0.1
 6 H  s               5.8       0.6       0.5       0.8       1.4       3.5
 6 H  pz              0.3       0.2       0.6       0.6       0.0       0.1
 6 H  px              0.4       0.3       0.4       0.2       0.1       0.1
 6 H  py              0.0       0.0       0.0       0.2       0.0       0.0
 7 H  s               2.4       2.7       0.7       0.0       8.1       0.7
 7 H  pz              1.0       0.0       0.1       0.6       0.0       0.6
 7 H  px              0.9       0.3       0.0       0.0       3.4       0.1
 7 H  py              0.3       0.0       0.4       0.0       0.0       0.1
 8 H  s               1.2       0.0       6.8       0.1       0.8       1.7
 8 H  pz              0.4       0.2       1.2       0.1       0.2       1.0
 8 H  px              0.6       0.0       0.0       0.2       0.0       0.1
 8 H  py              0.1       0.5       0.5       0.0       0.1       0.5
 9 H  s               1.3       4.3       0.4       0.2       5.8       5.6
 9 H  pz              0.4       0.5       0.6       0.2       0.5       1.4
 9 H  px              0.2       1.3       0.0       1.0       0.7       0.2
 9 H  py              0.0       0.0       0.2       0.1       0.5       0.0
10 H  s               0.6       0.6       2.4       1.0       0.3       0.2
10 H  pz              0.0       0.0       0.4       0.0       0.0       0.0
10 H  px              0.0       0.0       0.0       0.2       0.2       0.5
10 H  py              0.0       0.2       0.5       0.3       0.3       0.0
11 H  s               0.5       0.6       0.0       0.1       1.2       1.7
11 H  px              0.0       0.4       0.1       0.0       0.2       0.0
11 H  py              0.1       0.0       0.1       0.0       0.4       0.3
12 H  s               1.4       4.9       2.3       0.1       4.9       1.1
12 H  pz              0.3       0.2       0.0       0.2       1.0       0.0
12 H  px              0.0       1.0       1.3       0.5       0.4       0.0
12 H  py              0.8       0.1       0.3       0.2       0.0       0.2
13 H  s               2.0       4.2       1.8       0.3       0.1       1.2
13 H  pz              0.5       2.1       0.7       0.0       0.0       0.5
13 H  px              0.1       0.7       0.0       0.7       0.6       0.0
13 H  py              0.0       0.0       0.1       0.1       0.3       0.0
14 H  s               6.0       0.6       0.3       2.8       0.2       1.9
14 H  pz              0.1       0.2       0.0       0.1       0.0       0.1
14 H  px              0.7       1.0       0.2       0.1       0.2       0.1
14 H  py              0.6       0.0       0.1       0.1       0.0       0.6

                     36        37        38        39        40        41   
                   0.25679   0.25882   0.26955   0.28033   0.29245   0.31277
                   0.00000   0.00000   0.00000   0.00000   0.00000   0.00000
                  --------  --------  --------  --------  --------  --------
 0 C  s               0.7       0.5       1.2       0.2       0.5       0.5
 0 C  pz              9.1       4.8       1.1       0.4       5.0       0.7
 0 C  px              0.9       7.5       0.6       0.1       0.8      10.0
 0 C  py              0.6       4.6       4.5       0.2       1.3       0.8
[...]
                   3.63223   3.76835  21.61848  21.91170  21.94877  21.99227
                   0.00000   0.00000   0.00000   0.00000   0.00000   0.00000
                  --------  --------  --------  --------  --------  --------
 0 C  s               0.0       0.0       0.7      53.5       8.3      36.7
 0 C  pz              2.6       0.0       0.0       0.0       0.0       0.0
 0 C  px              1.9       0.0       0.0       0.0       0.0       0.0
 0 C  py              0.2       0.0       0.0       0.0       0.0       0.0
 0 C  dz2             2.7       0.0       0.0       0.0       0.0       0.0
 0 C  dxz             2.8       0.0       0.0       0.0       0.0       0.0
 0 C  dyz             4.3       0.1       0.0       0.0       0.0       0.0
 0 C  dx2y2           1.8       0.0       0.0       0.0       0.0       0.0
 0 C  dxy             0.5       0.1       0.0       0.0       0.0       0.0
 1 C  s               0.1       0.3       5.2      19.8      14.6      58.7
 1 C  pz              6.5       0.0       0.0       0.0       0.0       0.0
 1 C  px              0.1       2.6       0.0       0.0       0.0       0.0
 1 C  py              0.0       0.1       0.0       0.0       0.0       0.0
 1 C  dz2             2.8       0.1       0.0       0.0       0.0       0.0
 1 C  dxz             5.0       2.5       0.0       0.0       0.0       0.0
 1 C  dyz             7.2       0.1       0.0       0.0       0.0       0.0
 1 C  dx2y2           0.9       0.6       0.0       0.0       0.0       0.0
 1 C  dxy             0.0       2.9       0.0       0.0       0.0       0.0
 2 C  s               0.5       0.4      46.5       1.1       0.8       0.6
 2 C  pz              0.0       1.0       0.0       0.0       0.0       0.0
 2 C  px              0.1       0.4       0.0       0.0       0.0       0.0
 2 C  py              0.1       3.3       0.0       0.0       0.0       0.0
 2 C  dz2             0.4       0.5       0.0       0.0       0.0       0.0
 2 C  dxz             0.0       0.7       0.0       0.0       0.0       0.0
 2 C  dyz             0.1       3.0       0.0       0.0       0.0       0.0
 2 C  dx2y2           0.5      16.2       0.0       0.0       0.0       0.0
 2 C  dxy             0.0       0.3       0.0       0.0       0.0       0.0
 3 C  s               0.3       0.3      44.6       6.1       0.2       2.0
 3 C  pz              0.0       0.6       0.0       0.0       0.0       0.0
 3 C  px              0.2       2.1       0.0       0.0       0.0       0.0
 3 C  py              0.1       1.4       0.0       0.0       0.0       0.0
 3 C  dz2             0.1       0.0       0.0       0.0       0.0       0.0
 3 C  dxz             0.2       3.8       0.0       0.0       0.0       0.0
 3 C  dyz             0.2       0.3       0.0       0.0       0.0       0.0
 3 C  dx2y2           0.0       2.8       0.0       0.0       0.0       0.0
 3 C  dxy             0.7      12.1       0.0       0.0       0.0       0.0
 4 C  s               0.1       0.2       2.8      19.2      75.7       1.8
 4 C  pz              0.2       0.0       0.0       0.0       0.0       0.0
 4 C  px              0.8       0.0       0.0       0.0       0.0       0.0
 4 C  py              0.0       2.0       0.0       0.0       0.0       0.0
 4 C  dz2             0.7       0.4       0.0       0.0       0.0       0.0
 4 C  dxz             0.0       0.2       0.0       0.0       0.0       0.0
 4 C  dyz             0.4       1.2       0.0       0.0       0.0       0.0
 4 C  dx2y2           0.5       2.8       0.0       0.0       0.0       0.0
 4 C  dxy             0.6       0.1       0.0       0.0       0.0       0.0
 5 H  s               4.2       0.0       0.0       0.0       0.0       0.0
 5 H  pz              6.8       0.1       0.0       0.0       0.0       0.0
 5 H  px              0.5       0.0       0.0       0.0       0.0       0.0
 5 H  py              3.1       0.0       0.0       0.0       0.0       0.0
 6 H  s               0.4       0.0       0.0       0.0       0.0       0.0
 6 H  pz              0.5       0.0       0.0       0.0       0.0       0.0
 6 H  px              0.3       0.0       0.0       0.0       0.0       0.0
 6 H  py              0.4       0.0       0.0       0.0       0.0       0.0
 7 H  s               1.7       0.0       0.0       0.0       0.0       0.0
 7 H  px              3.6       0.0       0.0       0.0       0.0       0.0
 7 H  py              0.2       0.0       0.0       0.0       0.0       0.0
 8 H  s               5.0       0.0       0.0       0.0       0.0       0.0
 8 H  pz              8.5       0.0       0.0       0.0       0.0       0.0
 8 H  px              0.9       0.2       0.0       0.0       0.0       0.0
 8 H  py              3.3       0.0       0.0       0.0       0.0       0.0
 9 H  s               3.2       0.9       0.0       0.0       0.0       0.0
 9 H  pz              2.3       1.7       0.0       0.0       0.0       0.0
 9 H  px              3.1       0.1       0.0       0.0       0.0       0.0
 9 H  py              1.5       0.4       0.0       0.0       0.0       0.0
10 H  s               0.0       4.5       0.0       0.0       0.0       0.0
10 H  pz              0.0       1.8       0.0       0.0       0.0       0.0
10 H  py              0.0       8.0       0.0       0.0       0.0       0.0
11 H  s               0.1       4.2       0.0       0.0       0.0       0.0
11 H  pz              0.0       1.1       0.0       0.0       0.0       0.0
11 H  px              0.1       4.9       0.0       0.0       0.0       0.0
11 H  py              0.0       3.2       0.0       0.0       0.0       0.0
12 H  s               0.2       0.4       0.0       0.0       0.0       0.0
12 H  pz              0.4       0.7       0.0       0.0       0.0       0.0
12 H  px              0.2       0.3       0.0       0.0       0.0       0.0
13 H  s               0.3       0.1       0.0       0.0       0.0       0.0
13 H  pz              0.8       0.0       0.0       0.0       0.0       0.0
14 H  s               0.4       0.3       0.0       0.0       0.0       0.0
14 H  px              0.7       0.2       0.0       0.0       0.0       0.0
14 H  py              0.2       0.5       0.0       0.0       0.0       0.0

                    144   
                  22.26602
                   0.00000
                  --------
 0 C  s               0.6
 1 C  s               1.5
 2 C  s              50.6
 2 C  px              0.1
 3 C  s              46.7
 4 C  s               0.1


                      *****************************
                      * MAYER POPULATION ANALYSIS *
                      *****************************

  NA   - Mulliken gross atomic population
  ZA   - Total nuclear charge
  QA   - Mulliken gross atomic charge
  VA   - Mayer's total valence
  BVA  - Mayer's bonded valence
  FA   - Mayer's free valence

  ATOM       NA         ZA         QA         VA         BVA        FA
  0 C      6.5054     6.0000    -0.5054     3.8244     3.8244     0.0000
  1 C      6.2018     6.0000    -0.2018     3.6562     3.6562    -0.0000
  2 C      6.1833     6.0000    -0.1833     3.7958     3.7958     0.0000
  3 C      6.1157     6.0000    -0.1157     3.7099     3.7099     0.0000
  4 C      6.4790     6.0000    -0.4790     3.8300     3.8300    -0.0000
  5 H      0.8396     1.0000     0.1604     0.9561     0.9561     0.0000
  6 H      0.8558     1.0000     0.1442     0.9595     0.9595    -0.0000
  7 H      0.8558     1.0000     0.1442     0.9630     0.9630    -0.0000
  8 H      0.8515     1.0000     0.1485     0.9556     0.9556     0.0000
  9 H      0.8637     1.0000     0.1363     0.9614     0.9614    -0.0000
 10 H      0.8542     1.0000     0.1458     0.9654     0.9654     0.0000
 11 H      0.8538     1.0000     0.1462     0.9655     0.9655    -0.0000
 12 H      0.8568     1.0000     0.1432     0.9625     0.9625    -0.0000
 13 H      0.8426     1.0000     0.1574     0.9573     0.9573    -0.0000
 14 H      0.8410     1.0000     0.1590     0.9636     0.9636     0.0000

  Mayer bond orders larger than 0.100000
B(  0-C ,  1-C ) :   0.8903 B(  0-C ,  5-H ) :   0.9852 B(  0-C ,  6-H ) :   0.9701 
B(  0-C ,  7-H ) :   0.9714 B(  1-C ,  2-C ) :   0.9416 B(  1-C ,  8-H ) :   0.9585 
B(  1-C ,  9-H ) :   0.9843 B(  2-C ,  3-C ) :   1.9312 B(  2-C , 10-H ) :   0.9439 
B(  3-C ,  4-C ) :   0.9086 B(  3-C , 11-H ) :   0.9434 B(  4-C , 12-H ) :   0.9724 
B(  4-C , 13-H ) :   0.9654 B(  4-C , 14-H ) :   0.9829 

-------
TIMINGS
-------

Total SCF time: 0 days 0 hours 0 min 6 sec 

Total time                  ....       6.600 sec
Sum of individual times     ....       6.568 sec  ( 99.5%)

SCF preparation             ....       0.067 sec  (  1.0%)
Fock matrix formation       ....       6.023 sec  ( 91.3%)
  Startup                   ....       0.010 sec  (  0.2% of F)
  Split-RI-J                ....       0.890 sec  ( 14.8% of F)
  XC integration            ....       4.822 sec  ( 80.1% of F)
    Basis function eval.    ....       0.891 sec  ( 18.5% of XC)
    Density eval.           ....       1.358 sec  ( 28.2% of XC)
    XC-Functional eval.     ....       0.735 sec  ( 15.2% of XC)
    XC-Potential eval.      ....       1.428 sec  ( 29.6% of XC)
Diagonalization             ....       0.000 sec  (  0.0%)
Density matrix formation    ....       0.034 sec  (  0.5%)
Total Energy calculation    ....       0.001 sec  (  0.0%)
Population analysis         ....       0.335 sec  (  5.1%)
Orbital Transformation      ....       0.016 sec  (  0.2%)
Orbital Orthonormalization  ....       0.000 sec  (  0.0%)
DIIS solution               ....       0.076 sec  (  1.1%)
  MO trafo                  ....       0.000 sec  (  0.0 % of DIIS)
  Orb grad                  ....       0.000 sec  (  0.0 % of DIIS)
  Energy W gradient         ....       0.000 sec  (  0.0 % of DIIS)
  DIIS error                ....       0.003 sec  (  4.1 % of DIIS)
  DIIS work                 ....       0.064 sec  ( 84.1 % of DIIS)
  Form Q                    ....       0.000 sec  (  0.0 % of DIIS)
  Form QpQm                 ....       0.000 sec  (  0.0 % of DIIS)
  Exp/Cayley                ....       0.000 sec  (  0.0 % of DIIS)
  Orb update                ....       0.000 sec  (  0.0 % of DIIS)
  Wake-sleep                ....       0.001 sec  (  1.2 % of DIIS)
SOSCF solution              ....       0.015 sec  (  0.2%)
  MO trafo                  ....       0.011 sec  ( 77.9 % of SOSCF)
  Orb grad                  ....       0.000 sec  (  0.5 % of SOSCF)
  Rot update                ....       0.000 sec  (  0.1 % of SOSCF)
  Step                      ....       0.003 sec  ( 21.3 % of SOSCF)
Finished LeanSCF after   7.4 sec

Maximum memory used throughout the entire LEANSCF-calculation: 15.9 MB


-------------------------------------------------------------------------------
                          DFT DISPERSION CORRECTION                            
                                                                               
                                DFTD4 V3.4.0                                   
-------------------------------------------------------------------------------
The R2SCAN3C composite method is recognized
Using three-body term ABC
Active option DFTDOPT                   ...         5   

-------------------------   ----------------
Dispersion correction           -0.003383291
-------------------------   ----------------

------------------   -----------------
gCP correction             0.006420307
------------------   -----------------

-------------------------   --------------------
FINAL SINGLE POINT ENERGY      -196.453729431260
-------------------------   --------------------


------------------------------------------------------------------------------
                              ORCA PROPERTY CALCULATIONS
------------------------------------------------------------------------------

GBWName                                 ... sp.gbw
Number of atoms                         ...     15
Number of basis functions               ...    145
Max core memory                         ...   1024 MB

Electric properties:
Dipole moment                           ... YES
Quadrupole moment                       ...  NO
Static polarizability (Dipole/Dipole)   ...  NO
Static polarizability (Dipole/Quad.)    ...  NO
Static polarizability (Quad./Quad.)     ...  NO
Static polarizability (Velocity)        ...  NO

Atomic electric properties:
Dipole moment                           ...  NO
Quadrupole moment                       ...  NO
Static polarizability                   ...  NO

Choice of electric origin               ... Center of mass
Position of electric origin             ...    -0.000003     0.000007     0.000003

General magnetic properties:
Magnetizability                         ...  NO

EPR properties:
g-Tensor (aka g-matrix)                 ...  NO
Zero-Field splitting spin-orbit         ...  NO
Zero-field splitting spin-spin          ...  NO
Hyperfine couplings                     ...  NO (   0 nuclei)
Quadrupole couplings                    ...  NO (   0 nuclei)
Contact density                         ...  NO (   0 nuclei)

NMR properties:
Chemical shifts                         ...  NO (   0 nuclei)
Spin-rotation constants                 ...  NO (   0 nuclei)
Spin-spin couplings                     ...  NO (   0 nuclei,    0 pairs)

Choice of magnetic origin               ... GIAO
Position of magnetic origin             ...     0.000000     0.000000     0.000000

Properties with geometric perturbations:
SCF Hessian                             ...  NO
IR spectrum                             ...  NO
VCD spectrum                            ...  NO
X-ray spectroscopy properties:
SCF XES/XAS/RIXS spectra                ...  NO


-------------
DIPOLE MOMENT
-------------

Method             : SCF
Type of density    : Electron Density
Multiplicity       :   1
Irrep              :   0
Energy             :  -196.4567664475809750 Eh
Relativity type    : 
Basis              : AO
                                X                 Y                 Z
Electronic contribution:      0.942737349      -2.239762534      -0.806304545
Nuclear contribution   :     -1.025442291       2.304529550       0.905265836
                        -----------------------------------------
Total Dipole Moment    :     -0.082704942       0.064767016       0.098961292
                        -----------------------------------------
Magnitude (a.u.)       :      0.144319822
Magnitude (Debye)      :      0.366831835



--------------------
Rotational spectrum 
--------------------
 
Rotational constants in cm-1:             0.258504             0.119288             0.086934 
Rotational constants in MHz :          7749.742718          3576.152970          2606.212672 

Dipole components along the rotational axes: 
x,y,z [a.u.] :    -0.077691     0.094208     0.076922 
x,y,z [Debye]:    -0.197476     0.239459     0.195521 

 

Dipole moment calculation done in   0.2 sec 

Maximum memory used throughout the entire PROP-calculation: 8.7 MB

--------------------------------
SUGGESTED CITATIONS FOR THIS RUN
--------------------------------

Below you find a list of papers that are relevant to this ORCA run
We neither can nor want to force you to cite these papers, but we appreciate if you do
You receive ORCA, which is the product of decades of hard work by many enthusiastic individuals, for free
The only thing we kindly ask in return is that you cite our papers,
We deeply appreciate it, if you show your appreciation for ORCA by not just citing the generic ORCA reference.

Please note that relegating all ORCA citations to the supporting information does *not* help us.
SI sections are not indexed - citations you put there will not count into any citation statistics
But we need these citations in order to attract the funding resources that allow us to do what we are doing

Therefore, if you are a happy ORCA user, please consider citing a few of the papers listed below in the main body of your paper

In addition to the list printed below, the program has created the file sp.bibtex that contains the list in bibtex format
You can import this file easily into all common literature databanks and citation aid programs


List of essential papers. We consider these as the minimum necessary citations

  1. Neese,F.
     Software update: the ORCA program system, version 5.0
     WIRES Comput. Molec. Sci., 2022 12(1)e1606
     doi.org/10.1002/wcms.1606
  2. Grimme,S.; Hansen,A.; Ehlert,S.; Mewes,J.
     r2SCAN-3c: A 'Swiss army knife' composite electronic-structure method
     J. Chem. Phys., 2021 154 064103
     doi.org/10.1063/5.0040021

List of papers to cite with high priority. The work reported in these papers was absolutely
necessary for this run to complete.
Our perspective: the developers of density functionals and basis sets usually get cited in chemistry papers
Good! But without the algorithms to do something with them, the functionals or basis sets would not do anything.
Hence, in our opinion, the algorithm design and method developments papers are equally worthy of getting cited

  1. Neese,F.
     An improvement of the resolution of the identity approximation for the formation of the Coulomb matrix
     J. Comp. Chem., 2003 24(14)1740-1747
     doi.org/10.1002/jcc.10318
  2. Neese,F.
     The SHARK Integral Generation and Digestion System
     J. Comp. Chem., 2022  1-16
     doi.org/10.1002/jcc.26942
  3. Lehtola,S.; Steigemann,C.; Oliveira,M.; Marques,M.
     Recent developments in Libxc - A comprehensive library of functionals for density functional theory
     Software X, 2018 7 
     doi.org/10.1016/j.softx.2017.11.002
  4. Caldeweyher,E.; Bannwarth,C.; Grimme,S.
     Extension of the D3 dispersion coefficient model
     J. Chem. Phys., 2017 147 034112
     doi.org/10.1063/1.4993215
  5. Caldeweyher,E.; Ehlert,S.; Hansen,A.; Neugebauer,H.; Spicher,S.; Bannwarth,C.; Grimme,S.
     A generally applicable atomic-charge dependent London dispersion correction
     J. Chem. Phys., 2019 150 154122
     doi.org/10.1063/1.5090222
  6. Caldeweyher,E.; Mewes,J.; Ehlert,S.; Grimme,S.
     Extension and evaluation of the D4 London-dispersion model for periodic systems
     Phys. Chem. Chem. Phys., 2020 22(16)8499-8512
     doi.org/10.1039/D0CP00502A
  7. Wittmann,L.; Gordiy,I.; Friede,M.; Helmich-Paris,B.; Grimme,S.; Hansen,A.; Bursch,M.
     Extension of the D3 and D4 London Dispersion Corrections to the full Actinides Series
     Phys. Chem. Chem. Phys., 2024 26(32)21379-21394
     doi.org/https://doi.org/10.1039/D4CP01514B 

List of suggested additional citations. These are papers that are important in the 'surrounding' of 
of this run, or papers that preceded the highly important papers. If you like your results we are grateful for a citation.

  1. Neese,F.
     The ORCA program system
     WIRES Comput. Molec. Sci., 2012 2(1)73-78
     doi.org/10.1002/wcms.81
  2. Neese,F.
     Software update: the ORCA program system, version 4.0
     WIRES Comput. Molec. Sci., 2018 8(1)1-6
     doi.org/10.1002/wcms.1327
  3. Neese,F.; Wennmohs,F.; Becker,U.; Riplinger,C.
     The ORCA quantum chemistry program package
     J. Chem. Phys., 2020 152 Art. No. L224108
     doi.org/10.1063/5.0004608

List of optional additional citations

  1. Neese,F.
     Approximate second-order SCF convergence for spin unrestricted wavefunctions
     Chem. Phys. Lett., 2000 325(1-3)93-98
     doi.org/10.1016/s0009-2614(00)00662-x

Timings for individual modules:

Sum of individual times          ...        8.360 sec (=   0.139 min)
Startup calculation              ...        0.566 sec (=   0.009 min)   6.8 %
SCF iterations                   ...        7.558 sec (=   0.126 min)  90.4 %
Property calculations            ...        0.235 sec (=   0.004 min)   2.8 %
                             ****ORCA TERMINATED NORMALLY****
TOTAL RUN TIME: 0 days 0 hours 0 minutes 9 seconds 705 msec
