
                                 *****************
                                 * O   R   C   A *
                                 *****************

                                            #,                                       
                                            ###                                      
                                            ####                                     
                                            #####                                    
                                            ######                                   
                                           ########,                                 
                                     ,,################,,,,,                         
                               ,,#################################,,                 
                          ,,##########################################,,             
                       ,#########################################, ''#####,          
                    ,#############################################,,   '####,        
                  ,##################################################,,,,####,       
                ,###########''''           ''''###############################       
              ,#####''   ,,,,##########,,,,          '''####'''          '####       
            ,##' ,,,,###########################,,,                        '##       
           ' ,,###''''                  '''############,,,                           
         ,,##''                                '''############,,,,        ,,,,,,###''
      ,#''                                            '''#######################'''  
     '                                                          ''''####''''         
             ,#######,   #######,   ,#######,      ##                                
            ,#'     '#,  ##    ##  ,#'     '#,    #''#        ,####,   ,####,        
            ##       ##  ##   ,#'  ##            #'  '#       #'       #'  '#        
            ##       ##  #######   ##           ,######,      #####,   #    #        
            '#,     ,#'  ##    ##  '#,     ,#' ,#      #,     #,   #   #,  ,#        
             '#######'   ##     ##  '#######'  #'      '#     '####' # '####'        



                #########################################################
                #                        -***-                          #
                #          Department of theory and spectroscopy        #
                #                                                       #
                #                      Frank Neese                      #
                #                                                       #
                #     Directorship, Architecture, Infrastructure        #
                #                    SHARK, DRIVERS                     #
                #        Core code/Algorithms in most modules           #
                #                                                       #
                #        Max Planck Institute fuer Kohlenforschung      #
                #                Kaiser Wilhelm Platz 1                 #
                #                 D-45470 Muelheim/Ruhr                 #
                #                      Germany                          #
                #                                                       #
                #                  All rights reserved                  #
                #                        -***-                          #
                #########################################################


                         Program Version 6.0.0  -   RELEASE  -


 With contributions from (in alphabetic order):
   Daniel Aravena         : Magnetic Suceptibility
   Michael Atanasov       : Ab Initio Ligand Field Theory (pilot matlab implementation)
   Alexander A. Auer      : GIAO ZORA, VPT2 properties, NMR spectrum
   Ute Becker             : All parallelization in ORCA, NUMFREQ, NUMCALC
   Giovanni Bistoni       : ED, misc. LED, open-shell LED, HFLD
   Martin Brehm           : Molecular dynamics
   Dmytro Bykov           : pre 5.0 version of the SCF Hessian
   Marcos Casanova-Páez   : Triplet and SCS-CIS(D). UHF-(DLPNO)-IP/EA/STEOM-CCSD. UHF-CVS-IP/STEOM-CCSD
   Vijay G. Chilkuri      : MRCI spin determinant printing, contributions to CSF-ICE
   Pauline Colinet        : FMM embedding
   Dipayan Datta          : RHF DLPNO-CCSD density
   Achintya Kumar Dutta   : EOM-CC, STEOM-CC
   Nicolas Foglia         : Exact transition moments, OPA infrastructure, MCD improvements
   Dmitry Ganyushin       : Spin-Orbit,Spin-Spin,Magnetic field MRCI
   Miquel Garcia          : C-PCM and meta-GGA Hessian, CCSD/C-PCM, Gaussian charge scheme
   Tiago L. C. Gouveia    : GS-ROHF, GS-ROCIS
   Yang Guo               : DLPNO-NEVPT2, F12-NEVPT2, CIM, IAO-localization
   Andreas Hansen         : Spin unrestricted coupled pair/coupled cluster methods
   Ingolf Harden          : AUTO-CI MPn and infrastructure 
   Benjamin Helmich-Paris : MC-RPA, TRAH-(SCF,CASSCF), AVAS, COSX integrals, SCF dyn. polar.
   Lee Huntington         : MR-EOM, pCC
   Robert Izsak           : Overlap fitted RIJCOSX, COSX-SCS-MP3, EOM
   Riya Kayal             : Wick's Theorem for AUTO-CI, AUTO-CI UHF-CCSDT
   Emily Kempfer          : AUTO-CI, RHF CISDT and CCSDT
   Christian Kollmar      : KDIIS, OOCD, Brueckner-CCSD(T), CCSD density, CASPT2, CASPT2-K, improved NEVPT2
   Axel Koslowski         : Symmetry handling
   Simone Kossmann        : Meta GGA functionals, TD-DFT gradient, OOMP2, (MP2 Hessian; deprecated post 5.0)
   Lucas Lang             : DCDCAS
   Marvin Lechner         : AUTO-CI (C++ implementation), FIC-MRCC
   Spencer Leger          : CASSCF response
   Dagmar Lenk            : GEPOL surface, SMD, ORCA-2-JSON
   Dimitrios Liakos       : Extrapolation schemes; Compound Job, initial MDCI parallelization
   Dimitrios Manganas     : Further ROCIS development; embedding schemes. LFT, Crystal Embedding
   Dimitrios Pantazis     : SARC Basis sets
   Anastasios Papadopoulos: AUTO-CI, single reference methods and gradients
   Taras Petrenko         : pre 6.0 DFT Hessian and TD-DFT gradient, (ASA, deprecated), ECA, 1-Electron XAS/XES, NRVS
   Peter Pinski           : DLPNO-MP2, DLPNO-MP2 Gradient
   Christoph Reimann      : Effective Core Potentials
   Marius Retegan         : Local ZFS, SOC
   Christoph Riplinger    : Optimizer, TS searches, QM/MM, DLPNO-CCSD(T), (RO)-DLPNO pert. Triples
   Michael Roemelt        : Original ROCIS implementation
   Masaaki Saitow         : Open-shell DLPNO-CCSD energy and density
   Barbara Sandhoefer     : DKH picture change effects
   Kantharuban Sivalingam : CASSCF convergence/infrastructure, NEVPT2 and variants, FIC-MRCI
   Bernardo de Souza      : ESD, SOC TD-DFT
   Georgi Stoychev        : AutoAux, RI-MP2 NMR, DLPNO-MP2 response, X2C
   Van Anh Tran           : RI-MP2 g-tensors
   Willem Van den Heuvel  : Paramagnetic NMR
   Zikuan Wang            : NOTCH, Electric field optimization 
   Frank Wennmohs         : Technical directorship and infrastructure
   Hang Xu                : AUTO-CI-Response properties 


 We gratefully acknowledge several colleagues who have allowed us to
 interface, adapt or use parts of their codes:
   Stefan Grimme, W. Hujo, H. Kruse, P. Pracht,  : VdW corrections, initial TS optimization,
                  C. Bannwarth, S. Ehlert,         DFT functionals, gCP, sTDA/sTD-DF
                  L. Wittmann, M. Mueller
   Ed Valeev, F. Pavosevic, A. Kumar             : LibInt (2-el integral package), F12 methods
   Garnet Chan, S. Sharma, J. Yang, R. Olivares  : DMRG
   Ulf Ekstrom                                   : XCFun DFT Library
   Mihaly Kallay                                 : mrcc  (arbitrary order and MRCC methods)
   Frank Weinhold                                : gennbo (NPA and NBO analysis)
   Simon Mueller                                 : openCOSMO-RS
   Christopher J. Cramer and Donald G. Truhlar   : smd solvation model
   Lars Goerigk                                  : TD-DFT with DH, B97 family of functionals
   V. Asgeirsson, H. Jonsson                     : NEB implementation
   FAccTs GmbH                                   : IRC, NEB, NEB-TS, DLPNO-Multilevel, CI-OPT
                                                   MM, QMMM, 2- and 3-layer-ONIOM, Crystal-QMMM,
                                                   LR-CPCM, SF, NACMEs, symmetry and pop. for TD-DFT,
                                                   nearIR, NL-DFT gradient (VV10), updates on ESD,
                                                   ML-optimized integration grids, MBIS, APM,
                                                   GOAT, DOCKER, SOLVATOR, interface openCOSMO-RS
   S Lehtola, MJT Oliveira, MAL Marques          : LibXC Library
   Liviu Ungur et al                             : ANISO software


 Your calculation uses the libint2 library for the computation of 2-el integrals
 For citations please refer to: http://libint.valeyev.net

 Your ORCA version has been built with support for libXC version: 6.2.2
 For citations please refer to: https://libxc.gitlab.io

 This ORCA versions uses:
   CBLAS   interface :  Fast vector & matrix operations
   LAPACKE interface :  Fast linear algebra routines
   SCALAPACK package :  Parallel linear algebra routines
   Shared memory     :  Shared parallel matrices
   BLAS/LAPACK       :  OpenBLAS 0.3.27  USE64BITINT DYNAMIC_ARCH NO_AFFINITY SkylakeX SINGLE_THREADED
        Core in use  :  SkylakeX
   Copyright (c) 2011-2014, The OpenBLAS Project




***************************************
The coordinates will be read from file: censo.xyz
***************************************


Your calculation utilizes the geometrical counterpoise correction gCP
Please cite in your paper:
H.Kruse, S. Grimme J.Chem.Phys., 136, (2012), 154101 
   

Your calculation utilizes the atom-pairwise dispersion correction
based on EEQ partial charges (D4)


================================================================================

----- Orbital basis set information -----
Your calculation utilizes the basis: def2-TZVP
   F. Weigend and R. Ahlrichs, Phys. Chem. Chem. Phys. 7, 3297 (2005).

----- AuxJ basis set information -----
Your calculation utilizes the basis: def2-mTZVPP/J
   Stefan Grimme, Andreas Hansen, Sebastian Ehlert, and Jan-Michael Mewes 
   J. Chem. Phys. 154, 000000 (2021). DOI: 10.1063/5.0040021

================================================================================
                                        WARNINGS
                       Please study these warnings very carefully!
================================================================================

Using LibXC functional ID 497 : Re-regularized SCAN exchange by Furness et al
[ 1]  J. W. Furness, A. D. Kaplan, J. Ning, J. P. Perdew, and J. Sun.,  J. Phys. Chem. Lett. 11, 8208-8215 (2020)
[ 2]  J. W. Furness, A. D. Kaplan, J. Ning, J. P. Perdew, and J. Sun.,  J. Phys. Chem. Lett. 11, 9248-9248 (2020)
Using LibXC functional ID 498 : Re-regularized SCAN correlation by Furness et al
[ 1]  J. W. Furness, A. D. Kaplan, J. Ning, J. P. Perdew, and J. Sun.,  J. Phys. Chem. Lett. 11, 8208-8215 (2020)
[ 2]  J. W. Furness, A. D. Kaplan, J. Ning, J. P. Perdew, and J. Sun.,  J. Phys. Chem. Lett. 11, 9248-9248 (2020)
Using LibXC functional ID 497 : Re-regularized SCAN exchange by Furness et al
[ 1]  J. W. Furness, A. D. Kaplan, J. Ning, J. P. Perdew, and J. Sun.,  J. Phys. Chem. Lett. 11, 8208-8215 (2020)
[ 2]  J. W. Furness, A. D. Kaplan, J. Ning, J. P. Perdew, and J. Sun.,  J. Phys. Chem. Lett. 11, 9248-9248 (2020)
Using LibXC functional ID 498 : Re-regularized SCAN correlation by Furness et al
[ 1]  J. W. Furness, A. D. Kaplan, J. Ning, J. P. Perdew, and J. Sun.,  J. Phys. Chem. Lett. 11, 8208-8215 (2020)
[ 2]  J. W. Furness, A. D. Kaplan, J. Ning, J. P. Perdew, and J. Sun.,  J. Phys. Chem. Lett. 11, 9248-9248 (2020)

================================================================================
                                       INPUT FILE
================================================================================
NAME = censo.inp
|  1> ! r2SCAN-3c DEF2-TZVP FREQ
|  2> * xyzfile 0 1 censo.xyz
|  3> 
|  4>                          ****END OF INPUT****
================================================================================

                       ****************************
                       * Single Point Calculation *
                       ****************************

---------------------------------
CARTESIAN COORDINATES (ANGSTROEM)
---------------------------------
  C      0.000036   -2.573275    0.000022
  C      1.207021   -1.886368    0.000017
  C      1.201787   -0.497182    0.000005
  C     -0.000000    0.219898   -0.000001
  C     -1.201769   -0.497213    0.000005
  C     -1.206967   -1.886398    0.000016
  Cl    -2.728491    0.348734   -0.000005
  Cl    -0.000025    1.954362   -0.000017
  Cl     2.728489    0.348802    0.000000
  H      0.000049   -3.657400    0.000033
  H      2.149985   -2.420080    0.000023
  H     -2.149918   -2.420135    0.000020

----------------------------
CARTESIAN COORDINATES (A.U.)
----------------------------
  NO LB      ZA    FRAG     MASS         X           Y           Z
   0 C     6.0000    0    12.011    0.000067   -4.862786    0.000041
   1 C     6.0000    0    12.011    2.280938   -3.564718    0.000033
   2 C     6.0000    0    12.011    2.271048   -0.939537    0.000009
   3 C     6.0000    0    12.011   -0.000001    0.415547   -0.000003
   4 C     6.0000    0    12.011   -2.271014   -0.939596    0.000009
   5 C     6.0000    0    12.011   -2.280837   -3.564776    0.000030
   6 Cl   17.0000    0    35.453   -5.156101    0.659012   -0.000010
   7 Cl   17.0000    0    35.453   -0.000048    3.693208   -0.000033
   8 Cl   17.0000    0    35.453    5.156097    0.659141    0.000000
   9 H     1.0000    0     1.008    0.000093   -6.911484    0.000062
  10 H     1.0000    0     1.008    4.062883   -4.573288    0.000044
  11 H     1.0000    0     1.008   -4.062755   -4.573392    0.000037

--------------------------------
INTERNAL COORDINATES (ANGSTROEM)
--------------------------------
 C      0   0   0     0.000000000000     0.00000000     0.00000000
 C      1   0   0     1.388760210831     0.00000000     0.00000000
 C      2   1   0     1.389195843275   119.42879784     0.00000000
 C      3   2   1     1.399462915425   121.03944475     0.00000000
 C      4   3   2     1.399462339458   118.35133515     0.00000000
 C      1   2   3     1.388760150433   120.71215300     0.00000000
 Cl     5   4   3     1.745424780782   120.18437357   180.00012144
 Cl     4   3   2     1.734463435650   120.82440789   180.00000764
 Cl     3   2   1     1.745425045976   118.77608158   179.99996884
 H      1   2   3     1.084124409741   119.64392576   180.00005753
 H      2   1   3     1.083526844383   120.84575595   180.00000452
 H      6   1   2     1.083526794491   120.84574764   180.00000553

---------------------------
INTERNAL COORDINATES (A.U.)
---------------------------
 C      0   0   0     0.000000000000     0.00000000     0.00000000
 C      1   0   0     2.624376464156     0.00000000     0.00000000
 C      2   1   0     2.625199690172   119.42879784     0.00000000
 C      3   2   1     2.644601644732   121.03944475     0.00000000
 C      4   3   2     2.644600556312   118.35133515     0.00000000
 C      1   2   3     2.624376350021   120.71215300     0.00000000
 Cl     5   4   3     3.298374823037   120.18437357   180.00012144
 Cl     4   3   2     3.277660882678   120.82440789   180.00000764
 Cl     3   2   1     3.298375324182   118.77608158   179.99996884
 H      1   2   3     2.048698229509   119.64392576   180.00005753
 H      2   1   3     2.047568994636   120.84575595   180.00000452
 H      6   1   2     2.047568900354   120.84574764   180.00000553

---------------------
BASIS SET INFORMATION
---------------------
There are 3 groups of distinct atoms

 Group   1 Type C   : 11s6p2d1f contracted to 5s3p2d1f pattern {62111/411/11/1}
 Group   2 Type Cl  : 14s9p3d1f contracted to 5s5p2d1f pattern {73211/51111/21/1}
 Group   3 Type H   : 5s1p contracted to 3s1p pattern {311/1}

Atom   0C    basis set group =>   1
Atom   1C    basis set group =>   1
Atom   2C    basis set group =>   1
Atom   3C    basis set group =>   1
Atom   4C    basis set group =>   1
Atom   5C    basis set group =>   1
Atom   6Cl   basis set group =>   2
Atom   7Cl   basis set group =>   2
Atom   8Cl   basis set group =>   2
Atom   9H    basis set group =>   3
Atom  10H    basis set group =>   3
Atom  11H    basis set group =>   3
---------------------------------
AUXILIARY/J BASIS SET INFORMATION
---------------------------------
There are 3 groups of distinct atoms

 Group   1 Type C   : 8s3p3d contracted to 6s3p3d pattern {311111/111/111}
 Group   2 Type Cl  : 14s5p5d2f contracted to 8s4p3d1f pattern {71111111/2111/311/2}
 Group   3 Type H   : 5s2p1d contracted to 3s1p1d pattern {311/2/1}

Atom   0C    basis set group =>   1
Atom   1C    basis set group =>   1
Atom   2C    basis set group =>   1
Atom   3C    basis set group =>   1
Atom   4C    basis set group =>   1
Atom   5C    basis set group =>   1
Atom   6Cl   basis set group =>   2
Atom   7Cl   basis set group =>   2
Atom   8Cl   basis set group =>   2
Atom   9H    basis set group =>   3
Atom  10H    basis set group =>   3
Atom  11H    basis set group =>   3
------------------------------------------------------------------------------
                             ORCA STARTUP CALCULATIONS
                           -- RI-GTO INTEGRALS CHOSEN --
------------------------------------------------------------------------------
------------------------------------------------------------------------------
                   ___                                                        
                  /   \      - P O W E R E D   B Y -                         
                 /     \                                                     
                 |  |  |   _    _      __       _____    __    __             
                 |  |  |  | |  | |    /  \     |  _  \  |  |  /  |          
                  \  \/   | |  | |   /    \    | | | |  |  | /  /          
                 / \  \   | |__| |  /  /\  \   | |_| |  |  |/  /          
                |  |  |   |  __  | /  /__\  \  |    /   |      \           
                |  |  |   | |  | | |   __   |  |    \   |  |\   \          
                \     /   | |  | | |  |  |  |  | |\  \  |  | \   \       
                 \___/    |_|  |_| |__|  |__|  |_| \__\ |__|  \__/        
                                                                              
                      - O R C A' S   B I G   F R I E N D -                    
                                      &                                       
                       - I N T E G R A L  F E E D E R -                       
                                                                              
 v1 FN, 2020, v2 2021, v3 2022-2024                                           
------------------------------------------------------------------------------


----------------------
SHARK INTEGRAL PACKAGE
----------------------

Number of atoms                             ...     12
Number of basis functions                   ...    315
Number of shells                            ...    117
Maximum angular momentum                    ...      3
Integral batch strategy                     ... SHARK/LIBINT Hybrid
RI-J (if used) integral strategy            ... SPLIT-RIJ (Revised 2003 algorithm where possible)
Printlevel                                  ...      1
Contraction scheme used                     ... SEGMENTED contraction
Prescreening option                         ... SCHWARTZ
   Thresh                                   ... 1.000e-10
   Tcut                                     ... 1.000e-11
   Tpresel                                  ... 1.000e-11 
Coulomb Range Separation                    ... NOT USED
Exchange Range Separation                   ... NOT USED
Multipole approximations                    ... NOT USED
Finite Nucleus Model                        ... NOT USED
CABS basis                                  ... NOT available
Auxiliary Coulomb fitting basis             ... AVAILABLE
   # of basis functions in Aux-J            ...    339
   # of shells in Aux-J                     ...    135
   Maximum angular momentum in Aux-J        ...      3
Auxiliary J/K fitting basis                 ... NOT available
Auxiliary Correlation fitting basis         ... NOT available
Auxiliary 'external' fitting basis          ... NOT available

Checking pre-screening integrals            ... done (  0.0 sec) Dimension = 117
Check shell pair data                       ... done (  0.0 sec)
Shell pair information
Shell pair cut-off parameter TPreSel        ...   1.0e-11
Total number of shell pairs                 ...      6903
Shell pairs after pre-screening             ...      6040
Total number of primitive shell pairs       ...     24339
Primitive shell pairs kept                  ...     15018
          la=0 lb=0:   1199 shell pairs
          la=1 lb=0:   1673 shell pairs
          la=1 lb=1:    594 shell pairs
          la=2 lb=0:    883 shell pairs
          la=2 lb=1:    599 shell pairs
          la=2 lb=2:    167 shell pairs
          la=3 lb=0:    426 shell pairs
          la=3 lb=1:    295 shell pairs
          la=3 lb=2:    160 shell pairs
          la=3 lb=3:     44 shell pairs

Calculating one electron integrals          ... done (  0.0 sec)
Calculating RI/J V-Matrix + Cholesky decomp.... done (  0.0 sec)
Calculating Nuclear repulsion               ... done (  0.0 sec) ENN=    647.896673195927 Eh

Diagonalization of the overlap matrix:
Smallest eigenvalue                        ... 9.567e-06
Time for diagonalization                   ...    0.010 sec
Threshold for overlap eigenvalues          ... 1.000e-07
Number of eigenvalues below threshold      ... 0
Time for construction of square roots      ...    0.019 sec
Total time needed                          ...    0.037 sec

-------------------
DFT GRID GENERATION
-------------------

General Integration Accuracy     IntAcc      ... 4.388
Radial Grid Type                 RadialGrid  ... OptM3 with GC (2021)
Angular Grid (max. ang.)         AngularGrid ... 4 (Lebedev-302)
Angular grid pruning method      GridPruning ... 4 (adaptive)
Weight generation scheme         WeightScheme... mBecke (2022)
Basis function cutoff            BFCut       ... 1.0000e-10
Integration weight cutoff        WCut        ... 1.0000e-14
Partially contracted basis set               ... off
Rotationally invariant grid construction     ... off
Angular grids for H and He will be reduced by one unit

Total number of grid points                  ...    67669
Total number of batches                      ...     1064
Average number of points per batch           ...       63
Average number of grid points per atom       ...     5639
Initializing property integral containers    ... done (  0.0 sec)

SHARK setup successfully completed in   1.1 seconds

Maximum memory used throughout the entire STARTUP-calculation: 43.1 MB
-------------------------------------------------------------------------------
                                 ORCA GUESS
                   Start orbitals & Density for SCF / CASSCF
-------------------------------------------------------------------------------

------------
SCF SETTINGS
------------
Hamiltonian:
 Density Functional     Method          .... DFT(GTOs)
  Functional kind                       .... Exchange
  Functional name                       .... Re-regularized SCAN exchange by Furness et al
  Functional family                     .... MGGA
  Functional refs                              
    [ 0] J. W. Furness, A. D. Kaplan, J. Ning, J. P. Perdew, and J. Sun.,  J. Phys. Chem. Lett. 11, 8208-8215 (2020), doi: 10.1021/acs.jpclett.0c02405
    [ 1] J. W. Furness, A. D. Kaplan, J. Ning, J. P. Perdew, and J. Sun.,  J. Phys. Chem. Lett. 11, 9248-9248 (2020), doi: 10.1021/acs.jpclett.0c03077
  Functional external parameters        .... 6
    Parameter  0 _c1        =  6.670000e-01 : c1 parameter        
    Parameter  1 _c2        =  8.000000e-01 : c2 parameter        
    Parameter  2 _d         =  1.240000e+00 : d parameter         
    Parameter  3 _k1        =  6.500000e-02 : k1 parameter        
    Parameter  4 _eta       =  1.000000e-03 : eta parameter       
    Parameter  5 _dp2       =  3.610000e-01 : dp2 parameter       
  Functional kind                       .... Correlation
  Functional name                       .... Re-regularized SCAN correlation by Furness et al
  Functional family                     .... MGGA
  Functional refs                              
    [ 0] J. W. Furness, A. D. Kaplan, J. Ning, J. P. Perdew, and J. Sun.,  J. Phys. Chem. Lett. 11, 8208-8215 (2020), doi: 10.1021/acs.jpclett.0c02405
    [ 1] J. W. Furness, A. D. Kaplan, J. Ning, J. P. Perdew, and J. Sun.,  J. Phys. Chem. Lett. 11, 9248-9248 (2020), doi: 10.1021/acs.jpclett.0c03077
  Functional external parameters        .... 1
    Parameter  0 _eta       =  1.000000e-03 : Regularization parameter
 Gradients option       PostSCFGGA      .... off
 RI-approximation to the Coulomb term is turned on
   Number of AuxJ basis functions       .... 339


General Settings:
 Integral files         IntName         .... censo
 Hartree-Fock type      HFTyp           .... RHF
 Total Charge           Charge          ....    0
 Multiplicity           Mult            ....    1
 Number of Electrons    NEL             ....   90
 Basis Dimension        Dim             ....  315
 Nuclear Repulsion      ENuc            ....    647.8966731959 Eh

Convergence Acceleration:
 AO-DIIS                CNVDIIS         .... on
   Start iteration      DIISMaxIt       ....    12
   Startup error        DIISStart       ....  0.200000
   # of expansion vecs  DIISMaxEq       ....     5
   Bias factor          DIISBfac        ....   1.050
   Max. coefficient     DIISMaxC        ....  10.000
 MO-DIIS                CNVKDIIS        .... off
 Trust-Rad. Augm. Hess. CNVTRAH         .... auto
   Auto Start mean grad. ratio tolernc. ....  1.125000
   Auto Start start iteration           ....    50
   Auto Start num. interpolation iter.  ....    10
   Max. Number of Micro iterations      ....    24
   Max. Number of Macro iterations      .... Maxiter - #DIIS iter
   Number of Davidson start vectors     ....     2
   Converg. threshold    (grad. norm)   ....   5.000e-05
   Grad. Scal. Fac. for Micro threshold ....   0.100
   Minimum threshold for Micro iter.    ....   1.000e-02
   NR start threshold (gradient norm)   ....   1.000e-04
   Initial trust radius                 ....   0.400
   Minimum AH scaling param. (alpha)    ....   1.000
   Maximum AH scaling param. (alpha)    .... 1000.000
   Quad. conv. algorithm                .... NR
   White noise on init. David. guess    .... on
   Maximum white noise                  ....   0.010
   Pseudo random numbers                .... off
   Inactive MOs                         .... canonical
   Orbital update algorithm             .... Taylor
   Preconditioner                       .... Diag
   Full preconditioner red. dimension   ....   250
   COSX micro iterations for RIJONX calc.... off
 SOSCF                  CNVSOSCF        .... on
   Start iteration      SOSCFMaxIt      ....   150
   Startup grad/error   SOSCFStart      ....  0.003300
   Hessian update       SOSCFHessUp     .... L-BFGS
 Level Shifting         CNVShift        .... on
   Level shift para.    LevelShift      ....    0.2500
   Turn off err/grad.   ShiftErr        ....    0.0010
 Zerner damping         CNVZerner       .... off
 Static damping         CNVDamp         .... on
   Fraction old density DampFac         ....    0.7000
   Max. Damping (<1)    DampMax         ....    0.9800
   Min. Damping (>=0)   DampMin         ....    0.0000
   Turn off err/grad.   DampErr         ....    0.1000

SCF Procedure:
 Maximum # iterations   MaxIter         ....   125
 SCF integral mode      SCFMode         .... Direct
   Integral package                     .... SHARK and LIBINT hybrid scheme
 Reset frequency        DirectResetFreq ....    20
 Integral Threshold     Thresh          ....  1.000e-10 Eh
 Primitive CutOff       TCut            ....  1.000e-11 Eh

Convergence Tolerance:
 Convergence Check Mode ConvCheckMode   .... Total+1el-Energy
 Convergence forced     ConvForced      .... 0
 Energy Change          TolE            ....  1.000e-06 Eh
 1-El. energy change                    ....  1.000e-03 Eh
 Orbital Gradient       TolG            ....  5.000e-05
 Orbital Rotation angle TolX            ....  5.000e-05
 DIIS Error             TolErr          ....  1.000e-06

------------------------------
INITIAL GUESS: MODEL POTENTIAL
------------------------------
Loading Hartree-Fock densities                     ... done
Calculating cut-offs                               ... done
Initializing the effective Hamiltonian             ... done
Setting up the integral package (SHARK)            ... done
Starting the Coulomb interaction                   ... done (   0.3 sec)
Making the grid                                    ... done (   0.2 sec)
Mapping shells                                     ... done
Starting the XC term evaluation                    ... done (   0.4 sec)
  promolecular density results
     # of electrons  =     89.997777565
     EX              =   -113.746212614
     EC              =     -3.320096659
     EX+EC           =   -117.066309273
Transforming the Hamiltonian                       ... done (   0.0 sec)
Diagonalizing the Hamiltonian                      ... done (   0.0 sec)
Back transforming the eigenvectors                 ... done (   0.0 sec)
Now organizing SCF variables                       ... done
                      ------------------
                      INITIAL GUESS DONE (   1.0 sec)
                      ------------------
             **** ENERGY FILE WAS UPDATED (censo.en.tmp) ****
Finished Guess after   1.2 sec
Maximum memory used throughout the entire GUESS-calculation: 30.0 MB

-------------------------------------------------------------------------------------------
                                      ORCA LEAN-SCF
                              memory conserving SCF solver
-------------------------------------------------------------------------------------------

----------------------------------------D-I-I-S--------------------------------------------
Iteration    Energy (Eh)           Delta-E    RMSDP     MaxDP     DIISErr   Damp  Time(sec)
-------------------------------------------------------------------------------------------
               ***  Starting incremental Fock matrix formation  ***
    1    -1610.8195944598301139     0.00e+00  1.25e-03  2.83e-02  1.54e-01  0.700   3.6
    2    -1610.8846193395224873    -6.50e-02  9.51e-04  2.19e-02  7.00e-02  0.700   3.2
                               ***Turning on AO-DIIS***
    3    -1610.9068202974322048    -2.22e-02  6.41e-04  1.89e-02  2.44e-02  0.700   3.1
    4    -1610.9201258327966571    -1.33e-02  1.72e-03  5.24e-02  1.71e-02  0.000   3.0
    5    -1610.9514347172093949    -3.13e-02  2.18e-04  5.32e-03  4.88e-03  0.000   3.1
                              *** Initializing SOSCF ***
---------------------------------------S-O-S-C-F--------------------------------------
Iteration    Energy (Eh)           Delta-E    RMSDP     MaxDP     MaxGrad    Time(sec)
--------------------------------------------------------------------------------------
    6    -1610.9517725661357872    -3.38e-04  9.81e-05  3.46e-03  1.96e-03     2.9
               *** Restarting incremental Fock matrix formation ***
    7    -1610.9518014669192780    -2.89e-05  8.78e-05  2.78e-03  4.92e-04     3.5
    8    -1610.9517818650101617     1.96e-05  4.57e-05  2.54e-03  1.13e-03     2.7
    9    -1610.9518115057853720    -2.96e-05  1.58e-05  3.44e-04  2.21e-04     2.7
   10    -1610.9518112611690412     2.45e-07  8.52e-06  3.89e-04  2.33e-04     2.6
                 **** Energy Check signals convergence ****

               *****************************************************
               *                     SUCCESS                       *
               *           SCF CONVERGED AFTER  10 CYCLES          *
               *****************************************************

             **** ENERGY FILE WAS UPDATED (censo.en.tmp) ****

----------------
TOTAL SCF ENERGY
----------------

Total Energy       :      -1610.95181126116904 Eh          -43836.22738 eV

Components:
Nuclear Repulsion  :        647.89667319592718 Eh           17630.16478 eV
Electronic Energy  :      -2258.84848445709622 Eh          -61466.39215 eV
One Electron Energy:      -3505.58626638384021 Eh          -95391.85194 eV
Two Electron Energy:       1246.73778192674399 Eh           33925.45978 eV

Virial components:
Potential Energy   :      -3218.81669338538586 Eh          -87588.45514 eV
Kinetic Energy     :       1607.86488212421682 Eh           43752.22776 eV
Virial Ratio       :          2.00191989337616

DFT components:
N(Alpha)           :       45.000014499892 electrons
N(Beta)            :       45.000014499892 electrons
N(Total)           :       90.000028999783 electrons
E(X)               :     -115.000486832394 Eh       
E(C)               :       -3.271898829925 Eh       
E(XC)              :     -118.272385662319 Eh       

---------------
SCF CONVERGENCE
---------------

  Last Energy change         ...   -2.4462e-07  Tolerance :   1.0000e-06
  Last MAX-Density change    ...    3.8925e-04  Tolerance :   1.0000e-05
  Last RMS-Density change    ...    8.5172e-06  Tolerance :   1.0000e-06
  Last DIIS Error            ...    1.9621e-03  Tolerance :   1.0000e-06
  Last Orbital Gradient      ...    2.3332e-04  Tolerance :   5.0000e-05
  Last Orbital Rotation      ...    4.3287e-04  Tolerance :   5.0000e-05


----------------
ORBITAL ENERGIES
----------------

  NO   OCC          E(Eh)            E(eV) 
   0   2.0000    -101.207919     -2754.0075 
   1   2.0000    -101.206346     -2753.9647 
   2   2.0000    -101.206344     -2753.9646 
   3   2.0000     -10.128831      -275.6195 
   4   2.0000     -10.126680      -275.5610 
   5   2.0000     -10.126631      -275.5596 
   6   2.0000     -10.069150      -273.9955 
   7   2.0000     -10.069030      -273.9922 
   8   2.0000     -10.068251      -273.9710 
   9   2.0000      -9.383636      -255.3417 
  10   2.0000      -9.382146      -255.3012 
  11   2.0000      -9.382144      -255.3011 
  12   2.0000      -7.129015      -193.9904 
  13   2.0000      -7.127289      -193.9434 
  14   2.0000      -7.127288      -193.9434 
  15   2.0000      -7.118654      -193.7084 
  16   2.0000      -7.117594      -193.6796 
  17   2.0000      -7.117148      -193.6674 
  18   2.0000      -7.117147      -193.6674 
  19   2.0000      -7.116384      -193.6466 
  20   2.0000      -7.116384      -193.6466 
  21   2.0000      -0.902667       -24.5628 
  22   2.0000      -0.851005       -23.1570 
  23   2.0000      -0.828166       -22.5355 
  24   2.0000      -0.804274       -21.8854 
  25   2.0000      -0.717903       -19.5351 
  26   2.0000      -0.717539       -19.5252 
  27   2.0000      -0.595253       -16.1976 
  28   2.0000      -0.594835       -16.1863 
  29   2.0000      -0.506190       -13.7741 
  30   2.0000      -0.481107       -13.0916 
  31   2.0000      -0.455990       -12.4081 
  32   2.0000      -0.428897       -11.6709 
  33   2.0000      -0.426662       -11.6101 
  34   2.0000      -0.415334       -11.3018 
  35   2.0000      -0.370746       -10.0885 
  36   2.0000      -0.368231       -10.0201 
  37   2.0000      -0.352139        -9.5822 
  38   2.0000      -0.331376        -9.0172 
  39   2.0000      -0.313279        -8.5248 
  40   2.0000      -0.310112        -8.4386 
  41   2.0000      -0.303069        -8.2469 
  42   2.0000      -0.281540        -7.6611 
  43   2.0000      -0.244498        -6.6531 
  44   2.0000      -0.243714        -6.6318 
  45   0.0000      -0.066240        -1.8025 
  46   0.0000      -0.065723        -1.7884 
  47   0.0000      -0.049949        -1.3592 
  48   0.0000       0.013811         0.3758 
  49   0.0000       0.030039         0.8174 
  50   0.0000       0.065375         1.7789 
  51   0.0000       0.078800         2.1443 
  52   0.0000       0.096979         2.6389 
  53   0.0000       0.098185         2.6717 
  54   0.0000       0.123472         3.3598 
  55   0.0000       0.146567         3.9883 
*Only the first 10 virtual orbitals were printed.

                    ********************************
                    * MULLIKEN POPULATION ANALYSIS *
                    ********************************

-----------------------
MULLIKEN ATOMIC CHARGES
-----------------------
   0 C :   -0.091419
   1 C :   -0.183360
   2 C :    0.112618
   3 C :    0.050264
   4 C :    0.112610
   5 C :   -0.183351
   6 Cl:   -0.077681
   7 Cl:   -0.051205
   8 Cl:   -0.077681
   9 H :    0.123612
  10 H :    0.132799
  11 H :    0.132794
Sum of atomic charges:    0.0000000

--------------------------------
MULLIKEN REDUCED ORBITAL CHARGES
--------------------------------
  0 C s       :     3.216316  s :     3.216316
      pz      :     0.957005  p :     2.790600
      px      :     0.900552
      py      :     0.933044
      dz2     :     0.004055  d :     0.075685
      dxz     :     0.024498
      dyz     :     0.005348
      dx2y2   :     0.020909
      dxy     :     0.020874
      f0      :     0.001832  f :     0.008818
      f+1     :     0.000652
      f-1     :     0.000695
      f+2     :     0.000202
      f-2     :     0.001264
      f+3     :     0.002479
      f-3     :     0.001694

  1 C s       :     3.256564  s :     3.256564
      pz      :     0.978194  p :     2.837340
      px      :     0.943067
      py      :     0.916079
      dz2     :     0.004371  d :     0.080606
      dxz     :     0.009466
      dyz     :     0.019411
      dx2y2   :     0.026277
      dxy     :     0.021081
      f0      :     0.001842  f :     0.008850
      f+1     :     0.000730
      f-1     :     0.000685
      f+2     :     0.001001
      f-2     :     0.000442
      f+3     :     0.002403
      f-3     :     0.001746

  2 C s       :     3.152797  s :     3.152797
      pz      :     0.995224  p :     2.554031
      px      :     0.730950
      py      :     0.827857
      dz2     :     0.007111  d :     0.168125
      dxz     :     0.030219
      dyz     :     0.028071
      dx2y2   :     0.047957
      dxy     :     0.054767
      f0      :     0.002182  f :     0.012430
      f+1     :     0.001000
      f-1     :     0.000826
      f+2     :     0.001239
      f-2     :     0.001148
      f+3     :     0.003799
      f-3     :     0.002235

  3 C s       :     3.175604  s :     3.175604
      pz      :     1.021291  p :     2.583650
      px      :     0.842982
      py      :     0.719377
      dz2     :     0.007257  d :     0.178116
      dxz     :     0.025663
      dyz     :     0.032119
      dx2y2   :     0.054485
      dxy     :     0.058593
      f0      :     0.002191  f :     0.012367
      f+1     :     0.000795
      f-1     :     0.001096
      f+2     :     0.001063
      f-2     :     0.001283
      f+3     :     0.003667
      f-3     :     0.002273

  4 C s       :     3.152807  s :     3.152807
      pz      :     0.995224  p :     2.554029
      px      :     0.730949
      py      :     0.827856
      dz2     :     0.007110  d :     0.168125
      dxz     :     0.030219
      dyz     :     0.028071
      dx2y2   :     0.047957
      dxy     :     0.054768
      f0      :     0.002182  f :     0.012430
      f+1     :     0.001000
      f-1     :     0.000826
      f+2     :     0.001239
      f-2     :     0.001148
      f+3     :     0.003799
      f-3     :     0.002235

  5 C s       :     3.256574  s :     3.256574
      pz      :     0.978194  p :     2.837321
      px      :     0.943056
      py      :     0.916071
      dz2     :     0.004371  d :     0.080606
      dxz     :     0.009467
      dyz     :     0.019410
      dx2y2   :     0.026277
      dxy     :     0.021082
      f0      :     0.001842  f :     0.008850
      f+1     :     0.000730
      f-1     :     0.000685
      f+2     :     0.001001
      f-2     :     0.000442
      f+3     :     0.002403
      f-3     :     0.001746

  6 Cls       :     5.913424  s :     5.913424
      pz      :     3.904270  p :    11.095875
      px      :     3.396441
      py      :     3.795165
      dz2     :     0.007214  d :     0.062788
      dxz     :     0.015205
      dyz     :     0.005654
      dx2y2   :     0.014698
      dxy     :     0.020017
      f0      :     0.000564  f :     0.005594
      f+1     :     0.000827
      f-1     :     0.000304
      f+2     :     0.000253
      f-2     :     0.000649
      f+3     :     0.001121
      f-3     :     0.001877

  7 Cls       :     5.916741  s :     5.916741
      pz      :     3.896201  p :    11.062226
      px      :     3.944710
      py      :     3.221315
      dz2     :     0.007644  d :     0.066337
      dxz     :     0.000587
      dyz     :     0.021228
      dx2y2   :     0.024873
      dxy     :     0.012005
      f0      :     0.000583  f :     0.005900
      f+1     :     0.000091
      f-1     :     0.001081
      f+2     :     0.000952
      f-2     :     0.000030
      f+3     :     0.001186
      f-3     :     0.001977

  8 Cls       :     5.913423  s :     5.913423
      pz      :     3.904270  p :    11.095876
      px      :     3.396456
      py      :     3.795151
      dz2     :     0.007214  d :     0.062788
      dxz     :     0.015205
      dyz     :     0.005654
      dx2y2   :     0.014698
      dxy     :     0.020018
      f0      :     0.000564  f :     0.005594
      f+1     :     0.000827
      f-1     :     0.000304
      f+2     :     0.000253
      f-2     :     0.000649
      f+3     :     0.001121
      f-3     :     0.001877

  9 H s       :     0.852689  s :     0.852689
      pz      :     0.005531  p :     0.023698
      px      :     0.004358
      py      :     0.013809

 10 H s       :     0.843453  s :     0.843453
      pz      :     0.005530  p :     0.023748
      px      :     0.011700
      py      :     0.006518

 11 H s       :     0.843458  s :     0.843458
      pz      :     0.005530  p :     0.023748
      px      :     0.011700
      py      :     0.006518



                     *******************************
                     * LOEWDIN POPULATION ANALYSIS *
                     *******************************

----------------------
LOEWDIN ATOMIC CHARGES
----------------------
   0 C :   -0.129074
   1 C :   -0.140854
   2 C :   -0.426358
   3 C :   -0.446343
   4 C :   -0.426359
   5 C :   -0.140854
   6 Cl:    0.410576
   7 Cl:    0.431997
   8 Cl:    0.410575
   9 H :    0.151083
  10 H :    0.152805
  11 H :    0.152805

-------------------------------
LOEWDIN REDUCED ORBITAL CHARGES
-------------------------------
  0 C s       :     2.768013  s :     2.768013
      pz      :     0.876851  p :     2.922311
      px      :     1.060688
      py      :     0.984773
      dz2     :     0.025713  d :     0.394218
      dxz     :     0.085207
      dyz     :     0.012506
      dx2y2   :     0.166922
      dxy     :     0.103871
      f0      :     0.003368  f :     0.044533
      f+1     :     0.004538
      f-1     :     0.003276
      f+2     :     0.001345
      f-2     :     0.008207
      f+3     :     0.015571
      f-3     :     0.008228

  1 C s       :     2.770957  s :     2.770957
      pz      :     0.892750  p :     2.939013
      px      :     1.017631
      py      :     1.028632
      dz2     :     0.026880  d :     0.386558
      dxz     :     0.028839
      dyz     :     0.065347
      dx2y2   :     0.126594
      dxy     :     0.138897
      f0      :     0.003563  f :     0.044326
      f+1     :     0.003621
      f-1     :     0.004417
      f+2     :     0.006827
      f-2     :     0.002911
      f+3     :     0.014433
      f-3     :     0.008553

  2 C s       :     2.788809  s :     2.788809
      pz      :     0.922752  p :     2.954739
      px      :     0.968155
      py      :     1.063833
      dz2     :     0.043360  d :     0.619120
      dxz     :     0.092917
      dyz     :     0.086628
      dx2y2   :     0.183223
      dxy     :     0.212993
      f0      :     0.004522  f :     0.063690
      f+1     :     0.005313
      f-1     :     0.004849
      f+2     :     0.007772
      f-2     :     0.007335
      f+3     :     0.022558
      f-3     :     0.011341

  3 C s       :     2.791367  s :     2.791367
      pz      :     0.943016  p :     2.978212
      px      :     1.081317
      py      :     0.953879
      dz2     :     0.044106  d :     0.613609
      dxz     :     0.079803
      dyz     :     0.097512
      dx2y2   :     0.206473
      dxy     :     0.185714
      f0      :     0.004681  f :     0.063155
      f+1     :     0.004836
      f-1     :     0.005537
      f+2     :     0.006979
      f-2     :     0.008346
      f+3     :     0.021298
      f-3     :     0.011480

  4 C s       :     2.788809  s :     2.788809
      pz      :     0.922752  p :     2.954739
      px      :     0.968152
      py      :     1.063836
      dz2     :     0.043360  d :     0.619121
      dxz     :     0.092917
      dyz     :     0.086628
      dx2y2   :     0.183224
      dxy     :     0.212992
      f0      :     0.004522  f :     0.063690
      f+1     :     0.005313
      f-1     :     0.004849
      f+2     :     0.007772
      f-2     :     0.007335
      f+3     :     0.022558
      f-3     :     0.011341

  5 C s       :     2.770957  s :     2.770957
      pz      :     0.892750  p :     2.939013
      px      :     1.017633
      py      :     1.028630
      dz2     :     0.026880  d :     0.386558
      dxz     :     0.028841
      dyz     :     0.065346
      dx2y2   :     0.126592
      dxy     :     0.138900
      f0      :     0.003563  f :     0.044326
      f+1     :     0.003621
      f-1     :     0.004417
      f+2     :     0.006827
      f-2     :     0.002911
      f+3     :     0.014433
      f-3     :     0.008553

  6 Cls       :     5.552674  s :     5.552674
      pz      :     3.830110  p :    10.923286
      px      :     3.377534
      py      :     3.715642
      dz2     :     0.012201  d :     0.101647
      dxz     :     0.022485
      dyz     :     0.008177
      dx2y2   :     0.024449
      dxy     :     0.034335
      f0      :     0.001206  f :     0.011817
      f+1     :     0.001579
      f-1     :     0.000615
      f+2     :     0.000542
      f-2     :     0.001474
      f+3     :     0.002740
      f-3     :     0.003661

  7 Cls       :     5.545995  s :     5.545995
      pz      :     3.820913  p :    10.902472
      px      :     3.850470
      py      :     3.231088
      dz2     :     0.012579  d :     0.107004
      dxz     :     0.000512
      dyz     :     0.031994
      dx2y2   :     0.042230
      dxy     :     0.019689
      f0      :     0.001266  f :     0.012533
      f+1     :     0.000198
      f-1     :     0.002089
      f+2     :     0.002224
      f-2     :     0.000017
      f+3     :     0.002843
      f-3     :     0.003896

  8 Cls       :     5.552674  s :     5.552674
      pz      :     3.830110  p :    10.923286
      px      :     3.377547
      py      :     3.715630
      dz2     :     0.012201  d :     0.101647
      dxz     :     0.022484
      dyz     :     0.008177
      dx2y2   :     0.024449
      dxy     :     0.034335
      f0      :     0.001206  f :     0.011817
      f+1     :     0.001579
      f-1     :     0.000615
      f+2     :     0.000542
      f-2     :     0.001474
      f+3     :     0.002740
      f-3     :     0.003661

  9 H s       :     0.788286  s :     0.788286
      pz      :     0.014027  p :     0.060631
      px      :     0.011115
      py      :     0.035489

 10 H s       :     0.785545  s :     0.785545
      pz      :     0.014457  p :     0.061650
      px      :     0.030390
      py      :     0.016804

 11 H s       :     0.785545  s :     0.785545
      pz      :     0.014457  p :     0.061650
      px      :     0.030389
      py      :     0.016804



                      *****************************
                      * MAYER POPULATION ANALYSIS *
                      *****************************

  NA   - Mulliken gross atomic population
  ZA   - Total nuclear charge
  QA   - Mulliken gross atomic charge
  VA   - Mayer's total valence
  BVA  - Mayer's bonded valence
  FA   - Mayer's free valence

  ATOM       NA         ZA         QA         VA         BVA        FA
  0 C      6.0914     6.0000    -0.0914     3.8770     3.8770     0.0000
  1 C      6.1834     6.0000    -0.1834     3.9314     3.9314     0.0000
  2 C      5.8874     6.0000     0.1126     3.8312     3.8312     0.0000
  3 C      5.9497     6.0000     0.0503     3.8310     3.8310     0.0000
  4 C      5.8874     6.0000     0.1126     3.8311     3.8311     0.0000
  5 C      6.1834     6.0000    -0.1834     3.9314     3.9314    -0.0000
  6 Cl    17.0777    17.0000    -0.0777     1.2576     1.2576     0.0000
  7 Cl    17.0512    17.0000    -0.0512     1.2979     1.2979     0.0000
  8 Cl    17.0777    17.0000    -0.0777     1.2576     1.2576    -0.0000
  9 H      0.8764     1.0000     0.1236     0.9730     0.9730     0.0000
 10 H      0.8672     1.0000     0.1328     0.9814     0.9814     0.0000
 11 H      0.8672     1.0000     0.1328     0.9814     0.9814     0.0000

  Mayer bond orders larger than 0.100000
B(  0-C ,  1-C ) :   1.3861 B(  0-C ,  5-C ) :   1.3861 B(  0-C ,  9-H ) :   0.9679 
B(  1-C ,  2-C ) :   1.3711 B(  1-C , 10-H ) :   0.9629 B(  2-C ,  3-C ) :   1.2687 
B(  2-C ,  8-Cl) :   1.0697 B(  3-C ,  4-C ) :   1.2687 B(  3-C ,  7-Cl) :   1.1686 
B(  4-C ,  5-C ) :   1.3711 B(  4-C ,  6-Cl) :   1.0697 B(  5-C , 11-H ) :   0.9629 


-------
TIMINGS
-------

Total SCF time: 0 days 0 hours 0 min 30 sec 

Total time                  ....      30.973 sec
Sum of individual times     ....      30.409 sec  ( 98.2%)

SCF preparation             ....       0.181 sec  (  0.6%)
Fock matrix formation       ....      29.070 sec  ( 93.9%)
  Startup                   ....       0.074 sec  (  0.3% of F)
  Split-RI-J                ....       4.313 sec  ( 14.8% of F)
  XC integration            ....      24.057 sec  ( 82.8% of F)
    XC Preparation          ....       0.000 sec  (  0.0% of XC)
    Basis function eval.    ....       3.557 sec  ( 14.8% of XC)
    Density eval.           ....       7.252 sec  ( 30.1% of XC)
    XC-Functional eval.     ....       1.848 sec  (  7.7% of XC)
    XC-Potential eval.      ....      10.464 sec  ( 43.5% of XC)
Diagonalization             ....       0.000 sec  (  0.0%)
Density matrix formation    ....       0.255 sec  (  0.8%)
Total Energy calculation    ....       0.038 sec  (  0.1%)
Population analysis         ....       0.040 sec  (  0.1%)
Orbital Transformation      ....       0.088 sec  (  0.3%)
Orbital Orthonormalization  ....       0.000 sec  (  0.0%)
DIIS solution               ....       0.491 sec  (  1.6%)
SOSCF solution              ....       0.245 sec  (  0.8%)
Finished LeanSCF after  31.0 sec

Maximum memory used throughout the entire LEANSCF-calculation: 35.2 MB

------------------------------------------------------------------------------
                         ORCA PROPERTY INTEGRAL CALCULATIONS
------------------------------------------------------------------------------

GBWName                                   ... censo.gbw
Number of atoms                           ...     12
Number of basis functions                 ...    315
Max core memory                           ...   1024 MB

Dipole integrals                          ... YES
Quadrupole integrals                      ...  NO
Linear momentum integrals                 ...  NO
Angular momentum integrals                ...  NO
Higher moments length integrals           ...  NO
Higher moments velocity integrals         ...  NO
Kinetic energy integrals                  ...  NO
GIAO right hand sides                     ...  NO
GIAO dipole derivative integrals          ...  NO
SOC integrals                             ...  NO
EPR diamagnetic integrals (GIAO)          ...  NO
EPR gauge integrals                       ...  NO
Field gradient integrals                  ...  NO (   0 nuclei)
Spin-dipole/Fermi contact integrals       ...  NO (   0 nuclei)
Contact density integrals                 ...  NO (   0 nuclei)
Nucleus-orbit integrals                   ...  NO (   0 nuclei)
Geometric perturbations                   ... YES (  12 nuclei)

Choice of electric origin   ... Center of mass
Position of electric origin ... (  0.0000, -0.0008,  0.0000) 
Choice of magnetic origin   ... GIAO
Position of magnetic origin ... (  0.0000,  0.0000,  0.0000) 

Calculating integrals                     ... Electric Dipole (Length)     done (  0.1 sec)
Calculating integrals                     ... Geometrical perturbation right hand sides

-----------------------
GEOMETRIC PERTURBATIONS (12 nuclei)
-----------------------

MaxCore                            ...   1024 MB
Number of batches                  ...      1

BATCH   0: Atoms    0 -   11 ( 36 perturbations)
   => H(core) and overlap derivative integrals     ... done (     0.4 sec)
   => Making and storing internal U-coefficients   ... done (     0.4 sec)
   => RI-J derivative integrals                    ... done (     5.3 sec)
   => RI-J response operators                      ... done (     1.2 sec)
   => XC derivative integrals                      ... done (   240.1 sec)
   => XC response operators                        ... done (    60.8 sec)
   => Completing and storing right hand sides      ... done (     0.2 sec)
   => Total time for right hand sides = 310.7 sec

  geometrical perturbations done (310.7 sec)

Property integrals calculated in 310.8 sec

Maximum memory used throughout the entire PROPINT-calculation: 138.9 MB


-------------------------------------------------------------------------------
                          DFT DISPERSION CORRECTION                            
                                                                               
                                DFTD4 V3.4.0                                   
-------------------------------------------------------------------------------
The R2SCAN3C composite method is recognized
Using three-body term ABC
Active option DFTDOPT                   ...         5   

-------------------------   ----------------
Dispersion correction           -0.005601304
-------------------------   ----------------

------------------   -----------------
gCP correction             0.006128279
------------------   -----------------

-------------------------   --------------------
FINAL SINGLE POINT ENERGY     -1610.951284286111
-------------------------   --------------------

------------------------------------------------------------------------------
                            ORCA SCF RESPONSE CALCULATION
------------------------------------------------------------------------------

GBWName                                 ... censo.gbw
Number of atoms                         ...     12
Number of basis functions               ...    315
Max core memory                         ...   1024 MB

Electric field perturbation             ...  NO
Quadrupolar field perturbation          ...  NO
Magnetic field perturbation (no GIAO)   ...  NO
Magnetic field perturbation (with GIAO) ...  NO
Linear momentum (velocity) perturbation ...  NO
Spin-orbit coupling perturbation        ...  NO
Choice of electric origin               ... Center of mass
Position of electric origin             ...     0.000005    -0.000756     0.000000
Choice of magnetic origin               ... GIAO
Position of magnetic origin             ...     0.000000     0.000000     0.000000
Nuclear geometric perturbations         ... YES (  36 perturbations)
Nucleus-orbit perturbations             ...  NO (   0 perturbations)
Spin-dipole/Fermi contact perturbations ...  NO (   0 perturbations)

Total number of real perturbations      ...     36
Total number of imaginary perturbations ...      0
Total number of triplet perturbations   ...      0
Total number of SOC perturbations       ...      0


                                **********************
                                * REAL PERTURBATIONS *
                                **********************



-------------------
SHARK CP-SCF DRIVER
-------------------

Dimension of the orbital basis          ...    315
Dimension of the CPSCF-problem          ...  12150
Number of operators                     ...      1
Max. number of iterations               ...    128
Convergence Tolerance                   ... 1.0e-03
Number of perturbations                 ...     36
Perturbation type                       ... REAL

----------------------------
POPLE LINEAR EQUATION SOLVER
----------------------------

  ITERATION   0:   ||err||_max =   4.3112e-01 (  20.9 sec   0/ 36 done)
  ITERATION   1:   ||err||_max =   5.0871e-02 (  21.5 sec   0/ 36 done)
  ITERATION   2:   ||err||_max =   1.6335e-02 (  21.8 sec   9/ 36 done)
  ITERATION   3:   ||err||_max =   3.9342e-03 (  17.6 sec  16/ 36 done)
  ITERATION   4:   ||err||_max =   1.3762e-03 (  13.4 sec  27/ 36 done)
  ITERATION   5:   ||err||_max =   5.3839e-04 (   6.8 sec  36/ 36 done)

CP-SCF equations solved in 103.4 sec
Response densities calculated in   0.1 sec

Maximum memory used throughout the entire SCFRESP-calculation: 95.7 MB

------------------------------------------------------------------------------
                              ORCA PROPERTY CALCULATIONS
------------------------------------------------------------------------------

GBWName                                 ... censo.gbw
Number of atoms                         ...     12
Number of basis functions               ...    315
Max core memory                         ...   1024 MB

Electric properties:
Dipole moment                           ... YES
Quadrupole moment                       ...  NO
Static polarizability (Dipole/Dipole)   ...  NO
Static polarizability (Dipole/Quad.)    ...  NO
Static polarizability (Quad./Quad.)     ...  NO
Static polarizability (Velocity)        ...  NO

Atomic electric properties:
Dipole moment                           ...  NO
Quadrupole moment                       ...  NO
Static polarizability                   ...  NO

Choice of electric origin               ... Center of mass
Position of electric origin             ...     0.000005    -0.000756     0.000000

General magnetic properties:
Magnetizability                         ...  NO

EPR properties:
g-Tensor (aka g-matrix)                 ...  NO
Zero-Field splitting spin-orbit         ...  NO
Zero-field splitting spin-spin          ...  NO
Hyperfine couplings                     ...  NO (   0 nuclei)
Quadrupole couplings                    ...  NO (   0 nuclei)
Contact density                         ...  NO (   0 nuclei)

NMR properties:
Chemical shifts                         ...  NO (   0 nuclei)
Spin-rotation constants                 ...  NO (   0 nuclei)
Spin-spin couplings                     ...  NO (   0 nuclei,    0 pairs)

Choice of magnetic origin               ... GIAO
Position of magnetic origin             ...     0.000000     0.000000     0.000000

Properties with geometric perturbations:
SCF Hessian                             ... YES
IR spectrum                             ... YES
VCD spectrum                            ...  NO
X-ray spectroscopy properties:
SCF XES/XAS/RIXS spectra                ...  NO


-------------
DIPOLE MOMENT
-------------

Method             : SCF
Type of density    : Electron Density
Multiplicity       :   1
Irrep              :   0
Energy             : -1610.9518112611690412 Eh
Relativity type    : 
Basis              : AO
                                X                 Y                 Z
Electronic contribution:     -0.000136623      10.540843555      -0.000092543
Nuclear contribution   :      0.000148979     -11.532143836       0.000101564
                        -----------------------------------------
Total Dipole Moment    :      0.000012356      -0.991300281       0.000009021
                        -----------------------------------------
Magnitude (a.u.)       :      0.991300281
Magnitude (Debye)      :      2.519685072



--------------------
Rotational spectrum 
--------------------
 
Rotational constants in cm-1:             0.049456             0.027778             0.017787 
Rotational constants in MHz :          1482.644096           832.750513           533.245015 

Dipole components along the rotational axes: 
x,y,z [a.u.] :     0.000001    -0.991300     0.000000 
x,y,z [Debye]:     0.000003    -2.519685     0.000001 

 

Dipole moment calculation done in   0.0 sec 

-----------
SCF HESSIAN
-----------

Occupied/Occupied contributions to the Hessian:
   => Occupied/Occupied contributions              ... done (  0.0 sec)
Perturbed density contributions to the Hessian:
   => Perturbed density contributions              ... done (  0.0 sec)
Explicit contributions to the Hessian:
   => Nuclear repulsion Hessian                    ... done (  0.0 sec)
   => HCore and overlap Hessian                    ... done (  9.7 sec)
   => RI-J Hessian                                 ... done ( 14.0 sec)
   => XC-Hessian                                   ... done ( 70.1 sec)
   => Van der Waals-Hessian                        ... done (  2.3 sec)
   => GCP-Hessian                                  ... done (  0.0 sec)
   => Explicit contributions done
Dipole derivatives                                 ... done (  0.1 sec)
Mass weighting the Hessian           ... done
Calculating normal modes             ... done
Scaling frequencies                  ... done

-----------------------
VIBRATIONAL FREQUENCIES
-----------------------

Scaling factor for frequencies =  1.000000000  (already applied!)

     0:       0.00 cm**-1
     1:       0.00 cm**-1
     2:       0.00 cm**-1
     3:       0.00 cm**-1
     4:       0.00 cm**-1
     5:       0.00 cm**-1
     6:      91.13 cm**-1
     7:     205.96 cm**-1
     8:     211.27 cm**-1
     9:     216.74 cm**-1
    10:     254.84 cm**-1
    11:     342.78 cm**-1
    12:     401.04 cm**-1
    13:     486.78 cm**-1
    14:     499.29 cm**-1
    15:     516.78 cm**-1
    16:     537.37 cm**-1
    17:     713.09 cm**-1
    18:     737.85 cm**-1
    19:     774.34 cm**-1
    20:     780.21 cm**-1
    21:     896.23 cm**-1
    22:     957.61 cm**-1
    23:    1045.55 cm**-1
    24:    1095.14 cm**-1
    25:    1153.12 cm**-1
    26:    1174.55 cm**-1
    27:    1214.42 cm**-1
    28:    1322.62 cm**-1
    29:    1430.21 cm**-1
    30:    1455.70 cm**-1
    31:    1588.88 cm**-1
    32:    1595.43 cm**-1
    33:    3181.29 cm**-1
    34:    3197.40 cm**-1
    35:    3203.16 cm**-1


------------
NORMAL MODES
------------

These modes are the Cartesian displacements weighted by the diagonal matrix
M(i,i)=1/sqrt(m[i]) where m[i] is the mass of the displaced atom
Thus, these vectors are normalized but *not* orthogonal

                  0          1          2          3          4          5    
      0       0.000000   0.000000   0.000000   0.000000   0.000000   0.000000
      1       0.000000   0.000000   0.000000   0.000000   0.000000   0.000000
      2       0.000000   0.000000   0.000000   0.000000   0.000000   0.000000
      3       0.000000   0.000000   0.000000   0.000000   0.000000   0.000000
      4       0.000000   0.000000   0.000000   0.000000   0.000000   0.000000
      5       0.000000   0.000000   0.000000   0.000000   0.000000   0.000000
      6       0.000000   0.000000   0.000000   0.000000   0.000000   0.000000
      7       0.000000   0.000000   0.000000   0.000000   0.000000   0.000000
      8       0.000000   0.000000   0.000000   0.000000   0.000000   0.000000
      9       0.000000   0.000000   0.000000   0.000000   0.000000   0.000000
     10       0.000000   0.000000   0.000000   0.000000   0.000000   0.000000
     11       0.000000   0.000000   0.000000   0.000000   0.000000   0.000000
     12       0.000000   0.000000   0.000000   0.000000   0.000000   0.000000
     13       0.000000   0.000000   0.000000   0.000000   0.000000   0.000000
     14       0.000000   0.000000   0.000000   0.000000   0.000000   0.000000
     15       0.000000   0.000000   0.000000   0.000000   0.000000   0.000000
     16       0.000000   0.000000   0.000000   0.000000   0.000000   0.000000
     17       0.000000   0.000000   0.000000   0.000000   0.000000   0.000000
     18       0.000000   0.000000   0.000000   0.000000   0.000000   0.000000
     19       0.000000   0.000000   0.000000   0.000000   0.000000   0.000000
     20       0.000000   0.000000   0.000000   0.000000   0.000000   0.000000
     21       0.000000   0.000000   0.000000   0.000000   0.000000   0.000000
     22       0.000000   0.000000   0.000000   0.000000   0.000000   0.000000
     23       0.000000   0.000000   0.000000   0.000000   0.000000   0.000000
     24       0.000000   0.000000   0.000000   0.000000   0.000000   0.000000
     25       0.000000   0.000000   0.000000   0.000000   0.000000   0.000000
     26       0.000000   0.000000   0.000000   0.000000   0.000000   0.000000
     27       0.000000   0.000000   0.000000   0.000000   0.000000   0.000000
     28       0.000000   0.000000   0.000000   0.000000   0.000000   0.000000
     29       0.000000   0.000000   0.000000   0.000000   0.000000   0.000000
     30       0.000000   0.000000   0.000000   0.000000   0.000000   0.000000
     31       0.000000   0.000000   0.000000   0.000000   0.000000   0.000000
     32       0.000000   0.000000   0.000000   0.000000   0.000000   0.000000
     33       0.000000   0.000000   0.000000   0.000000   0.000000   0.000000
     34       0.000000   0.000000   0.000000   0.000000   0.000000   0.000000
     35       0.000000   0.000000   0.000000   0.000000   0.000000   0.000000
                  6          7          8          9         10         11    
      0      -0.000000   0.000000   0.000004   0.065895   0.000000  -0.000003
      1       0.000003  -0.000001   0.160112  -0.000017   0.000002   0.192253
      2       0.337111   0.000001  -0.000002  -0.000000   0.242964  -0.000002
      3      -0.000000   0.000000  -0.042430   0.040106   0.000000   0.118019
      4       0.000002   0.000002   0.185517   0.035118   0.000000   0.055469
      5       0.185436   0.344278   0.000008  -0.000002   0.007147  -0.000001
      6      -0.000000  -0.000000  -0.002904   0.101574   0.000000   0.219752
      7       0.000000   0.000001   0.182327   0.049733  -0.000003   0.034147
      8       0.033166   0.154524   0.000004  -0.000001  -0.319279  -0.000000
      9      -0.000000  -0.000000   0.000001   0.058652   0.000000   0.000002
     10       0.000001  -0.000001   0.278088  -0.000029  -0.000003  -0.216622
     11       0.138661  -0.000001  -0.000001   0.000001  -0.436582   0.000002
     12      -0.000000  -0.000000   0.002917   0.101575   0.000000  -0.219754
     13       0.000000  -0.000003   0.182318  -0.049770  -0.000003   0.034141
     14       0.033166  -0.154525  -0.000004   0.000002  -0.319279  -0.000001
     15      -0.000000   0.000000   0.042432   0.040098   0.000000  -0.118021
     16       0.000002  -0.000004   0.185512  -0.035157   0.000000   0.055466
     17       0.185436  -0.344279  -0.000011   0.000002   0.007149   0.000000
     18       0.000000   0.000002  -0.347503   0.313124  -0.000001  -0.456521
     19      -0.000003   0.000003  -0.378129   0.277736   0.000000   0.205893
     20      -0.390551   0.087906   0.000005  -0.000003   0.072722  -0.000002
     21      -0.000000  -0.000001  -0.000068  -0.769832  -0.000000   0.000006
     22       0.000004  -0.000002   0.342267  -0.000047   0.000001  -0.462716
     23       0.448770   0.000000  -0.000003  -0.000001   0.099736   0.000004
     24       0.000000  -0.000001   0.347564   0.313055   0.000000   0.456516
     25      -0.000003   0.000001  -0.378166  -0.277646  -0.000000   0.205904
     26      -0.390550  -0.087906   0.000001   0.000003   0.072722  -0.000001
     27      -0.000000   0.000000   0.000007   0.110561   0.000000  -0.000003
     28       0.000004  -0.000001   0.161049  -0.000016   0.000006   0.191284
     29       0.487603   0.000001  -0.000005  -0.000001   0.639988  -0.000002
     30      -0.000000  -0.000000  -0.031455   0.040768   0.000000   0.019134
     31       0.000001   0.000004   0.206746   0.035213   0.000003  -0.122789
     32       0.161161   0.591496   0.000013  -0.000004   0.241116  -0.000001
     33      -0.000000   0.000000   0.031456   0.040762   0.000000  -0.019132
     34       0.000001  -0.000006   0.206741  -0.035257   0.000002  -0.122790
     35       0.161160  -0.591496  -0.000019   0.000003   0.241120   0.000003
                 12         13         14         15         16         17    
      0       0.341478  -0.037570  -0.000005   0.000000   0.000000   0.000000
      1       0.000004   0.000003   0.403394  -0.000003  -0.000001  -0.000003
      2       0.000000   0.000001  -0.000004  -0.300410  -0.000002  -0.184204
      3       0.225708  -0.196681  -0.010845  -0.000000  -0.000000  -0.000001
      4       0.116357   0.293358   0.321533   0.000002   0.000001   0.000001
      5      -0.000001  -0.000003  -0.000001   0.218642   0.133986   0.096558
      6      -0.089425  -0.173667  -0.037192  -0.000000   0.000000  -0.000000
      7       0.075849   0.258481   0.217116   0.000001  -0.000004  -0.000001
      8      -0.000000  -0.000002  -0.000004   0.076660  -0.423334  -0.206229
      9      -0.126877  -0.263763   0.000003  -0.000000  -0.000001   0.000000
     10      -0.000002  -0.000003   0.096600  -0.000003  -0.000000   0.000003
     11       0.000001   0.000000  -0.000001  -0.309101  -0.000003   0.286496
     12      -0.089423  -0.173659   0.037191  -0.000000  -0.000001   0.000001
     13      -0.075851  -0.258481   0.217123   0.000000   0.000003  -0.000002
     14       0.000001   0.000001  -0.000000   0.076654   0.423335  -0.206228
     15       0.225711  -0.196673   0.010842  -0.000000   0.000000   0.000000
     16      -0.116351  -0.293357   0.321541   0.000001  -0.000002   0.000001
     17       0.000002   0.000002  -0.000003   0.218643  -0.133983   0.096558
     18      -0.116668   0.131768   0.133713   0.000000  -0.000000  -0.000000
     19       0.158371  -0.014290  -0.126089   0.000000   0.000000   0.000000
     20      -0.000002   0.000000   0.000001  -0.014108  -0.030781   0.004903
     21       0.036526   0.088763   0.000003   0.000000   0.000000  -0.000000
     22       0.000000  -0.000001  -0.311392   0.000000   0.000001  -0.000000
     23      -0.000000  -0.000000   0.000003   0.031395   0.000000  -0.011452
     24      -0.116664   0.131765  -0.133713   0.000000   0.000000  -0.000000
     25      -0.158374   0.014291  -0.126093  -0.000000   0.000001   0.000000
     26       0.000001   0.000000   0.000001  -0.014109   0.030781   0.004903
     27       0.434849   0.322614  -0.000010   0.000001   0.000001   0.000000
     28       0.000006   0.000008   0.408444  -0.000006  -0.000001   0.000001
     29       0.000000   0.000002  -0.000004  -0.645832  -0.000005   0.258018
     30       0.341057  -0.148576  -0.024093  -0.000001  -0.000000  -0.000001
     31       0.324328   0.383638   0.309331   0.000003   0.000005   0.000006
     32      -0.000004  -0.000005   0.000002   0.379712   0.549447   0.597300
     33       0.341065  -0.148566   0.024088  -0.000000   0.000001  -0.000001
     34      -0.324319  -0.383636   0.309342   0.000002  -0.000005   0.000005
     35       0.000004   0.000004  -0.000005   0.379717  -0.549442   0.597296
                 18         19         20         21         22         23    
      0      -0.000005  -0.054110  -0.000000   0.000000  -0.000000   0.000002
      1       0.417446   0.000000  -0.000000  -0.000000   0.000001  -0.140228
      2      -0.000004   0.000001  -0.057746  -0.000000   0.117021   0.000001
      3       0.259892  -0.169857   0.000000   0.000000  -0.000000  -0.322695
      4      -0.039413   0.226315  -0.000000  -0.000001  -0.000001   0.155448
      5       0.000001  -0.000001  -0.098646  -0.119519  -0.067910  -0.000002
      6       0.213565   0.366495   0.000001  -0.000000  -0.000000   0.259094
      7      -0.086865   0.183516   0.000001   0.000000  -0.000000   0.089078
      8      -0.000001  -0.000002   0.097828   0.037280  -0.001768  -0.000001
      9       0.000003   0.362873   0.000001  -0.000000  -0.000000   0.000006
     10      -0.297962   0.000004  -0.000001   0.000000   0.000000  -0.435034
     11       0.000004   0.000000  -0.052606  -0.000000   0.014859   0.000004
     12      -0.213565   0.366499   0.000001   0.000000   0.000000  -0.259096
     13      -0.086869  -0.183507   0.000000  -0.000000  -0.000000   0.089072
     14      -0.000001   0.000002   0.097828  -0.037279  -0.001768  -0.000001
     15      -0.259890  -0.169853  -0.000001  -0.000000   0.000000   0.322691
     16      -0.039419  -0.226320  -0.000001   0.000001  -0.000001   0.155456
     17       0.000001   0.000003  -0.098647   0.119519  -0.067909  -0.000001
     18       0.042207  -0.114014  -0.000000  -0.000000  -0.000000   0.018557
     19      -0.029316   0.049533   0.000000   0.000000   0.000000  -0.007391
     20       0.000000  -0.000001  -0.005654   0.003242  -0.001002   0.000000
     21      -0.000001  -0.006373  -0.000000   0.000000   0.000000  -0.000001
     22       0.113559   0.000000   0.000000  -0.000000  -0.000000   0.048437
     23      -0.000001  -0.000000   0.001787   0.000000  -0.000248  -0.000000
     24      -0.042206  -0.114013  -0.000000   0.000000   0.000000  -0.018557
     25      -0.029317  -0.049536  -0.000000  -0.000000   0.000000  -0.007391
     26       0.000000   0.000000  -0.005654  -0.003242  -0.001002   0.000000
     27      -0.000006   0.428820   0.000001   0.000000  -0.000000   0.000002
     28       0.417204   0.000007   0.000007  -0.000000  -0.000007  -0.129161
     29      -0.000006  -0.000010   0.689018   0.000004  -0.746990  -0.000001
     30       0.066795  -0.274976  -0.000001  -0.000001  -0.000001  -0.426708
     31      -0.381636   0.040030   0.000004   0.000006   0.000004  -0.013661
     32       0.000006  -0.000009   0.490143   0.695926   0.457638   0.000001
     33      -0.066784  -0.274976  -0.000001   0.000000   0.000000   0.426709
     34      -0.381638  -0.040040   0.000003  -0.000005   0.000003  -0.013650
     35       0.000005  -0.000009   0.490145  -0.695929   0.457632   0.000000
                 24         25         26         27         28         29    
      0      -0.000003  -0.000000   0.082817  -0.025454  -0.320363  -0.000000
      1       0.241703  -0.024011   0.000001  -0.000000  -0.000004   0.102110
      2      -0.000002   0.000000   0.000000  -0.000000  -0.000000  -0.000001
      3      -0.173187  -0.011289  -0.058667  -0.035923   0.150434  -0.108353
      4      -0.022244  -0.075686   0.000639   0.042812   0.297264  -0.035524
      5       0.000000   0.000001  -0.000000  -0.000000  -0.000003   0.000000
      6      -0.143369   0.144014  -0.046874  -0.032906   0.238252   0.168407
      7      -0.127701   0.084346  -0.092619  -0.098426  -0.331292  -0.161859
      8       0.000001  -0.000001   0.000001   0.000001   0.000003   0.000001
      9       0.000000  -0.000004   0.050457   0.120838  -0.466831  -0.000002
     10       0.002221   0.225289   0.000001   0.000002  -0.000004   0.190652
     11       0.000000  -0.000002   0.000000   0.000000  -0.000000  -0.000002
     12       0.143372  -0.144015  -0.046877  -0.032909   0.238240  -0.168402
     13      -0.127697   0.084341   0.092619   0.098426   0.331293  -0.161866
     14       0.000001  -0.000001  -0.000001  -0.000001  -0.000003   0.000001
     15       0.173188   0.011291  -0.058668  -0.035922   0.150443   0.108352
     16      -0.022240  -0.075686  -0.000640  -0.042813  -0.297259  -0.035518
     17       0.000000   0.000001  -0.000000   0.000000   0.000003   0.000000
     18      -0.017669   0.015546   0.005352   0.002711  -0.001451   0.006027
     19       0.014933  -0.006967  -0.005723  -0.004535   0.002257   0.002690
     20      -0.000000   0.000000   0.000000   0.000000  -0.000000  -0.000000
     21      -0.000000   0.000000  -0.003267  -0.003899   0.001251   0.000000
     22       0.006150  -0.025602  -0.000000  -0.000000  -0.000000  -0.007768
     23      -0.000000   0.000000   0.000000   0.000000   0.000000   0.000000
     24       0.017669  -0.015546   0.005352   0.002711  -0.001451  -0.006028
     25       0.014933  -0.006968   0.005723   0.004535  -0.002257   0.002689
     26      -0.000000   0.000000  -0.000000  -0.000000   0.000000  -0.000000
     27      -0.000001  -0.000003   0.943712  -0.123333   0.314895   0.000000
     28       0.262269  -0.027875   0.000012  -0.000002   0.000004   0.122373
     29       0.000000   0.000001   0.000000   0.000000   0.000001  -0.000000
     30      -0.427346  -0.296339  -0.139051   0.286753  -0.069872   0.234752
     31      -0.431122  -0.593129  -0.127992   0.623387  -0.087950   0.588545
     32       0.000003   0.000005   0.000001  -0.000005   0.000001  -0.000004
     33       0.427356   0.296354  -0.139054   0.286769  -0.069878  -0.234763
     34      -0.431110  -0.593120   0.127986  -0.623382   0.087961   0.588533
     35       0.000003   0.000004  -0.000001   0.000005  -0.000002  -0.000004
                 30         31         32         33         34         35    
      0       0.113362   0.450876  -0.000006  -0.000001  -0.003838  -0.000001
      1       0.000002   0.000001  -0.190861   0.073790  -0.000003   0.045795
      2       0.000000   0.000000   0.000002  -0.000001   0.000000  -0.000000
      3       0.012985  -0.236741   0.120556   0.024586   0.053104  -0.048006
      4       0.151535  -0.067695   0.335787  -0.016209  -0.031080   0.025660
      5      -0.000001   0.000000  -0.000003   0.000000   0.000000  -0.000000
      6      -0.084429   0.174910   0.040508   0.000535   0.000677  -0.000629
      7      -0.079432  -0.096264  -0.266908   0.000502   0.002386  -0.002523
      8       0.000001   0.000001   0.000002  -0.000000  -0.000000   0.000000
      9       0.131717  -0.273811   0.000004  -0.000000  -0.000820  -0.000000
     10       0.000003  -0.000002   0.120346   0.000095   0.000000  -0.000300
     11       0.000000  -0.000000  -0.000001  -0.000000  -0.000000  -0.000000
     12      -0.084432   0.174907  -0.040509  -0.000535   0.000677   0.000629
     13       0.079429   0.096259  -0.266915   0.000502  -0.002385  -0.002523
     14      -0.000001  -0.000001   0.000002  -0.000000   0.000000   0.000000
     15       0.012990  -0.236748  -0.120555  -0.024584   0.053099   0.048011
     16      -0.151535   0.067703   0.335783  -0.016209   0.031079   0.025665
     17       0.000001  -0.000001  -0.000003   0.000000  -0.000000  -0.000000
     18       0.002503   0.001174   0.001751   0.000012  -0.000090  -0.000064
     19      -0.002581  -0.003886   0.001649   0.000007   0.000054   0.000061
     20       0.000000   0.000000  -0.000000  -0.000000  -0.000000  -0.000000
     21      -0.003602   0.002858  -0.000000   0.000000  -0.000006  -0.000000
     22      -0.000000   0.000000   0.002643  -0.000036  -0.000000   0.000022
     23       0.000000   0.000000  -0.000000  -0.000000   0.000000  -0.000000
     24       0.002503   0.001174  -0.001751  -0.000012  -0.000090   0.000064
     25       0.002581   0.003887   0.001648   0.000007  -0.000054   0.000061
     26      -0.000000  -0.000000  -0.000000  -0.000000  -0.000000  -0.000000
     27      -0.663343  -0.632458   0.000015   0.000011   0.004412   0.000007
     28      -0.000008  -0.000013  -0.213344  -0.860688   0.000032  -0.499898
     29      -0.000000  -0.000001   0.000001   0.000008   0.000000   0.000005
     30      -0.301861  -0.093440  -0.304840  -0.307326  -0.612013   0.530463
     31      -0.370374   0.227205  -0.398352   0.177690   0.348807  -0.299333
     32       0.000003  -0.000002   0.000003  -0.000002  -0.000004   0.000003
     33      -0.301872  -0.093420   0.304854   0.307310  -0.611960  -0.530514
     34       0.370371  -0.227227  -0.398336   0.177691  -0.348798  -0.299380
     35      -0.000003   0.000002   0.000003  -0.000001   0.000002   0.000002


-----------
IR SPECTRUM
-----------

 Mode   freq       eps      Int      T**2         TX        TY        TZ
       cm**-1   L/(mol*cm) km/mol    a.u.
----------------------------------------------------------------------------
  6:     91.13   0.000030    0.15  0.000104  ( 0.000000 -0.000000  0.010209)
  7:    205.96   0.000000    0.00  0.000000  ( 0.000000 -0.000000  0.000000)
  8:    211.27   0.000001    0.00  0.000001  (-0.000000 -0.000880 -0.000000)
  9:    216.74   0.000013    0.07  0.000019  (-0.004340 -0.000000 -0.000000)
 10:    254.84   0.000390    1.97  0.000477  ( 0.000000 -0.000001  0.021844)
 11:    342.78   0.000025    0.13  0.000023  ( 0.000000 -0.004818  0.000000)
 12:    401.04   0.000718    3.63  0.000559  ( 0.023639  0.000000 -0.000000)
 13:    486.78   0.000521    2.63  0.000334  (-0.018267  0.000000  0.000000)
 14:    499.29   0.002310   11.67  0.001444  (-0.000000  0.037999 -0.000000)
 15:    516.78   0.000001    0.00  0.000001  (-0.000000  0.000000  0.000726)
 16:    537.37   0.000000    0.00  0.000000  ( 0.000001 -0.000000 -0.000000)
 17:    713.09   0.002201   11.12  0.000963  (-0.000000 -0.000002  0.031037)
 18:    737.85   0.001526    7.71  0.000646  ( 0.000000 -0.025407  0.000000)
 19:    774.34   0.016975   85.78  0.006841  ( 0.082710  0.000001 -0.000000)
 20:    780.21   0.007990   40.38  0.003196  ( 0.000001 -0.000000  0.056533)
 21:    896.23   0.000000    0.00  0.000000  ( 0.000000 -0.000000  0.000000)
 22:    957.61   0.000095    0.48  0.000031  ( 0.000000  0.000001  0.005569)
 23:   1045.55   0.001273    6.43  0.000380  ( 0.000000 -0.019491  0.000000)
 24:   1095.14   0.002956   14.94  0.000842  ( 0.000000 -0.029021  0.000000)
 25:   1153.12   0.006875   34.74  0.001860  (-0.000000  0.043133 -0.000000)
 26:   1174.55   0.002292   11.59  0.000609  (-0.024679 -0.000000 -0.000000)
 27:   1214.42   0.003845   19.43  0.000988  (-0.031434 -0.000000 -0.000000)
 28:   1322.62   0.000581    2.94  0.000137  ( 0.011710  0.000000  0.000000)
 29:   1430.21   0.008975   45.35  0.001958  (-0.000000  0.044252 -0.000000)
 30:   1455.70   0.013216   66.79  0.002833  (-0.053227 -0.000000 -0.000000)
 31:   1588.88   0.007133   36.05  0.001401  ( 0.037430  0.000000  0.000000)
 32:   1595.43   0.000254    1.29  0.000050  (-0.000001 -0.007053  0.000000)
 33:   3181.29   0.000574    2.90  0.000056  (-0.000000  0.007503 -0.000000)
 34:   3197.40   0.000008    0.04  0.000001  ( 0.000879 -0.000000 -0.000000)
 35:   3203.16   0.000217    1.09  0.000021  (-0.000000  0.004594 -0.000000)

* The epsilon (eps) is given for a Dirac delta lineshape.
** The dipole moment derivative (T) already includes vibrational overlap.

The first frequency considered to be a vibration is 6
The total number of vibrations considered is 30


--------------------------
THERMOCHEMISTRY AT 298.15K
--------------------------

Temperature         ...   298.15 K
Pressure            ...     1.00 atm
Total Mass          ...   181.45 AMU
Quasi RRHO          ...     True
Cut-Off Frequency   ...     1.00 cm^-1

Throughout the following assumptions are being made:
  (1) The electronic state is orbitally nondegenerate
  (2) There are no thermally accessible electronically excited states
  (3) Hindered rotations indicated by low frequency modes are not
      treated as such but are treated as vibrations and this may
      cause some error
  (4) All equations used are the standard statistical mechanics
      equations for an ideal gas
  (5) All vibrations are strictly harmonic

freq.      91.13  E(vib)   ...       0.47 
freq.     205.96  E(vib)   ...       0.35 
freq.     211.27  E(vib)   ...       0.34 
freq.     216.74  E(vib)   ...       0.34 
freq.     254.84  E(vib)   ...       0.30 
freq.     342.78  E(vib)   ...       0.23 
freq.     401.04  E(vib)   ...       0.19 
freq.     486.78  E(vib)   ...       0.15 
freq.     499.29  E(vib)   ...       0.14 
freq.     516.78  E(vib)   ...       0.13 
freq.     537.37  E(vib)   ...       0.12 
freq.     713.09  E(vib)   ...       0.07 
freq.     737.85  E(vib)   ...       0.06 
freq.     774.34  E(vib)   ...       0.05 
freq.     780.21  E(vib)   ...       0.05 
freq.     896.23  E(vib)   ...       0.03 
freq.     957.61  E(vib)   ...       0.03 
freq.    1045.55  E(vib)   ...       0.02 
freq.    1095.14  E(vib)   ...       0.02 
freq.    1153.12  E(vib)   ...       0.01 
freq.    1174.55  E(vib)   ...       0.01 
freq.    1214.42  E(vib)   ...       0.01 
freq.    1322.62  E(vib)   ...       0.01 
freq.    1430.21  E(vib)   ...       0.00 
freq.    1455.70  E(vib)   ...       0.00 
freq.    1588.88  E(vib)   ...       0.00 
freq.    1595.43  E(vib)   ...       0.00 
freq.    3181.29  E(vib)   ...       0.00 
freq.    3197.40  E(vib)   ...       0.00 
freq.    3203.16  E(vib)   ...       0.00 

------------
INNER ENERGY
------------

The inner energy is: U= E(el) + E(ZPE) + E(vib) + E(rot) + E(trans)
    E(el)   - is the total energy from the electronic structure calculation
              = E(kin-el) + E(nuc-el) + E(el-el) + E(nuc-nuc)
    E(ZPE)  - the the zero temperature vibrational energy from the frequency calculation
    E(vib)  - the the finite temperature correction to E(ZPE) due to population
              of excited vibrational states
    E(rot)  - is the rotational thermal energy
    E(trans)- is the translational thermal energy

Summary of contributions to the inner energy U:
Electronic energy                ...  -1610.95128429 Eh
Zero point energy                ...      0.07126289 Eh      44.72 kcal/mol
Thermal vibrational correction   ...      0.00502234 Eh       3.15 kcal/mol
Thermal rotational correction    ...      0.00141627 Eh       0.89 kcal/mol
Thermal translational correction ...      0.00141627 Eh       0.89 kcal/mol
-----------------------------------------------------------------------
Total thermal energy                  -1610.87216651 Eh


Summary of corrections to the electronic energy:
(perhaps to be used in another calculation)
Total thermal correction                  0.00785488 Eh       4.93 kcal/mol
Non-thermal (ZPE) correction              0.07126289 Eh      44.72 kcal/mol
-----------------------------------------------------------------------
Total correction                          0.07911777 Eh      49.65 kcal/mol


--------
ENTHALPY
--------

The enthalpy is H = U + kB*T
                kB is Boltzmann's constant
Total thermal energy              ...  -1610.87216651 Eh 
Thermal Enthalpy correction       ...      0.00094421 Eh       0.59 kcal/mol
-----------------------------------------------------------------------
Total Enthalpy                    ...  -1610.87122230 Eh


Note: Rotational entropy computed according to Herzberg 
Infrared and Raman Spectra, Chapter V,1, Van Nostrand Reinhold, 1945 
Point Group:  C2v, Symmetry Number:   2  
Rotational constants in cm-1:     0.049456     0.027778     0.017787 

Vibrational entropy computed according to the QRRHO of S. Grimme
Chem.Eur.J. 2012 18 9955 using a reference frequency of 100.0 cm-1


-------
ENTROPY
-------

The entropy contributions are T*S = T*(S(el)+S(vib)+S(rot)+S(trans))
     S(el)   - electronic entropy
     S(vib)  - vibrational entropy
     S(rot)  - rotational entropy
     S(trans)- translational entropy
The entropies will be listed as multiplied by the temperature to get
units of energy

Electronic entropy                ...      0.00000000 Eh      0.00 kcal/mol
Vibrational entropy               ...      0.00824661 Eh      5.17 kcal/mol
Rotational entropy                ...      0.01386971 Eh      8.70 kcal/mol
Translational entropy             ...      0.01971506 Eh     12.37 kcal/mol
-----------------------------------------------------------------------
Final entropy term                ...      0.04183138 Eh     26.25 kcal/mol

In case the symmetry of your molecule has not been determined correctly
or in case you have a reason to use a different symmetry number we print 
out the resulting rotational entropy values for sn=1,12:

 non-linear molecules -----------------------------------
|  sn= 1 | S(rot)=       0.01452417 Eh      9.11 kcal/mol|
|  sn= 2 | S(rot)=       0.01386971 Eh      8.70 kcal/mol|
|  sn= 3 | S(rot)=       0.01348688 Eh      8.46 kcal/mol|
|  sn= 4 | S(rot)=       0.01321525 Eh      8.29 kcal/mol|
|  sn= 5 | S(rot)=       0.01300457 Eh      8.16 kcal/mol|
|  sn= 6 | S(rot)=       0.01283242 Eh      8.05 kcal/mol|
|  sn= 7 | S(rot)=       0.01268688 Eh      7.96 kcal/mol|
|  sn= 8 | S(rot)=       0.01256080 Eh      7.88 kcal/mol|
|  sn= 9 | S(rot)=       0.01244959 Eh      7.81 kcal/mol|
|  sn=10 | S(rot)=       0.01235011 Eh      7.75 kcal/mol|
|  sn=11 | S(rot)=       0.01226012 Eh      7.69 kcal/mol|
|  sn=12 | S(rot)=       0.01217797 Eh      7.64 kcal/mol|
 linear molecules ---------------------------------------
|  Dinfh | S(rot)=       0.00913018 Eh      5.73 kcal/mol|
|  Cinfv | S(rot)=       0.00978463 Eh      6.14 kcal/mol|
 --------------------------------------------------------


-------------------
GIBBS FREE ENERGY
-------------------

The Gibbs free energy is G = H - T*S

Total enthalpy                    ...  -1610.87122230 Eh 
Total entropy correction          ...     -0.04183138 Eh    -26.25 kcal/mol
-----------------------------------------------------------------------
Final Gibbs free energy         ...  -1610.91305369 Eh

For completeness - the Gibbs free energy minus the electronic energy
G-E(el)                           ...      0.03823060 Eh     23.99 kcal/mol


Maximum memory used throughout the entire PROP-calculation: 63.2 MB

--------------------------------
SUGGESTED CITATIONS FOR THIS RUN
--------------------------------

Below you find a list of papers that are relevant to this ORCA run
We neither can nor want to force you to cite these papers, but we appreciate if you do
You receive ORCA, which is the product of decades of hard work by many enthusiastic individuals, for free
The only thing we kindly ask in return is that you cite our papers,
We deeply appreciate it, if you show your appreciation for ORCA by not just citing the generic ORCA reference.

Please note that relegating all ORCA citations to the supporting information does *not* help us.
SI sections are not indexed - citations you put there will not count into any citation statistics
But we need these citations in order to attract the funding resources that allow us to do what we are doing

Therefore, if you are a happy ORCA user, please consider citing a few of the papers listed below in the main body of your paper

In addition to the list printed below, the program has created the file censo.bibtex that contains the list in bibtex format
You can import this file easily into all common literature databanks and citation aid programs


List of essential papers. We consider these as the minimum necessary citations

  1. Neese,F.
     Software update: the ORCA program system, version 5.0
     WIRES Comput. Molec. Sci., 2022 12(1)e1606
     doi.org/10.1002/wcms.1606
  2. Grimme,S.; Hansen,A.; Ehlert,S.; Mewes,J.
     r2SCAN-3c: A 'Swiss army knife' composite electronic-structure method
     J. Chem. Phys., 2021 154 064103
     doi.org/10.1063/5.0040021

List of papers to cite with high priority. The work reported in these papers was absolutely
necessary for this run to complete.
Our perspective: the developers of density functionals and basis sets usually get cited in chemistry papers
Good! But without the algorithms to do something with them, the functionals or basis sets would not do anything.
Hence, in our opinion, the algorithm design and method developments papers are equally worthy of getting cited

  1. Neese,F.
     An improvement of the resolution of the identity approximation for the formation of the Coulomb matrix
     J. Comp. Chem., 2003 24(14)1740-1747
     doi.org/10.1002/jcc.10318
  2. Bykov,D.; Petrenko,T.; Izsak,R.; Kossmann,S.; Becker,U.; Valeev,E.; Neese,F.
     Efficient implementation of the analytic second derivatives of Hartree-Fock and hybrid DFT energies: a detailed analysis of different approximations
     Molec. Phys., 2015 113 1961-1977
     doi.org/10.1080/00268976.2015.1025114
  3. Neese,F.
     The SHARK Integral Generation and Digestion System
     J. Comp. Chem., 2022  1-16
     doi.org/10.1002/jcc.26942
  4. Lehtola,S.; Steigemann,C.; Oliveira,M.; Marques,M.
     Recent developments in Libxc - A comprehensive library of functionals for density functional theory
     Software X, 2018 7 
     doi.org/10.1016/j.softx.2017.11.002
  5. Caldeweyher,E.; Bannwarth,C.; Grimme,S.
     Extension of the D3 dispersion coefficient model
     J. Chem. Phys., 2017 147 034112-XXXX
     doi.org/10.1063/1.4993215
  6. Caldeweyher,E.; Ehlert,S.; Hansen,A.; Neugebauer,H.; Spicher,S.; Bannwarth,C.; Grimme,S.
     A generally applicable atomic-charge dependent London dispersion correction
     J. Chem. Phys., 2019 150 154122-XXXX
     doi.org/10.1063/1.5090222
  7. Caldeweyher,E.; Mewes,J.; Ehlert,S.; Grimme,S.
     Extension and evaluation of the D4 London-dispersion model for periodic systems
     Phys. Chem. Chem. Phys., 2020 22(16)8499-8512
     doi.org/10.1039/D0CP00502A

List of suggested additional citations. These are papers that are important in the 'surrounding' of 
of this run, or papers that preceded the highly important papers. If you like your results we are grateful for a citation.

  1. Neese,F.
     The ORCA program system
     WIRES Comput. Molec. Sci., 2012 2(1)73-78
     doi.org/10.1002/wcms.81
  2. Neese,F.
     Software update: the ORCA program system, version 4.0
     WIRES Comput. Molec. Sci., 2018 8(1)1-6
     doi.org/10.1002/wcms.1327
  3. Neese,F.; Wennmohs,F.; Becker,U.; Riplinger,C.
     The ORCA quantum chemistry program package
     J. Chem. Phys., 2020 152 Art. No. L224108
     doi.org/10.1063/5.0004608

List of optional additional citations

  1. Neese,F.
     Approximate second-order SCF convergence for spin unrestricted wavefunctions
     Chem. Phys. Lett., 2000 325(1-3)93-98
     doi.org/10.1016/s0009-2614(00)00662-x

Timings for individual modules:

Sum of individual times          ...      545.367 sec (=   9.089 min)
Startup calculation              ...        1.151 sec (=   0.019 min)   0.2 %
SCF iterations                   ...       32.298 sec (=   0.538 min)   5.9 %
Property integrals               ...      310.871 sec (=   5.181 min)  57.0 %
SCF Response                     ...      104.486 sec (=   1.741 min)  19.2 %
Property calculations            ...       96.560 sec (=   1.609 min)  17.7 %
                             ****ORCA TERMINATED NORMALLY****
TOTAL RUN TIME: 0 days 0 hours 9 minutes 6 seconds 462 msec
