
                                 *****************
                                 * O   R   C   A *
                                 *****************

                                            #,                                       
                                            ###                                      
                                            ####                                     
                                            #####                                    
                                            ######                                   
                                           ########,                                 
                                     ,,################,,,,,                         
                               ,,#################################,,                 
                          ,,##########################################,,             
                       ,#########################################, ''#####,          
                    ,#############################################,,   '####,        
                  ,##################################################,,,,####,       
                ,###########''''           ''''###############################       
              ,#####''   ,,,,##########,,,,          '''####'''          '####       
            ,##' ,,,,###########################,,,                        '##       
           ' ,,###''''                  '''############,,,                           
         ,,##''                                '''############,,,,        ,,,,,,###''
      ,#''                                            '''#######################'''  
     '                                                          ''''####''''         
             ,#######,   #######,   ,#######,      ##                                
            ,#'     '#,  ##    ##  ,#'     '#,    #''#        ,####,   ,####,        
            ##       ##  ##   ,#'  ##            #'  '#       #'       #'  '#        
            ##       ##  #######   ##           ,######,      #####,   #    #        
            '#,     ,#'  ##    ##  '#,     ,#' ,#      #,     #,   #   #,  ,#        
             '#######'   ##     ##  '#######'  #'      '#     '####' # '####'        



                #########################################################
                #                        -***-                          #
                #          Department of theory and spectroscopy        #
                #                                                       #
                #                      Frank Neese                      #
                #                                                       #
                #     Directorship, Architecture, Infrastructure        #
                #                    SHARK, DRIVERS                     #
                #        Core code/Algorithms in most modules           #
                #                                                       #
                #        Max Planck Institute fuer Kohlenforschung      #
                #                Kaiser Wilhelm Platz 1                 #
                #                 D-45470 Muelheim/Ruhr                 #
                #                      Germany                          #
                #                                                       #
                #                  All rights reserved                  #
                #                        -***-                          #
                #########################################################


                         Program Version 6.0.0  -   RELEASE  -


 With contributions from (in alphabetic order):
   Daniel Aravena         : Magnetic Suceptibility
   Michael Atanasov       : Ab Initio Ligand Field Theory (pilot matlab implementation)
   Alexander A. Auer      : GIAO ZORA, VPT2 properties, NMR spectrum
   Ute Becker             : All parallelization in ORCA, NUMFREQ, NUMCALC
   Giovanni Bistoni       : ED, misc. LED, open-shell LED, HFLD
   Martin Brehm           : Molecular dynamics
   Dmytro Bykov           : pre 5.0 version of the SCF Hessian
   Marcos Casanova-Páez   : Triplet and SCS-CIS(D). UHF-(DLPNO)-IP/EA/STEOM-CCSD. UHF-CVS-IP/STEOM-CCSD
   Vijay G. Chilkuri      : MRCI spin determinant printing, contributions to CSF-ICE
   Pauline Colinet        : FMM embedding
   Dipayan Datta          : RHF DLPNO-CCSD density
   Achintya Kumar Dutta   : EOM-CC, STEOM-CC
   Nicolas Foglia         : Exact transition moments, OPA infrastructure, MCD improvements
   Dmitry Ganyushin       : Spin-Orbit,Spin-Spin,Magnetic field MRCI
   Miquel Garcia          : C-PCM and meta-GGA Hessian, CCSD/C-PCM, Gaussian charge scheme
   Tiago L. C. Gouveia    : GS-ROHF, GS-ROCIS
   Yang Guo               : DLPNO-NEVPT2, F12-NEVPT2, CIM, IAO-localization
   Andreas Hansen         : Spin unrestricted coupled pair/coupled cluster methods
   Ingolf Harden          : AUTO-CI MPn and infrastructure 
   Benjamin Helmich-Paris : MC-RPA, TRAH-(SCF,CASSCF), AVAS, COSX integrals, SCF dyn. polar.
   Lee Huntington         : MR-EOM, pCC
   Robert Izsak           : Overlap fitted RIJCOSX, COSX-SCS-MP3, EOM
   Riya Kayal             : Wick's Theorem for AUTO-CI, AUTO-CI UHF-CCSDT
   Emily Kempfer          : AUTO-CI, RHF CISDT and CCSDT
   Christian Kollmar      : KDIIS, OOCD, Brueckner-CCSD(T), CCSD density, CASPT2, CASPT2-K, improved NEVPT2
   Axel Koslowski         : Symmetry handling
   Simone Kossmann        : Meta GGA functionals, TD-DFT gradient, OOMP2, (MP2 Hessian; deprecated post 5.0)
   Lucas Lang             : DCDCAS
   Marvin Lechner         : AUTO-CI (C++ implementation), FIC-MRCC
   Spencer Leger          : CASSCF response
   Dagmar Lenk            : GEPOL surface, SMD, ORCA-2-JSON
   Dimitrios Liakos       : Extrapolation schemes; Compound Job, initial MDCI parallelization
   Dimitrios Manganas     : Further ROCIS development; embedding schemes. LFT, Crystal Embedding
   Dimitrios Pantazis     : SARC Basis sets
   Anastasios Papadopoulos: AUTO-CI, single reference methods and gradients
   Taras Petrenko         : pre 6.0 DFT Hessian and TD-DFT gradient, (ASA, deprecated), ECA, 1-Electron XAS/XES, NRVS
   Peter Pinski           : DLPNO-MP2, DLPNO-MP2 Gradient
   Christoph Reimann      : Effective Core Potentials
   Marius Retegan         : Local ZFS, SOC
   Christoph Riplinger    : Optimizer, TS searches, QM/MM, DLPNO-CCSD(T), (RO)-DLPNO pert. Triples
   Michael Roemelt        : Original ROCIS implementation
   Masaaki Saitow         : Open-shell DLPNO-CCSD energy and density
   Barbara Sandhoefer     : DKH picture change effects
   Kantharuban Sivalingam : CASSCF convergence/infrastructure, NEVPT2 and variants, FIC-MRCI
   Bernardo de Souza      : ESD, SOC TD-DFT
   Georgi Stoychev        : AutoAux, RI-MP2 NMR, DLPNO-MP2 response, X2C
   Van Anh Tran           : RI-MP2 g-tensors
   Willem Van den Heuvel  : Paramagnetic NMR
   Zikuan Wang            : NOTCH, Electric field optimization 
   Frank Wennmohs         : Technical directorship and infrastructure
   Hang Xu                : AUTO-CI-Response properties 


 We gratefully acknowledge several colleagues who have allowed us to
 interface, adapt or use parts of their codes:
   Stefan Grimme, W. Hujo, H. Kruse, P. Pracht,  : VdW corrections, initial TS optimization,
                  C. Bannwarth, S. Ehlert,         DFT functionals, gCP, sTDA/sTD-DF
                  L. Wittmann, M. Mueller
   Ed Valeev, F. Pavosevic, A. Kumar             : LibInt (2-el integral package), F12 methods
   Garnet Chan, S. Sharma, J. Yang, R. Olivares  : DMRG
   Ulf Ekstrom                                   : XCFun DFT Library
   Mihaly Kallay                                 : mrcc  (arbitrary order and MRCC methods)
   Frank Weinhold                                : gennbo (NPA and NBO analysis)
   Simon Mueller                                 : openCOSMO-RS
   Christopher J. Cramer and Donald G. Truhlar   : smd solvation model
   Lars Goerigk                                  : TD-DFT with DH, B97 family of functionals
   V. Asgeirsson, H. Jonsson                     : NEB implementation
   FAccTs GmbH                                   : IRC, NEB, NEB-TS, DLPNO-Multilevel, CI-OPT
                                                   MM, QMMM, 2- and 3-layer-ONIOM, Crystal-QMMM,
                                                   LR-CPCM, SF, NACMEs, symmetry and pop. for TD-DFT,
                                                   nearIR, NL-DFT gradient (VV10), updates on ESD,
                                                   ML-optimized integration grids, MBIS, APM,
                                                   GOAT, DOCKER, SOLVATOR, interface openCOSMO-RS
   S Lehtola, MJT Oliveira, MAL Marques          : LibXC Library
   Liviu Ungur et al                             : ANISO software


 Your calculation uses the libint2 library for the computation of 2-el integrals
 For citations please refer to: http://libint.valeyev.net

 Your ORCA version has been built with support for libXC version: 6.2.2
 For citations please refer to: https://libxc.gitlab.io

 This ORCA versions uses:
   CBLAS   interface :  Fast vector & matrix operations
   LAPACKE interface :  Fast linear algebra routines
   SCALAPACK package :  Parallel linear algebra routines
   Shared memory     :  Shared parallel matrices
   BLAS/LAPACK       :  OpenBLAS 0.3.27  USE64BITINT DYNAMIC_ARCH NO_AFFINITY SkylakeX SINGLE_THREADED
        Core in use  :  SkylakeX
   Copyright (c) 2011-2014, The OpenBLAS Project




***************************************
The coordinates will be read from file: vacuum_censo.xyz
***************************************


Your calculation utilizes the geometrical counterpoise correction gCP
Please cite in your paper:
H.Kruse, S. Grimme J.Chem.Phys., 136, (2012), 154101 
   

Your calculation utilizes the atom-pairwise dispersion correction
based on EEQ partial charges (D4)


================================================================================

----- Orbital basis set information -----
Your calculation utilizes the basis: def2-TZVP
   F. Weigend and R. Ahlrichs, Phys. Chem. Chem. Phys. 7, 3297 (2005).

----- AuxJ basis set information -----
Your calculation utilizes the basis: def2-mTZVPP/J
   Stefan Grimme, Andreas Hansen, Sebastian Ehlert, and Jan-Michael Mewes 
   J. Chem. Phys. 154, 000000 (2021). DOI: 10.1063/5.0040021

================================================================================
                                        WARNINGS
                       Please study these warnings very carefully!
================================================================================

Using LibXC functional ID 497 : Re-regularized SCAN exchange by Furness et al
[ 1]  J. W. Furness, A. D. Kaplan, J. Ning, J. P. Perdew, and J. Sun.,  J. Phys. Chem. Lett. 11, 8208-8215 (2020)
[ 2]  J. W. Furness, A. D. Kaplan, J. Ning, J. P. Perdew, and J. Sun.,  J. Phys. Chem. Lett. 11, 9248-9248 (2020)
Using LibXC functional ID 498 : Re-regularized SCAN correlation by Furness et al
[ 1]  J. W. Furness, A. D. Kaplan, J. Ning, J. P. Perdew, and J. Sun.,  J. Phys. Chem. Lett. 11, 8208-8215 (2020)
[ 2]  J. W. Furness, A. D. Kaplan, J. Ning, J. P. Perdew, and J. Sun.,  J. Phys. Chem. Lett. 11, 9248-9248 (2020)
Using LibXC functional ID 497 : Re-regularized SCAN exchange by Furness et al
[ 1]  J. W. Furness, A. D. Kaplan, J. Ning, J. P. Perdew, and J. Sun.,  J. Phys. Chem. Lett. 11, 8208-8215 (2020)
[ 2]  J. W. Furness, A. D. Kaplan, J. Ning, J. P. Perdew, and J. Sun.,  J. Phys. Chem. Lett. 11, 9248-9248 (2020)
Using LibXC functional ID 498 : Re-regularized SCAN correlation by Furness et al
[ 1]  J. W. Furness, A. D. Kaplan, J. Ning, J. P. Perdew, and J. Sun.,  J. Phys. Chem. Lett. 11, 8208-8215 (2020)
[ 2]  J. W. Furness, A. D. Kaplan, J. Ning, J. P. Perdew, and J. Sun.,  J. Phys. Chem. Lett. 11, 9248-9248 (2020)

================================================================================
                                       INPUT FILE
================================================================================
NAME = vacuum_censo.inp
|  1> ! r2SCAN-3c DEF2-TZVP FREQ
|  2> * xyzfile 0 1 vacuum_censo.xyz
|  3> 
|  4>                          ****END OF INPUT****
================================================================================

                       ****************************
                       * Single Point Calculation *
                       ****************************

---------------------------------
CARTESIAN COORDINATES (ANGSTROEM)
---------------------------------
  C      0.000064   -2.571492    0.000090
  C      1.205481   -1.882963    0.000058
  C      1.203107   -0.492729    0.000012
  C     -0.000007    0.224753    0.000001
  C     -1.203081   -0.492789    0.000038
  C     -1.205385   -1.883022    0.000079
  Cl    -2.727368    0.345992    0.000036
  Cl    -0.000055    1.953596   -0.000055
  Cl     2.727356    0.346124   -0.000030
  H      0.000095   -3.655769    0.000125
  H      2.151909   -2.409713    0.000069
  H     -2.151784   -2.409823    0.000109

----------------------------
CARTESIAN COORDINATES (A.U.)
----------------------------
  NO LB      ZA    FRAG     MASS         X           Y           Z
   0 C     6.0000    0    12.011    0.000122   -4.859416    0.000170
   1 C     6.0000    0    12.011    2.278028   -3.558285    0.000109
   2 C     6.0000    0    12.011    2.273543   -0.931123    0.000024
   3 C     6.0000    0    12.011   -0.000013    0.424723    0.000003
   4 C     6.0000    0    12.011   -2.273494   -0.931237    0.000071
   5 C     6.0000    0    12.011   -2.277848   -3.558397    0.000149
   6 Cl   17.0000    0    35.453   -5.153978    0.653830    0.000068
   7 Cl   17.0000    0    35.453   -0.000105    3.691761   -0.000104
   8 Cl   17.0000    0    35.453    5.153957    0.654079   -0.000057
   9 H     1.0000    0     1.008    0.000179   -6.908403    0.000236
  10 H     1.0000    0     1.008    4.066519   -4.553697    0.000131
  11 H     1.0000    0     1.008   -4.066283   -4.553906    0.000205

--------------------------------
INTERNAL COORDINATES (ANGSTROEM)
--------------------------------
 C      0   0   0     0.000000000000     0.00000000     0.00000000
 C      1   0   0     1.388200364786     0.00000000     0.00000000
 C      2   1   0     1.390236175785   119.63702066     0.00000000
 C      3   2   1     1.400808930719   120.90773525     0.00000000
 C      4   3   2     1.400805161325   118.37719505     0.00000000
 C      1   2   3     1.388199921957   120.53314071     0.00000000
 Cl     5   4   3     1.739828418011   120.36409834   179.99961765
 Cl     4   3   2     1.728842291194   120.81152810   179.99999434
 Cl     3   2   1     1.739830269670   118.72787000   180.00010379
 H      1   2   3     1.084277333970   119.73324192   179.99995358
 H      2   1   3     1.083139611844   121.16636568   179.99988529
 H      6   1   2     1.083139020131   121.16604918   180.00031122

---------------------------
INTERNAL COORDINATES (A.U.)
---------------------------
 C      0   0   0     0.000000000000     0.00000000     0.00000000
 C      1   0   0     2.623318508455     0.00000000     0.00000000
 C      2   1   0     2.627165633705   119.63702066     0.00000000
 C      3   2   1     2.647145245011   120.90773525     0.00000000
 C      4   3   2     2.647138121888   118.37719505     0.00000000
 C      1   2   3     2.623317671629   120.53314071     0.00000000
 Cl     5   4   3     3.287799230055   120.36409834   179.99961765
 Cl     4   3   2     3.267038459097   120.81152810   179.99999434
 Cl     3   2   1     3.287802729184   118.72787000   180.00010379
 H      1   2   3     2.048987214422   119.73324192   179.99995358
 H      2   1   3     2.046837231187   121.16636568   179.99988529
 H      6   1   2     2.046836113012   121.16604918   180.00031122

---------------------
BASIS SET INFORMATION
---------------------
There are 3 groups of distinct atoms

 Group   1 Type C   : 11s6p2d1f contracted to 5s3p2d1f pattern {62111/411/11/1}
 Group   2 Type Cl  : 14s9p3d1f contracted to 5s5p2d1f pattern {73211/51111/21/1}
 Group   3 Type H   : 5s1p contracted to 3s1p pattern {311/1}

Atom   0C    basis set group =>   1
Atom   1C    basis set group =>   1
Atom   2C    basis set group =>   1
Atom   3C    basis set group =>   1
Atom   4C    basis set group =>   1
Atom   5C    basis set group =>   1
Atom   6Cl   basis set group =>   2
Atom   7Cl   basis set group =>   2
Atom   8Cl   basis set group =>   2
Atom   9H    basis set group =>   3
Atom  10H    basis set group =>   3
Atom  11H    basis set group =>   3
---------------------------------
AUXILIARY/J BASIS SET INFORMATION
---------------------------------
There are 3 groups of distinct atoms

 Group   1 Type C   : 8s3p3d contracted to 6s3p3d pattern {311111/111/111}
 Group   2 Type Cl  : 14s5p5d2f contracted to 8s4p3d1f pattern {71111111/2111/311/2}
 Group   3 Type H   : 5s2p1d contracted to 3s1p1d pattern {311/2/1}

Atom   0C    basis set group =>   1
Atom   1C    basis set group =>   1
Atom   2C    basis set group =>   1
Atom   3C    basis set group =>   1
Atom   4C    basis set group =>   1
Atom   5C    basis set group =>   1
Atom   6Cl   basis set group =>   2
Atom   7Cl   basis set group =>   2
Atom   8Cl   basis set group =>   2
Atom   9H    basis set group =>   3
Atom  10H    basis set group =>   3
Atom  11H    basis set group =>   3
------------------------------------------------------------------------------
                             ORCA STARTUP CALCULATIONS
                           -- RI-GTO INTEGRALS CHOSEN --
------------------------------------------------------------------------------
------------------------------------------------------------------------------
                   ___                                                        
                  /   \      - P O W E R E D   B Y -                         
                 /     \                                                     
                 |  |  |   _    _      __       _____    __    __             
                 |  |  |  | |  | |    /  \     |  _  \  |  |  /  |          
                  \  \/   | |  | |   /    \    | | | |  |  | /  /          
                 / \  \   | |__| |  /  /\  \   | |_| |  |  |/  /          
                |  |  |   |  __  | /  /__\  \  |    /   |      \           
                |  |  |   | |  | | |   __   |  |    \   |  |\   \          
                \     /   | |  | | |  |  |  |  | |\  \  |  | \   \       
                 \___/    |_|  |_| |__|  |__|  |_| \__\ |__|  \__/        
                                                                              
                      - O R C A' S   B I G   F R I E N D -                    
                                      &                                       
                       - I N T E G R A L  F E E D E R -                       
                                                                              
 v1 FN, 2020, v2 2021, v3 2022-2024                                           
------------------------------------------------------------------------------


----------------------
SHARK INTEGRAL PACKAGE
----------------------

Number of atoms                             ...     12
Number of basis functions                   ...    315
Number of shells                            ...    117
Maximum angular momentum                    ...      3
Integral batch strategy                     ... SHARK/LIBINT Hybrid
RI-J (if used) integral strategy            ... SPLIT-RIJ (Revised 2003 algorithm where possible)
Printlevel                                  ...      1
Contraction scheme used                     ... SEGMENTED contraction
Prescreening option                         ... SCHWARTZ
   Thresh                                   ... 1.000e-10
   Tcut                                     ... 1.000e-11
   Tpresel                                  ... 1.000e-11 
Coulomb Range Separation                    ... NOT USED
Exchange Range Separation                   ... NOT USED
Multipole approximations                    ... NOT USED
Finite Nucleus Model                        ... NOT USED
CABS basis                                  ... NOT available
Auxiliary Coulomb fitting basis             ... AVAILABLE
   # of basis functions in Aux-J            ...    339
   # of shells in Aux-J                     ...    135
   Maximum angular momentum in Aux-J        ...      3
Auxiliary J/K fitting basis                 ... NOT available
Auxiliary Correlation fitting basis         ... NOT available
Auxiliary 'external' fitting basis          ... NOT available

Checking pre-screening integrals            ... done (  0.0 sec) Dimension = 117
Check shell pair data                       ... done (  0.0 sec)
Shell pair information
Shell pair cut-off parameter TPreSel        ...   1.0e-11
Total number of shell pairs                 ...      6903
Shell pairs after pre-screening             ...      6040
Total number of primitive shell pairs       ...     24339
Primitive shell pairs kept                  ...     15022
          la=0 lb=0:   1199 shell pairs
          la=1 lb=0:   1673 shell pairs
          la=1 lb=1:    594 shell pairs
          la=2 lb=0:    883 shell pairs
          la=2 lb=1:    599 shell pairs
          la=2 lb=2:    167 shell pairs
          la=3 lb=0:    426 shell pairs
          la=3 lb=1:    295 shell pairs
          la=3 lb=2:    160 shell pairs
          la=3 lb=3:     44 shell pairs

Calculating one electron integrals          ... done (  0.0 sec)
Calculating RI/J V-Matrix + Cholesky decomp.... done (  0.0 sec)
Calculating Nuclear repulsion               ... done (  0.0 sec) ENN=    648.441834294020 Eh

Diagonalization of the overlap matrix:
Smallest eigenvalue                        ... 9.652e-06
Time for diagonalization                   ...    0.010 sec
Threshold for overlap eigenvalues          ... 1.000e-07
Number of eigenvalues below threshold      ... 0
Time for construction of square roots      ...    0.020 sec
Total time needed                          ...    0.038 sec

-------------------
DFT GRID GENERATION
-------------------

General Integration Accuracy     IntAcc      ... 4.388
Radial Grid Type                 RadialGrid  ... OptM3 with GC (2021)
Angular Grid (max. ang.)         AngularGrid ... 4 (Lebedev-302)
Angular grid pruning method      GridPruning ... 4 (adaptive)
Weight generation scheme         WeightScheme... mBecke (2022)
Basis function cutoff            BFCut       ... 1.0000e-10
Integration weight cutoff        WCut        ... 1.0000e-14
Partially contracted basis set               ... off
Rotationally invariant grid construction     ... off
Angular grids for H and He will be reduced by one unit

Total number of grid points                  ...    67671
Total number of batches                      ...     1064
Average number of points per batch           ...       63
Average number of grid points per atom       ...     5639
Initializing property integral containers    ... done (  0.0 sec)

SHARK setup successfully completed in   1.1 seconds

Maximum memory used throughout the entire STARTUP-calculation: 43.1 MB
-------------------------------------------------------------------------------
                                 ORCA GUESS
                   Start orbitals & Density for SCF / CASSCF
-------------------------------------------------------------------------------

------------
SCF SETTINGS
------------
Hamiltonian:
 Density Functional     Method          .... DFT(GTOs)
  Functional kind                       .... Exchange
  Functional name                       .... Re-regularized SCAN exchange by Furness et al
  Functional family                     .... MGGA
  Functional refs                              
    [ 0] J. W. Furness, A. D. Kaplan, J. Ning, J. P. Perdew, and J. Sun.,  J. Phys. Chem. Lett. 11, 8208-8215 (2020), doi: 10.1021/acs.jpclett.0c02405
    [ 1] J. W. Furness, A. D. Kaplan, J. Ning, J. P. Perdew, and J. Sun.,  J. Phys. Chem. Lett. 11, 9248-9248 (2020), doi: 10.1021/acs.jpclett.0c03077
  Functional external parameters        .... 6
    Parameter  0 _c1        =  6.670000e-01 : c1 parameter        
    Parameter  1 _c2        =  8.000000e-01 : c2 parameter        
    Parameter  2 _d         =  1.240000e+00 : d parameter         
    Parameter  3 _k1        =  6.500000e-02 : k1 parameter        
    Parameter  4 _eta       =  1.000000e-03 : eta parameter       
    Parameter  5 _dp2       =  3.610000e-01 : dp2 parameter       
  Functional kind                       .... Correlation
  Functional name                       .... Re-regularized SCAN correlation by Furness et al
  Functional family                     .... MGGA
  Functional refs                              
    [ 0] J. W. Furness, A. D. Kaplan, J. Ning, J. P. Perdew, and J. Sun.,  J. Phys. Chem. Lett. 11, 8208-8215 (2020), doi: 10.1021/acs.jpclett.0c02405
    [ 1] J. W. Furness, A. D. Kaplan, J. Ning, J. P. Perdew, and J. Sun.,  J. Phys. Chem. Lett. 11, 9248-9248 (2020), doi: 10.1021/acs.jpclett.0c03077
  Functional external parameters        .... 1
    Parameter  0 _eta       =  1.000000e-03 : Regularization parameter
 Gradients option       PostSCFGGA      .... off
 RI-approximation to the Coulomb term is turned on
   Number of AuxJ basis functions       .... 339


General Settings:
 Integral files         IntName         .... vacuum_censo
 Hartree-Fock type      HFTyp           .... RHF
 Total Charge           Charge          ....    0
 Multiplicity           Mult            ....    1
 Number of Electrons    NEL             ....   90
 Basis Dimension        Dim             ....  315
 Nuclear Repulsion      ENuc            ....    648.4418342940 Eh

Convergence Acceleration:
 AO-DIIS                CNVDIIS         .... on
   Start iteration      DIISMaxIt       ....    12
   Startup error        DIISStart       ....  0.200000
   # of expansion vecs  DIISMaxEq       ....     5
   Bias factor          DIISBfac        ....   1.050
   Max. coefficient     DIISMaxC        ....  10.000
 MO-DIIS                CNVKDIIS        .... off
 Trust-Rad. Augm. Hess. CNVTRAH         .... auto
   Auto Start mean grad. ratio tolernc. ....  1.125000
   Auto Start start iteration           ....    50
   Auto Start num. interpolation iter.  ....    10
   Max. Number of Micro iterations      ....    24
   Max. Number of Macro iterations      .... Maxiter - #DIIS iter
   Number of Davidson start vectors     ....     2
   Converg. threshold    (grad. norm)   ....   5.000e-05
   Grad. Scal. Fac. for Micro threshold ....   0.100
   Minimum threshold for Micro iter.    ....   1.000e-02
   NR start threshold (gradient norm)   ....   1.000e-04
   Initial trust radius                 ....   0.400
   Minimum AH scaling param. (alpha)    ....   1.000
   Maximum AH scaling param. (alpha)    .... 1000.000
   Quad. conv. algorithm                .... NR
   White noise on init. David. guess    .... on
   Maximum white noise                  ....   0.010
   Pseudo random numbers                .... off
   Inactive MOs                         .... canonical
   Orbital update algorithm             .... Taylor
   Preconditioner                       .... Diag
   Full preconditioner red. dimension   ....   250
   COSX micro iterations for RIJONX calc.... off
 SOSCF                  CNVSOSCF        .... on
   Start iteration      SOSCFMaxIt      ....   150
   Startup grad/error   SOSCFStart      ....  0.003300
   Hessian update       SOSCFHessUp     .... L-BFGS
 Level Shifting         CNVShift        .... on
   Level shift para.    LevelShift      ....    0.2500
   Turn off err/grad.   ShiftErr        ....    0.0010
 Zerner damping         CNVZerner       .... off
 Static damping         CNVDamp         .... on
   Fraction old density DampFac         ....    0.7000
   Max. Damping (<1)    DampMax         ....    0.9800
   Min. Damping (>=0)   DampMin         ....    0.0000
   Turn off err/grad.   DampErr         ....    0.1000

SCF Procedure:
 Maximum # iterations   MaxIter         ....   125
 SCF integral mode      SCFMode         .... Direct
   Integral package                     .... SHARK and LIBINT hybrid scheme
 Reset frequency        DirectResetFreq ....    20
 Integral Threshold     Thresh          ....  1.000e-10 Eh
 Primitive CutOff       TCut            ....  1.000e-11 Eh

Convergence Tolerance:
 Convergence Check Mode ConvCheckMode   .... Total+1el-Energy
 Convergence forced     ConvForced      .... 0
 Energy Change          TolE            ....  1.000e-06 Eh
 1-El. energy change                    ....  1.000e-03 Eh
 Orbital Gradient       TolG            ....  5.000e-05
 Orbital Rotation angle TolX            ....  5.000e-05
 DIIS Error             TolErr          ....  1.000e-06

------------------------------
INITIAL GUESS: MODEL POTENTIAL
------------------------------
Loading Hartree-Fock densities                     ... done
Calculating cut-offs                               ... done
Initializing the effective Hamiltonian             ... done
Setting up the integral package (SHARK)            ... done
Starting the Coulomb interaction                   ... done (   0.3 sec)
Making the grid                                    ... done (   0.2 sec)
Mapping shells                                     ... done
Starting the XC term evaluation                    ... done (   0.4 sec)
  promolecular density results
     # of electrons  =     89.997781690
     EX              =   -113.749579248
     EC              =     -3.320770185
     EX+EC           =   -117.070349433
Transforming the Hamiltonian                       ... done (   0.0 sec)
Diagonalizing the Hamiltonian                      ... done (   0.0 sec)
Back transforming the eigenvectors                 ... done (   0.0 sec)
Now organizing SCF variables                       ... done
                      ------------------
                      INITIAL GUESS DONE (   1.0 sec)
                      ------------------
             **** ENERGY FILE WAS UPDATED (vacuum_censo.en.tmp) ****
Finished Guess after   1.2 sec
Maximum memory used throughout the entire GUESS-calculation: 30.0 MB

-------------------------------------------------------------------------------------------
                                      ORCA LEAN-SCF
                              memory conserving SCF solver
-------------------------------------------------------------------------------------------

----------------------------------------D-I-I-S--------------------------------------------
Iteration    Energy (Eh)           Delta-E    RMSDP     MaxDP     DIISErr   Damp  Time(sec)
-------------------------------------------------------------------------------------------
               ***  Starting incremental Fock matrix formation  ***
    1    -1610.8188913014391801     0.00e+00  1.25e-03  2.84e-02  1.54e-01  0.700   3.6
    2    -1610.8844671011452192    -6.56e-02  9.53e-04  2.19e-02  7.01e-02  0.700   3.1
                               ***Turning on AO-DIIS***
    3    -1610.9068031087749659    -2.23e-02  6.42e-04  1.88e-02  2.44e-02  0.700   3.0
    4    -1610.9201816304375825    -1.34e-02  1.73e-03  5.25e-02  1.71e-02  0.000   3.1
    5    -1610.9516973537952254    -3.15e-02  2.22e-04  5.33e-03  4.96e-03  0.000   3.1
                              *** Initializing SOSCF ***
---------------------------------------S-O-S-C-F--------------------------------------
Iteration    Energy (Eh)           Delta-E    RMSDP     MaxDP     MaxGrad    Time(sec)
--------------------------------------------------------------------------------------
    6    -1610.9520448714556551    -3.48e-04  9.80e-05  3.37e-03  1.99e-03     2.9
               *** Restarting incremental Fock matrix formation ***
    7    -1610.9520748722165990    -3.00e-05  9.21e-05  2.99e-03  4.96e-04     3.4
    8    -1610.9520550579527480     1.98e-05  4.60e-05  2.55e-03  1.14e-03     2.8
    9    -1610.9520851908173427    -3.01e-05  1.63e-05  3.36e-04  2.28e-04     2.7
   10    -1610.9520849162095146     2.75e-07  8.74e-06  4.02e-04  2.43e-04     2.6
                 **** Energy Check signals convergence ****

               *****************************************************
               *                     SUCCESS                       *
               *           SCF CONVERGED AFTER  10 CYCLES          *
               *****************************************************

             **** ENERGY FILE WAS UPDATED (vacuum_censo.en.tmp) ****

----------------
TOTAL SCF ENERGY
----------------

Total Energy       :      -1610.95208491620951 Eh          -43836.23482 eV

Components:
Nuclear Repulsion  :        648.44183429401971 Eh           17644.99937 eV
Electronic Energy  :      -2259.39391921022934 Eh          -61481.23419 eV
One Electron Energy:      -3506.67100272202651 Eh          -95421.36911 eV
Two Electron Energy:       1247.27708351179717 Eh           33940.13493 eV

Virial components:
Potential Energy   :      -3218.83622241778085 Eh          -87588.98655 eV
Kinetic Energy     :       1607.88413750157156 Eh           43752.75173 eV
Virial Ratio       :          2.00190806497998

DFT components:
N(Alpha)           :       45.000015435995 electrons
N(Beta)            :       45.000015435995 electrons
N(Total)           :       90.000030871991 electrons
E(X)               :     -115.005099006271 Eh       
E(C)               :       -3.272410339506 Eh       
E(XC)              :     -118.277509345777 Eh       

---------------
SCF CONVERGENCE
---------------

  Last Energy change         ...   -2.7461e-07  Tolerance :   1.0000e-06
  Last MAX-Density change    ...    4.0183e-04  Tolerance :   1.0000e-05
  Last RMS-Density change    ...    8.7416e-06  Tolerance :   1.0000e-06
  Last DIIS Error            ...    1.9934e-03  Tolerance :   1.0000e-06
  Last Orbital Gradient      ...    2.4251e-04  Tolerance :   5.0000e-05
  Last Orbital Rotation      ...    4.5016e-04  Tolerance :   5.0000e-05


----------------
ORBITAL ENERGIES
----------------

  NO   OCC          E(Eh)            E(eV) 
   0   2.0000    -101.207888     -2754.0067 
   1   2.0000    -101.206559     -2753.9705 
   2   2.0000    -101.206557     -2753.9704 
   3   2.0000     -10.128296      -275.6049 
   4   2.0000     -10.126060      -275.5441 
   5   2.0000     -10.126013      -275.5428 
   6   2.0000     -10.068622      -273.9811 
   7   2.0000     -10.068468      -273.9770 
   8   2.0000     -10.067841      -273.9599 
   9   2.0000      -9.383703      -255.3435 
  10   2.0000      -9.382438      -255.3091 
  11   2.0000      -9.382436      -255.3091 
  12   2.0000      -7.129037      -193.9910 
  13   2.0000      -7.127554      -193.9506 
  14   2.0000      -7.127554      -193.9506 
  15   2.0000      -7.118735      -193.7106 
  16   2.0000      -7.117667      -193.6816 
  17   2.0000      -7.117443      -193.6755 
  18   2.0000      -7.117443      -193.6755 
  19   2.0000      -7.116675      -193.6546 
  20   2.0000      -7.116675      -193.6546 
  21   2.0000      -0.903153       -24.5760 
  22   2.0000      -0.852299       -23.1922 
  23   2.0000      -0.829014       -22.5586 
  24   2.0000      -0.804734       -21.8979 
  25   2.0000      -0.717197       -19.5159 
  26   2.0000      -0.716843       -19.5063 
  27   2.0000      -0.595041       -16.1919 
  28   2.0000      -0.594403       -16.1745 
  29   2.0000      -0.506005       -13.7691 
  30   2.0000      -0.480897       -13.0859 
  31   2.0000      -0.456593       -12.4245 
  32   2.0000      -0.429056       -11.6752 
  33   2.0000      -0.426619       -11.6089 
  34   2.0000      -0.415423       -11.3042 
  35   2.0000      -0.370646       -10.0858 
  36   2.0000      -0.368492       -10.0272 
  37   2.0000      -0.352836        -9.6012 
  38   2.0000      -0.331733        -9.0269 
  39   2.0000      -0.312934        -8.5154 
  40   2.0000      -0.310399        -8.4464 
  41   2.0000      -0.303213        -8.2509 
  42   2.0000      -0.282004        -7.6737 
  43   2.0000      -0.243794        -6.6340 
  44   2.0000      -0.243077        -6.6145 
  45   0.0000      -0.066009        -1.7962 
  46   0.0000      -0.065429        -1.7804 
  47   0.0000      -0.047647        -1.2965 
  48   0.0000       0.015561         0.4234 
  49   0.0000       0.031694         0.8624 
  50   0.0000       0.065794         1.7903 
  51   0.0000       0.078705         2.1417 
  52   0.0000       0.096738         2.6324 
  53   0.0000       0.098643         2.6842 
  54   0.0000       0.123330         3.3560 
  55   0.0000       0.146723         3.9925 
*Only the first 10 virtual orbitals were printed.

                    ********************************
                    * MULLIKEN POPULATION ANALYSIS *
                    ********************************

-----------------------
MULLIKEN ATOMIC CHARGES
-----------------------
   0 C :   -0.099161
   1 C :   -0.176960
   2 C :    0.107025
   3 C :    0.053006
   4 C :    0.107022
   5 C :   -0.176959
   6 Cl:   -0.075535
   7 Cl:   -0.050395
   8 Cl:   -0.075536
   9 H :    0.123269
  10 H :    0.132111
  11 H :    0.132111
Sum of atomic charges:    0.0000000

--------------------------------
MULLIKEN REDUCED ORBITAL CHARGES
--------------------------------
  0 C s       :     3.221632  s :     3.221632
      pz      :     0.957456  p :     2.792813
      px      :     0.901012
      py      :     0.934345
      dz2     :     0.004064  d :     0.075909
      dxz     :     0.024525
      dyz     :     0.005352
      dx2y2   :     0.020990
      dxy     :     0.020978
      f0      :     0.001832  f :     0.008807
      f+1     :     0.000649
      f-1     :     0.000697
      f+2     :     0.000198
      f-2     :     0.001268
      f+3     :     0.002474
      f-3     :     0.001688

  1 C s       :     3.253102  s :     3.253102
      pz      :     0.978347  p :     2.834487
      px      :     0.940384
      py      :     0.915756
      dz2     :     0.004385  d :     0.080510
      dxz     :     0.009487
      dyz     :     0.019449
      dx2y2   :     0.026324
      dxy     :     0.020866
      f0      :     0.001842  f :     0.008860
      f+1     :     0.000730
      f-1     :     0.000684
      f+2     :     0.000999
      f-2     :     0.000448
      f+3     :     0.002411
      f-3     :     0.001747

  2 C s       :     3.154627  s :     3.154627
      pz      :     0.995707  p :     2.557683
      px      :     0.733106
      py      :     0.828870
      dz2     :     0.007109  d :     0.168193
      dxz     :     0.030388
      dyz     :     0.028007
      dx2y2   :     0.048061
      dxy     :     0.054628
      f0      :     0.002185  f :     0.012473
      f+1     :     0.001005
      f-1     :     0.000828
      f+2     :     0.001239
      f-2     :     0.001149
      f+3     :     0.003818
      f-3     :     0.002248

  3 C s       :     3.172427  s :     3.172427
      pz      :     1.021605  p :     2.584069
      px      :     0.843117
      py      :     0.719347
      dz2     :     0.007241  d :     0.178081
      dxz     :     0.025640
      dyz     :     0.032324
      dx2y2   :     0.054071
      dxy     :     0.058805
      f0      :     0.002194  f :     0.012417
      f+1     :     0.000800
      f-1     :     0.001097
      f+2     :     0.001076
      f-2     :     0.001276
      f+3     :     0.003691
      f-3     :     0.002283

  4 C s       :     3.154628  s :     3.154628
      pz      :     0.995707  p :     2.557683
      px      :     0.733105
      py      :     0.828872
      dz2     :     0.007109  d :     0.168194
      dxz     :     0.030388
      dyz     :     0.028007
      dx2y2   :     0.048061
      dxy     :     0.054629
      f0      :     0.002185  f :     0.012473
      f+1     :     0.001005
      f-1     :     0.000828
      f+2     :     0.001239
      f-2     :     0.001149
      f+3     :     0.003818
      f-3     :     0.002248

  5 C s       :     3.253101  s :     3.253101
      pz      :     0.978347  p :     2.834488
      px      :     0.940388
      py      :     0.915753
      dz2     :     0.004385  d :     0.080511
      dxz     :     0.009488
      dyz     :     0.019449
      dx2y2   :     0.026322
      dxy     :     0.020867
      f0      :     0.001842  f :     0.008860
      f+1     :     0.000730
      f-1     :     0.000684
      f+2     :     0.000999
      f-2     :     0.000448
      f+3     :     0.002411
      f-3     :     0.001747

  6 Cls       :     5.912178  s :     5.912178
      pz      :     3.903010  p :    11.093945
      px      :     3.394095
      py      :     3.796840
      dz2     :     0.007279  d :     0.063727
      dxz     :     0.015551
      dyz     :     0.005722
      dx2y2   :     0.015012
      dxy     :     0.020163
      f0      :     0.000576  f :     0.005685
      f+1     :     0.000838
      f-1     :     0.000305
      f+2     :     0.000262
      f-2     :     0.000658
      f+3     :     0.001148
      f-3     :     0.001899

  7 Cls       :     5.915707  s :     5.915707
      pz      :     3.894767  p :    11.061380
      px      :     3.944237
      py      :     3.222376
      dz2     :     0.007713  d :     0.067315
      dxz     :     0.000589
      dyz     :     0.021648
      dx2y2   :     0.025094
      dxy     :     0.012272
      f0      :     0.000594  f :     0.005993
      f+1     :     0.000093
      f-1     :     0.001092
      f+2     :     0.000970
      f-2     :     0.000030
      f+3     :     0.001214
      f-3     :     0.001999

  8 Cls       :     5.912179  s :     5.912179
      pz      :     3.903010  p :    11.093945
      px      :     3.394122
      py      :     3.796814
      dz2     :     0.007279  d :     0.063726
      dxz     :     0.015550
      dyz     :     0.005722
      dx2y2   :     0.015011
      dxy     :     0.020163
      f0      :     0.000576  f :     0.005685
      f+1     :     0.000838
      f-1     :     0.000305
      f+2     :     0.000262
      f-2     :     0.000658
      f+3     :     0.001148
      f-3     :     0.001899

  9 H s       :     0.853039  s :     0.853039
      pz      :     0.005528  p :     0.023692
      px      :     0.004352
      py      :     0.013812

 10 H s       :     0.844107  s :     0.844107
      pz      :     0.005541  p :     0.023782
      px      :     0.011763
      py      :     0.006478

 11 H s       :     0.844107  s :     0.844107
      pz      :     0.005541  p :     0.023782
      px      :     0.011763
      py      :     0.006479



                     *******************************
                     * LOEWDIN POPULATION ANALYSIS *
                     *******************************

----------------------
LOEWDIN ATOMIC CHARGES
----------------------
   0 C :   -0.129736
   1 C :   -0.141248
   2 C :   -0.431341
   3 C :   -0.451074
   4 C :   -0.431345
   5 C :   -0.141247
   6 Cl:    0.416378
   7 Cl:    0.437272
   8 Cl:    0.416375
   9 H :    0.151162
  10 H :    0.152402
  11 H :    0.152402

-------------------------------
LOEWDIN REDUCED ORBITAL CHARGES
-------------------------------
  0 C s       :     2.767883  s :     2.767883
      pz      :     0.877190  p :     2.923135
      px      :     1.060881
      py      :     0.985065
      dz2     :     0.025658  d :     0.394119
      dxz     :     0.085213
      dyz     :     0.012562
      dx2y2   :     0.166793
      dxy     :     0.103892
      f0      :     0.003373  f :     0.044599
      f+1     :     0.004537
      f-1     :     0.003285
      f+2     :     0.001332
      f-2     :     0.008246
      f+3     :     0.015578
      f-3     :     0.008247

  1 C s       :     2.770958  s :     2.770958
      pz      :     0.892890  p :     2.938938
      px      :     1.017580
      py      :     1.028467
      dz2     :     0.026926  d :     0.387063
      dxz     :     0.028937
      dyz     :     0.065408
      dx2y2   :     0.127302
      dxy     :     0.138490
      f0      :     0.003558  f :     0.044289
      f+1     :     0.003628
      f-1     :     0.004407
      f+2     :     0.006805
      f-2     :     0.002920
      f+3     :     0.014427
      f-3     :     0.008542

  2 C s       :     2.788760  s :     2.788760
      pz      :     0.923206  p :     2.957329
      px      :     0.969870
      py      :     1.064253
      dz2     :     0.043430  d :     0.621325
      dxz     :     0.093870
      dyz     :     0.086521
      dx2y2   :     0.184392
      dxy     :     0.213112
      f0      :     0.004535  f :     0.063928
      f+1     :     0.005344
      f-1     :     0.004839
      f+2     :     0.007795
      f-2     :     0.007380
      f+3     :     0.022677
      f-3     :     0.011357

  3 C s       :     2.791512  s :     2.791512
      pz      :     0.943234  p :     2.979918
      px      :     1.080673
      py      :     0.956011
      dz2     :     0.044210  d :     0.616239
      dxz     :     0.079589
      dyz     :     0.098699
      dx2y2   :     0.206789
      dxy     :     0.186952
      f0      :     0.004691  f :     0.063405
      f+1     :     0.004824
      f-1     :     0.005564
      f+2     :     0.007102
      f-2     :     0.008290
      f+3     :     0.021441
      f-3     :     0.011493

  4 C s       :     2.788758  s :     2.788758
      pz      :     0.923205  p :     2.957330
      px      :     0.969866
      py      :     1.064259
      dz2     :     0.043430  d :     0.621328
      dxz     :     0.093871
      dyz     :     0.086522
      dx2y2   :     0.184396
      dxy     :     0.213110
      f0      :     0.004535  f :     0.063928
      f+1     :     0.005344
      f-1     :     0.004839
      f+2     :     0.007795
      f-2     :     0.007381
      f+3     :     0.022677
      f-3     :     0.011358

  5 C s       :     2.770957  s :     2.770957
      pz      :     0.892891  p :     2.938938
      px      :     1.017584
      py      :     1.028464
      dz2     :     0.026926  d :     0.387063
      dxz     :     0.028939
      dyz     :     0.065405
      dx2y2   :     0.127296
      dxy     :     0.138496
      f0      :     0.003558  f :     0.044289
      f+1     :     0.003628
      f-1     :     0.004407
      f+2     :     0.006806
      f-2     :     0.002920
      f+3     :     0.014427
      f-3     :     0.008542

  6 Cls       :     5.548492  s :     5.548492
      pz      :     3.827704  p :    10.919782
      px      :     3.376076
      py      :     3.716001
      dz2     :     0.012312  d :     0.103295
      dxz     :     0.023066
      dyz     :     0.008288
      dx2y2   :     0.025004
      dxy     :     0.034624
      f0      :     0.001238  f :     0.012054
      f+1     :     0.001603
      f-1     :     0.000620
      f+2     :     0.000566
      f-2     :     0.001503
      f+3     :     0.002821
      f-3     :     0.003703

  7 Cls       :     5.541701  s :     5.541701
      pz      :     3.818283  p :    10.899538
      px      :     3.848313
      py      :     3.232942
      dz2     :     0.012693  d :     0.108712
      dxz     :     0.000510
      dyz     :     0.032706
      dx2y2   :     0.042589
      dxy     :     0.020214
      f0      :     0.001299  f :     0.012777
      f+1     :     0.000203
      f-1     :     0.002112
      f+2     :     0.002281
      f-2     :     0.000017
      f+3     :     0.002928
      f-3     :     0.003937

  8 Cls       :     5.548494  s :     5.548494
      pz      :     3.827705  p :    10.919783
      px      :     3.376100
      py      :     3.715978
      dz2     :     0.012312  d :     0.103294
      dxz     :     0.023065
      dyz     :     0.008290
      dx2y2   :     0.025002
      dxy     :     0.034625
      f0      :     0.001238  f :     0.012054
      f+1     :     0.001603
      f-1     :     0.000620
      f+2     :     0.000566
      f-2     :     0.001503
      f+3     :     0.002821
      f-3     :     0.003704

  9 H s       :     0.788237  s :     0.788237
      pz      :     0.014020  p :     0.060602
      px      :     0.011100
      py      :     0.035482

 10 H s       :     0.785890  s :     0.785890
      pz      :     0.014488  p :     0.061707
      px      :     0.030558
      py      :     0.016661

 11 H s       :     0.785890  s :     0.785890
      pz      :     0.014488  p :     0.061707
      px      :     0.030557
      py      :     0.016662



                      *****************************
                      * MAYER POPULATION ANALYSIS *
                      *****************************

  NA   - Mulliken gross atomic population
  ZA   - Total nuclear charge
  QA   - Mulliken gross atomic charge
  VA   - Mayer's total valence
  BVA  - Mayer's bonded valence
  FA   - Mayer's free valence

  ATOM       NA         ZA         QA         VA         BVA        FA
  0 C      6.0992     6.0000    -0.0992     3.8804     3.8804     0.0000
  1 C      6.1770     6.0000    -0.1770     3.9260     3.9260     0.0000
  2 C      5.8930     6.0000     0.1070     3.8367     3.8367     0.0000
  3 C      5.9470     6.0000     0.0530     3.8282     3.8282    -0.0000
  4 C      5.8930     6.0000     0.1070     3.8367     3.8367     0.0000
  5 C      6.1770     6.0000    -0.1770     3.9260     3.9260     0.0000
  6 Cl    17.0755    17.0000    -0.0755     1.2620     1.2620    -0.0000
  7 Cl    17.0504    17.0000    -0.0504     1.3017     1.3017    -0.0000
  8 Cl    17.0755    17.0000    -0.0755     1.2620     1.2620    -0.0000
  9 H      0.8767     1.0000     0.1233     0.9735     0.9735     0.0000
 10 H      0.8679     1.0000     0.1321     0.9816     0.9816     0.0000
 11 H      0.8679     1.0000     0.1321     0.9816     0.9816     0.0000

  Mayer bond orders larger than 0.100000
B(  0-C ,  1-C ) :   1.3857 B(  0-C ,  5-C ) :   1.3857 B(  0-C ,  9-H ) :   0.9689 
B(  1-C ,  2-C ) :   1.3704 B(  1-C , 10-H ) :   0.9629 B(  2-C ,  3-C ) :   1.2679 
B(  2-C ,  8-Cl) :   1.0734 B(  3-C ,  4-C ) :   1.2679 B(  3-C ,  7-Cl) :   1.1711 
B(  4-C ,  5-C ) :   1.3704 B(  4-C ,  6-Cl) :   1.0734 B(  5-C , 11-H ) :   0.9629 


-------
TIMINGS
-------

Total SCF time: 0 days 0 hours 0 min 30 sec 

Total time                  ....      30.893 sec
Sum of individual times     ....      30.397 sec  ( 98.4%)

SCF preparation             ....       0.252 sec  (  0.8%)
Fock matrix formation       ....      28.861 sec  ( 93.4%)
  Startup                   ....       0.070 sec  (  0.2% of F)
  Split-RI-J                ....       4.314 sec  ( 14.9% of F)
  XC integration            ....      23.856 sec  ( 82.7% of F)
    XC Preparation          ....       0.000 sec  (  0.0% of XC)
    Basis function eval.    ....       3.447 sec  ( 14.4% of XC)
    Density eval.           ....       7.178 sec  ( 30.1% of XC)
    XC-Functional eval.     ....       1.890 sec  (  7.9% of XC)
    XC-Potential eval.      ....      10.446 sec  ( 43.8% of XC)
Diagonalization             ....       0.000 sec  (  0.0%)
Density matrix formation    ....       0.416 sec  (  1.3%)
Total Energy calculation    ....       0.037 sec  (  0.1%)
Population analysis         ....       0.037 sec  (  0.1%)
Orbital Transformation      ....       0.087 sec  (  0.3%)
Orbital Orthonormalization  ....       0.000 sec  (  0.0%)
DIIS solution               ....       0.434 sec  (  1.4%)
SOSCF solution              ....       0.272 sec  (  0.9%)
Finished LeanSCF after  31.0 sec

Maximum memory used throughout the entire LEANSCF-calculation: 35.4 MB

------------------------------------------------------------------------------
                         ORCA PROPERTY INTEGRAL CALCULATIONS
------------------------------------------------------------------------------

GBWName                                   ... vacuum_censo.gbw
Number of atoms                           ...     12
Number of basis functions                 ...    315
Max core memory                           ...   1024 MB

Dipole integrals                          ... YES
Quadrupole integrals                      ...  NO
Linear momentum integrals                 ...  NO
Angular momentum integrals                ...  NO
Higher moments length integrals           ...  NO
Higher moments velocity integrals         ...  NO
Kinetic energy integrals                  ...  NO
GIAO right hand sides                     ...  NO
GIAO dipole derivative integrals          ...  NO
SOC integrals                             ...  NO
EPR diamagnetic integrals (GIAO)          ...  NO
EPR gauge integrals                       ...  NO
Field gradient integrals                  ...  NO (   0 nuclei)
Spin-dipole/Fermi contact integrals       ...  NO (   0 nuclei)
Contact density integrals                 ...  NO (   0 nuclei)
Nucleus-orbit integrals                   ...  NO (   0 nuclei)
Geometric perturbations                   ... YES (  12 nuclei)

Choice of electric origin   ... Center of mass
Position of electric origin ... (  0.0000, -0.0000,  0.0000) 
Choice of magnetic origin   ... GIAO
Position of magnetic origin ... (  0.0000,  0.0000,  0.0000) 

Calculating integrals                     ... Electric Dipole (Length)     done (  0.0 sec)
Calculating integrals                     ... Geometrical perturbation right hand sides

-----------------------
GEOMETRIC PERTURBATIONS (12 nuclei)
-----------------------

MaxCore                            ...   1024 MB
Number of batches                  ...      1

BATCH   0: Atoms    0 -   11 ( 36 perturbations)
   => H(core) and overlap derivative integrals     ... done (     0.4 sec)
   => Making and storing internal U-coefficients   ... done (     0.3 sec)
   => RI-J derivative integrals                    ... done (     5.3 sec)
   => RI-J response operators                      ... done (     1.2 sec)
   => XC derivative integrals                      ... done (   232.3 sec)
   => XC response operators                        ... done (    60.8 sec)
   => Completing and storing right hand sides      ... done (     0.2 sec)
   => Total time for right hand sides = 302.9 sec

  geometrical perturbations done (302.9 sec)

Property integrals calculated in 303.0 sec

Maximum memory used throughout the entire PROPINT-calculation: 139.1 MB


-------------------------------------------------------------------------------
                          DFT DISPERSION CORRECTION                            
                                                                               
                                DFTD4 V3.4.0                                   
-------------------------------------------------------------------------------
The R2SCAN3C composite method is recognized
Using three-body term ABC
Active option DFTDOPT                   ...         5   

-------------------------   ----------------
Dispersion correction           -0.005604767
-------------------------   ----------------

------------------   -----------------
gCP correction             0.006160820
------------------   -----------------

-------------------------   --------------------
FINAL SINGLE POINT ENERGY     -1610.951528862763
-------------------------   --------------------

------------------------------------------------------------------------------
                            ORCA SCF RESPONSE CALCULATION
------------------------------------------------------------------------------

GBWName                                 ... vacuum_censo.gbw
Number of atoms                         ...     12
Number of basis functions               ...    315
Max core memory                         ...   1024 MB

Electric field perturbation             ...  NO
Quadrupolar field perturbation          ...  NO
Magnetic field perturbation (no GIAO)   ...  NO
Magnetic field perturbation (with GIAO) ...  NO
Linear momentum (velocity) perturbation ...  NO
Spin-orbit coupling perturbation        ...  NO
Choice of electric origin               ... Center of mass
Position of electric origin             ...     0.000000    -0.000018     0.000020
Choice of magnetic origin               ... GIAO
Position of magnetic origin             ...     0.000000     0.000000     0.000000
Nuclear geometric perturbations         ... YES (  36 perturbations)
Nucleus-orbit perturbations             ...  NO (   0 perturbations)
Spin-dipole/Fermi contact perturbations ...  NO (   0 perturbations)

Total number of real perturbations      ...     36
Total number of imaginary perturbations ...      0
Total number of triplet perturbations   ...      0
Total number of SOC perturbations       ...      0


                                **********************
                                * REAL PERTURBATIONS *
                                **********************



-------------------
SHARK CP-SCF DRIVER
-------------------

Dimension of the orbital basis          ...    315
Dimension of the CPSCF-problem          ...  12150
Number of operators                     ...      1
Max. number of iterations               ...    128
Convergence Tolerance                   ... 1.0e-03
Number of perturbations                 ...     36
Perturbation type                       ... REAL

----------------------------
POPLE LINEAR EQUATION SOLVER
----------------------------

  ITERATION   0:   ||err||_max =   4.2963e-01 (  20.4 sec   0/ 36 done)
  ITERATION   1:   ||err||_max =   5.0750e-02 (  21.5 sec   0/ 36 done)
  ITERATION   2:   ||err||_max =   1.6294e-02 (  21.8 sec   9/ 36 done)
  ITERATION   3:   ||err||_max =   3.9402e-03 (  17.7 sec  16/ 36 done)
  ITERATION   4:   ||err||_max =   1.3701e-03 (  13.4 sec  27/ 36 done)
  ITERATION   5:   ||err||_max =   5.3274e-04 (   6.8 sec  36/ 36 done)

CP-SCF equations solved in 103.0 sec
Response densities calculated in   0.1 sec

Maximum memory used throughout the entire SCFRESP-calculation: 95.8 MB

------------------------------------------------------------------------------
                              ORCA PROPERTY CALCULATIONS
------------------------------------------------------------------------------

GBWName                                 ... vacuum_censo.gbw
Number of atoms                         ...     12
Number of basis functions               ...    315
Max core memory                         ...   1024 MB

Electric properties:
Dipole moment                           ... YES
Quadrupole moment                       ...  NO
Static polarizability (Dipole/Dipole)   ...  NO
Static polarizability (Dipole/Quad.)    ...  NO
Static polarizability (Quad./Quad.)     ...  NO
Static polarizability (Velocity)        ...  NO

Atomic electric properties:
Dipole moment                           ...  NO
Quadrupole moment                       ...  NO
Static polarizability                   ...  NO

Choice of electric origin               ... Center of mass
Position of electric origin             ...     0.000000    -0.000018     0.000020

General magnetic properties:
Magnetizability                         ...  NO

EPR properties:
g-Tensor (aka g-matrix)                 ...  NO
Zero-Field splitting spin-orbit         ...  NO
Zero-field splitting spin-spin          ...  NO
Hyperfine couplings                     ...  NO (   0 nuclei)
Quadrupole couplings                    ...  NO (   0 nuclei)
Contact density                         ...  NO (   0 nuclei)

NMR properties:
Chemical shifts                         ...  NO (   0 nuclei)
Spin-rotation constants                 ...  NO (   0 nuclei)
Spin-spin couplings                     ...  NO (   0 nuclei,    0 pairs)

Choice of magnetic origin               ... GIAO
Position of magnetic origin             ...     0.000000     0.000000     0.000000

Properties with geometric perturbations:
SCF Hessian                             ... YES
IR spectrum                             ... YES
VCD spectrum                            ...  NO
X-ray spectroscopy properties:
SCF XES/XAS/RIXS spectra                ...  NO


-------------
DIPOLE MOMENT
-------------

Method             : SCF
Type of density    : Electron Density
Multiplicity       :   1
Irrep              :   0
Energy             : -1610.9520849162095146 Eh
Relativity type    : 
Basis              : AO
                                X                 Y                 Z
Electronic contribution:     -0.000271781      10.528367004      -0.000329958
Nuclear contribution   :      0.000295188     -11.502436420       0.000362225
                        -----------------------------------------
Total Dipole Moment    :      0.000023407      -0.974069416       0.000032267
                        -----------------------------------------
Magnitude (a.u.)       :      0.974069417
Magnitude (Debye)      :      2.475887697



--------------------
Rotational spectrum 
--------------------
 
Rotational constants in cm-1:             0.049579             0.027797             0.017811 
Rotational constants in MHz :          1486.346520           833.347006           533.968133 

Dipole components along the rotational axes: 
x,y,z [a.u.] :     0.000002    -0.974069     0.000001 
x,y,z [Debye]:     0.000006    -2.475888     0.000003 

 

Dipole moment calculation done in   0.0 sec 

-----------
SCF HESSIAN
-----------

Occupied/Occupied contributions to the Hessian:
   => Occupied/Occupied contributions              ... done (  0.0 sec)
Perturbed density contributions to the Hessian:
   => Perturbed density contributions              ... done (  0.0 sec)
Explicit contributions to the Hessian:
   => Nuclear repulsion Hessian                    ... done (  0.0 sec)
   => HCore and overlap Hessian                    ... done (  9.7 sec)
   => RI-J Hessian                                 ... done ( 14.1 sec)
   => XC-Hessian                                   ... done ( 70.0 sec)
   => Van der Waals-Hessian                        ... done (  2.3 sec)
   => GCP-Hessian                                  ... done (  0.0 sec)
   => Explicit contributions done
Dipole derivatives                                 ... done (  0.1 sec)
Mass weighting the Hessian           ... done
Calculating normal modes             ... done
Scaling frequencies                  ... done

-----------------------
VIBRATIONAL FREQUENCIES
-----------------------

Scaling factor for frequencies =  1.000000000  (already applied!)

     0:       0.00 cm**-1
     1:       0.00 cm**-1
     2:       0.00 cm**-1
     3:       0.00 cm**-1
     4:       0.00 cm**-1
     5:       0.00 cm**-1
     6:      89.47 cm**-1
     7:     204.27 cm**-1
     8:     210.79 cm**-1
     9:     215.67 cm**-1
    10:     252.33 cm**-1
    11:     344.94 cm**-1
    12:     403.35 cm**-1
    13:     488.45 cm**-1
    14:     503.67 cm**-1
    15:     516.65 cm**-1
    16:     536.96 cm**-1
    17:     713.04 cm**-1
    18:     741.70 cm**-1
    19:     780.56 cm**-1
    20:     780.87 cm**-1
    21:     895.46 cm**-1
    22:     957.21 cm**-1
    23:    1050.06 cm**-1
    24:    1098.28 cm**-1
    25:    1156.20 cm**-1
    26:    1174.04 cm**-1
    27:    1215.31 cm**-1
    28:    1318.55 cm**-1
    29:    1430.15 cm**-1
    30:    1455.06 cm**-1
    31:    1588.64 cm**-1
    32:    1594.06 cm**-1
    33:    3180.99 cm**-1
    34:    3200.50 cm**-1
    35:    3205.30 cm**-1


------------
NORMAL MODES
------------

These modes are the Cartesian displacements weighted by the diagonal matrix
M(i,i)=1/sqrt(m[i]) where m[i] is the mass of the displaced atom
Thus, these vectors are normalized but *not* orthogonal

                  0          1          2          3          4          5    
      0       0.000000   0.000000   0.000000   0.000000   0.000000   0.000000
      1       0.000000   0.000000   0.000000   0.000000   0.000000   0.000000
      2       0.000000   0.000000   0.000000   0.000000   0.000000   0.000000
      3       0.000000   0.000000   0.000000   0.000000   0.000000   0.000000
      4       0.000000   0.000000   0.000000   0.000000   0.000000   0.000000
      5       0.000000   0.000000   0.000000   0.000000   0.000000   0.000000
      6       0.000000   0.000000   0.000000   0.000000   0.000000   0.000000
      7       0.000000   0.000000   0.000000   0.000000   0.000000   0.000000
      8       0.000000   0.000000   0.000000   0.000000   0.000000   0.000000
      9       0.000000   0.000000   0.000000   0.000000   0.000000   0.000000
     10       0.000000   0.000000   0.000000   0.000000   0.000000   0.000000
     11       0.000000   0.000000   0.000000   0.000000   0.000000   0.000000
     12       0.000000   0.000000   0.000000   0.000000   0.000000   0.000000
     13       0.000000   0.000000   0.000000   0.000000   0.000000   0.000000
     14       0.000000   0.000000   0.000000   0.000000   0.000000   0.000000
     15       0.000000   0.000000   0.000000   0.000000   0.000000   0.000000
     16       0.000000   0.000000   0.000000   0.000000   0.000000   0.000000
     17       0.000000   0.000000   0.000000   0.000000   0.000000   0.000000
     18       0.000000   0.000000   0.000000   0.000000   0.000000   0.000000
     19       0.000000   0.000000   0.000000   0.000000   0.000000   0.000000
     20       0.000000   0.000000   0.000000   0.000000   0.000000   0.000000
     21       0.000000   0.000000   0.000000   0.000000   0.000000   0.000000
     22       0.000000   0.000000   0.000000   0.000000   0.000000   0.000000
     23       0.000000   0.000000   0.000000   0.000000   0.000000   0.000000
     24       0.000000   0.000000   0.000000   0.000000   0.000000   0.000000
     25       0.000000   0.000000   0.000000   0.000000   0.000000   0.000000
     26       0.000000   0.000000   0.000000   0.000000   0.000000   0.000000
     27       0.000000   0.000000   0.000000   0.000000   0.000000   0.000000
     28       0.000000   0.000000   0.000000   0.000000   0.000000   0.000000
     29       0.000000   0.000000   0.000000   0.000000   0.000000   0.000000
     30       0.000000   0.000000   0.000000   0.000000   0.000000   0.000000
     31       0.000000   0.000000   0.000000   0.000000   0.000000   0.000000
     32       0.000000   0.000000   0.000000   0.000000   0.000000   0.000000
     33       0.000000   0.000000   0.000000   0.000000   0.000000   0.000000
     34       0.000000   0.000000   0.000000   0.000000   0.000000   0.000000
     35       0.000000   0.000000   0.000000   0.000000   0.000000   0.000000
                  6          7          8          9         10         11    
      0      -0.000004  -0.000000   0.000011   0.065667   0.000002   0.000006
      1      -0.000010   0.000004   0.160732  -0.000048   0.000008  -0.195428
      2      -0.336532   0.000001  -0.000009  -0.000002   0.242563   0.000006
      3      -0.000003   0.000002  -0.042747   0.039596  -0.000001  -0.119605
      4      -0.000006   0.000016   0.186267   0.035277   0.000002  -0.056293
      5      -0.186087   0.343804  -0.000052  -0.000004   0.006680   0.000002
      6      -0.000001   0.000001  -0.002619   0.102517  -0.000004  -0.224111
      7      -0.000001   0.000010   0.183346   0.050450  -0.000009  -0.034560
      8      -0.035908   0.154058  -0.000020  -0.000003  -0.318709   0.000007
      9      -0.000002  -0.000001   0.000007   0.059836  -0.000005  -0.000003
     10      -0.000004   0.000007   0.279361  -0.000084  -0.000012   0.220766
     11      -0.139786   0.000002  -0.000001   0.000001  -0.435079  -0.000003
     12      -0.000000  -0.000002   0.002659   0.102518  -0.000003   0.224117
     13      -0.000001  -0.000001   0.183324  -0.050557  -0.000009  -0.034548
     14      -0.035907  -0.154057   0.000022   0.000003  -0.318712   0.000001
     15      -0.000002  -0.000002   0.042757   0.039571  -0.000000   0.119611
     16      -0.000005  -0.000006   0.186254  -0.035389   0.000001  -0.056285
     17      -0.186087  -0.343805   0.000041   0.000003   0.006677   0.000003
     18       0.000006  -0.000006  -0.345934   0.312850   0.000001   0.453812
     19       0.000012  -0.000007  -0.378445   0.278019  -0.000000  -0.203691
     20       0.391498   0.087781   0.000003  -0.000014   0.071948  -0.000001
     21      -0.000005  -0.000001  -0.000188  -0.769715   0.000001  -0.000013
     22      -0.000014   0.000008   0.341141  -0.000124   0.000005   0.458793
     23      -0.448184  -0.000000  -0.000014   0.000008   0.100681  -0.000015
     24       0.000003   0.000008   0.346098   0.312653   0.000002  -0.453804
     25       0.000012  -0.000012  -0.378557  -0.277771  -0.000000  -0.203714
     26       0.391496  -0.087781   0.000019   0.000007   0.071947   0.000011
     27      -0.000006  -0.000000   0.000021   0.110887   0.000006   0.000006
     28      -0.000015   0.000004   0.161679  -0.000047   0.000020  -0.194444
     29      -0.485027  -0.000003  -0.000017  -0.000005   0.639363   0.000004
     30      -0.000003   0.000004  -0.032578   0.039685   0.000002  -0.020515
     31      -0.000006   0.000024   0.206432   0.034370   0.000011   0.125029
     32      -0.162342   0.591909  -0.000091  -0.000008   0.244289  -0.000009
     33      -0.000002  -0.000006   0.032586   0.039667   0.000002   0.020510
     34      -0.000005  -0.000014   0.206420  -0.034496   0.000009   0.125033
     35      -0.162341  -0.591914   0.000069   0.000003   0.244286   0.000000
                 12         13         14         15         16         17    
      0      -0.340962  -0.040870  -0.000011  -0.000003  -0.000000  -0.000001
      1      -0.000009   0.000002   0.406399  -0.000003   0.000001  -0.000005
      2       0.000005  -0.000003   0.000001  -0.301625   0.000003  -0.181817
      3      -0.224283  -0.200538  -0.010488   0.000002   0.000000   0.000002
      4      -0.117007   0.294432   0.321908   0.000010   0.000007   0.000003
      5       0.000005  -0.000007  -0.000022   0.219307   0.131969   0.092960
      6       0.092668  -0.169696  -0.039123   0.000001  -0.000005  -0.000002
      7      -0.076216   0.259920   0.214559   0.000004  -0.000012  -0.000007
      8       0.000001  -0.000002  -0.000007   0.075902  -0.420769  -0.201951
      9       0.129709  -0.259774   0.000004  -0.000002  -0.000003   0.000003
     10       0.000003  -0.000006   0.089625  -0.000008   0.000000   0.000008
     11       0.000001   0.000001   0.000012  -0.308428  -0.000001   0.283386
     12       0.092665  -0.169680   0.039119   0.000003   0.000004  -0.000003
     13       0.076219  -0.259924   0.214566   0.000007   0.000011  -0.000006
     14      -0.000002   0.000008  -0.000011   0.075904   0.420770  -0.201948
     15      -0.224289  -0.200522   0.010475   0.000003  -0.000001   0.000000
     16       0.116994  -0.294436   0.321916   0.000014  -0.000005   0.000003
     17      -0.000001   0.000016  -0.000019   0.219305  -0.131973   0.092958
     18       0.114701   0.131897   0.134342   0.000002   0.000001   0.000000
     19      -0.157412  -0.014967  -0.125371  -0.000003  -0.000001  -0.000000
     20       0.000003  -0.000001   0.000002  -0.013925  -0.030741   0.004600
     21      -0.036985   0.088596   0.000006  -0.000000   0.000001  -0.000000
     22      -0.000000   0.000000  -0.310024  -0.000004  -0.000000  -0.000000
     23       0.000000  -0.000001   0.000008   0.031131   0.000000  -0.011382
     24       0.114693   0.131893  -0.134339  -0.000003   0.000000  -0.000000
     25       0.157418   0.014970  -0.125378  -0.000002   0.000001   0.000000
     26      -0.000006  -0.000002   0.000006  -0.013925   0.030741   0.004600
     27      -0.435776   0.322612  -0.000015  -0.000008   0.000002   0.000002
     28      -0.000012   0.000012   0.411585  -0.000013   0.000001   0.000009
     29       0.000007  -0.000011   0.000017  -0.643683   0.000002   0.266827
     30      -0.338846  -0.155723  -0.024564   0.000002   0.000004   0.000005
     31      -0.326626   0.379915   0.308168   0.000014   0.000022   0.000019
     32       0.000013  -0.000015  -0.000030   0.381118   0.551893   0.598506
     33      -0.338864  -0.155702   0.024549   0.000005  -0.000006   0.000008
     34       0.326609  -0.379916   0.308181   0.000019  -0.000019   0.000018
     35      -0.000008   0.000024  -0.000021   0.381112  -0.551903   0.598504
                 18         19         20         21         22         23    
      0       0.000011   0.049091  -0.000018  -0.000000   0.000001  -0.000004
      1      -0.417221   0.000002   0.000002   0.000000   0.000004   0.116033
      2       0.000012   0.000127   0.056522  -0.000003   0.116925  -0.000005
      3      -0.261361   0.167063  -0.000063  -0.000001  -0.000001   0.323111
      4       0.042365  -0.225318   0.000089  -0.000004  -0.000003  -0.150225
      5       0.000001   0.000229   0.100153  -0.120146  -0.067563   0.000002
      6      -0.209501  -0.363932   0.000138   0.000001  -0.000000  -0.245793
      7       0.090275  -0.178318   0.000064   0.000002  -0.000000  -0.075112
      8      -0.000002  -0.000215  -0.100268   0.038189  -0.001567   0.000005
      9      -0.000006  -0.368604   0.000141   0.000000   0.000000  -0.000013
     10       0.289861  -0.000007   0.000002  -0.000000   0.000001   0.425423
     11      -0.000007   0.000126   0.054862  -0.000000   0.014748  -0.000013
     12       0.209498  -0.363938   0.000137  -0.000000   0.000000   0.245799
     13       0.090284   0.178300  -0.000071  -0.000002   0.000000  -0.075102
     14      -0.000006  -0.000226  -0.100269  -0.038187  -0.001568  -0.000001
     15       0.261358   0.167053  -0.000062   0.000002  -0.000001  -0.323102
     16       0.042378   0.225328  -0.000082   0.000004  -0.000002  -0.150242
     17      -0.000003   0.000217   0.100156   0.120147  -0.067560   0.000009
     18      -0.042773   0.115987  -0.000044   0.000000  -0.000000  -0.018019
     19       0.029317  -0.050110   0.000019   0.000000  -0.000000   0.006652
     20      -0.000000   0.000013   0.005710   0.003325  -0.001026   0.000000
     21       0.000003   0.006724  -0.000003   0.000000  -0.000000   0.000001
     22      -0.115349  -0.000001  -0.000000   0.000000  -0.000000  -0.050112
     23       0.000004  -0.000004  -0.001660  -0.000000  -0.000342   0.000002
     24       0.042771   0.115984  -0.000044  -0.000000   0.000000   0.018019
     25       0.029319   0.050115  -0.000019  -0.000000   0.000000   0.006652
     26      -0.000001   0.000010   0.005710  -0.003325  -0.001026  -0.000000
     27       0.000013  -0.439795   0.000162   0.000000  -0.000005  -0.000007
     28      -0.416988  -0.000012  -0.000021   0.000000  -0.000024   0.103927
     29       0.000017  -0.001541  -0.688639   0.000019  -0.749171  -0.000003
     30      -0.071256   0.271778  -0.000107   0.000004   0.000003   0.446937
     31       0.383993  -0.037093  -0.000002   0.000023   0.000015   0.054535
     32      -0.000010  -0.001099  -0.489552   0.695767   0.455926  -0.000006
     33       0.071234   0.271777  -0.000109  -0.000009   0.000006  -0.446939
     34       0.383998   0.037112  -0.000029  -0.000022   0.000014   0.054511
     35      -0.000013  -0.001107  -0.489565  -0.695772   0.455905  -0.000005
                 24         25         26         27         28         29    
      0       0.000005  -0.000004  -0.081916  -0.024135  -0.317296  -0.000003
      1      -0.243306  -0.026440  -0.000001  -0.000002  -0.000004  -0.099964
      2       0.000008   0.000001   0.000001   0.000000   0.000003   0.000003
      3       0.164581  -0.009101   0.057313  -0.036495   0.148624   0.107656
      4       0.027974  -0.075108   0.000013   0.043020   0.300561   0.031955
      5      -0.000002   0.000003  -0.000001  -0.000001  -0.000011  -0.000002
      6       0.148716   0.145953   0.046595  -0.034824   0.244694  -0.169868
      7       0.129473   0.087256   0.092421  -0.100466  -0.334365   0.165112
      8      -0.000006  -0.000004  -0.000003   0.000004   0.000009  -0.000004
      9      -0.000001  -0.000015  -0.046218   0.122276  -0.475464   0.000004
     10      -0.019379   0.227640  -0.000008   0.000006  -0.000004  -0.194489
     11       0.000000  -0.000007   0.000001  -0.000001   0.000005   0.000006
     12      -0.148721  -0.145948   0.046608  -0.034833   0.244663   0.169858
     13       0.129463   0.087239  -0.092424   0.100468   0.334345   0.165137
     14      -0.000002  -0.000001   0.000002  -0.000003  -0.000013  -0.000007
     15      -0.164580   0.009112   0.057315  -0.036495   0.148652  -0.107645
     16       0.027966  -0.075107  -0.000006  -0.043023  -0.300543   0.031925
     17       0.000001   0.000002  -0.000001   0.000002   0.000008   0.000000
     18       0.018661   0.016372  -0.005734   0.003104  -0.001750  -0.006277
     19      -0.015459  -0.007416   0.005877  -0.004785   0.002486  -0.002602
     20       0.000000  -0.000000  -0.000000   0.000000  -0.000000   0.000000
     21       0.000000   0.000001   0.003216  -0.003997   0.001196  -0.000000
     22      -0.004309  -0.026893   0.000001  -0.000000  -0.000000   0.008366
     23       0.000000   0.000001  -0.000000   0.000000  -0.000000  -0.000000
     24      -0.018660  -0.016373  -0.005733   0.003103  -0.001750   0.006277
     25      -0.015460  -0.007418  -0.005877   0.004785  -0.002485  -0.002602
     26       0.000001   0.000000   0.000000  -0.000000   0.000000   0.000000
     27       0.000005  -0.000039  -0.941275  -0.113352   0.287377  -0.000017
     28      -0.263658  -0.030596  -0.000024  -0.000005   0.000014  -0.120126
     29       0.000004   0.000003   0.000007   0.000001  -0.000001   0.000002
     30       0.417316  -0.291166   0.140929   0.282948  -0.066646  -0.229473
     31       0.440404  -0.594287   0.136571   0.625465  -0.082396  -0.589445
     32      -0.000017   0.000021  -0.000006  -0.000022   0.000004   0.000020
     33      -0.417339   0.291200   0.140922   0.282988  -0.066681   0.229473
     34       0.440387  -0.594262  -0.136530  -0.625467   0.082481  -0.589382
     35      -0.000010   0.000015   0.000005   0.000015   0.000001   0.000014
                 30         31         32         33         34         35    
      0       0.114846  -0.452337  -0.000059  -0.000002   0.003902   0.000003
      1       0.000006   0.000021  -0.191935   0.077141   0.000027  -0.039907
      2      -0.000001   0.000004   0.000006  -0.000002  -0.000000   0.000001
      3       0.012331   0.238185   0.122741   0.020858  -0.053297   0.049931
      4       0.150081   0.071544   0.333138  -0.014003   0.030708  -0.026458
      5      -0.000005  -0.000004  -0.000012   0.000000  -0.000001   0.000000
      6      -0.084514  -0.173801   0.035344   0.000493  -0.000698   0.000700
      7      -0.079408   0.092255  -0.260927   0.000258  -0.002312   0.002465
      8       0.000003  -0.000001   0.000008  -0.000000   0.000000  -0.000000
      9       0.129587   0.269399   0.000040  -0.000000   0.000800   0.000000
     10       0.000011  -0.000006   0.117023   0.000078  -0.000000   0.000310
     11      -0.000001  -0.000003  -0.000004  -0.000000  -0.000000   0.000000
     12      -0.084531  -0.173795  -0.035386  -0.000493  -0.000697  -0.000701
     13       0.079395  -0.092188  -0.260962   0.000257   0.002309   0.002468
     14      -0.000001   0.000005   0.000008  -0.000000  -0.000000  -0.000000
     15       0.012345   0.238232  -0.122690  -0.020850  -0.053243  -0.049988
     16      -0.150083  -0.071640   0.333115  -0.014000  -0.030684  -0.026494
     17       0.000004  -0.000000  -0.000009   0.000001   0.000002   0.000001
     18       0.002780  -0.000965   0.001472   0.000007   0.000093   0.000068
     19      -0.002743   0.003779   0.001644   0.000013  -0.000059  -0.000060
     20       0.000000  -0.000000  -0.000000  -0.000000  -0.000000  -0.000000
     21      -0.003593  -0.002839  -0.000000   0.000000   0.000002   0.000000
     22      -0.000000  -0.000001   0.002505  -0.000035   0.000000  -0.000026
     23       0.000000   0.000000  -0.000000  -0.000000   0.000000   0.000000
     24       0.002780  -0.000965  -0.001473  -0.000007   0.000093  -0.000068
     25       0.002744  -0.003779   0.001643   0.000013   0.000059  -0.000060
     26      -0.000000   0.000000  -0.000000  -0.000000  -0.000000   0.000000
     27      -0.663237   0.629366   0.000094   0.000025  -0.004447  -0.000014
     28      -0.000015   0.000055  -0.214876  -0.897059  -0.000297   0.430770
     29       0.000005  -0.000005   0.000005   0.000028   0.000000  -0.000014
     30      -0.299134   0.091648  -0.299370  -0.266143   0.614263  -0.554306
     31      -0.373392  -0.233099  -0.408242   0.152423  -0.345458   0.308980
     32       0.000015   0.000006   0.000016  -0.000003   0.000007  -0.000006
     33      -0.299169   0.091535   0.299421   0.266054   0.613669   0.554969
     34       0.373410   0.233247  -0.408156   0.152392   0.345171   0.309392
     35      -0.000009  -0.000005   0.000009  -0.000008  -0.000019  -0.000017


-----------
IR SPECTRUM
-----------

 Mode   freq       eps      Int      T**2         TX        TY        TZ
       cm**-1   L/(mol*cm) km/mol    a.u.
----------------------------------------------------------------------------
  6:     89.47   0.000029    0.15  0.000101  ( 0.000000  0.000001 -0.010056)
  7:    204.27   0.000000    0.00  0.000000  ( 0.000003  0.000001 -0.000000)
  8:    210.79   0.000001    0.00  0.000001  (-0.000001 -0.000929 -0.000000)
  9:    215.67   0.000013    0.06  0.000018  (-0.004279 -0.000000 -0.000000)
 10:    252.33   0.000405    2.05  0.000501  (-0.000001 -0.000004  0.022386)
 11:    344.94   0.000025    0.12  0.000022  ( 0.000000  0.004728 -0.000000)
 12:    403.35   0.000644    3.25  0.000498  (-0.022318 -0.000001  0.000000)
 13:    488.45   0.000474    2.40  0.000303  (-0.017411 -0.000000  0.000000)
 14:    503.67   0.002184   11.04  0.001353  (-0.000001  0.036783 -0.000001)
 15:    516.65   0.000001    0.00  0.000000  (-0.000001  0.000006  0.000682)
 16:    536.96   0.000000    0.00  0.000000  ( 0.000004  0.000001 -0.000000)
 17:    713.04   0.002285   11.55  0.001000  ( 0.000001 -0.000001  0.031627)
 18:    741.70   0.001484    7.50  0.000624  (-0.000001  0.024986 -0.000001)
 19:    780.56   0.016692   84.36  0.006673  (-0.081691 -0.000002 -0.000051)
 20:    780.87   0.007862   39.73  0.003142  ( 0.000077  0.000003 -0.056053)
 21:    895.46   0.000000    0.00  0.000000  ( 0.000001  0.000000  0.000000)
 22:    957.21   0.000086    0.43  0.000028  (-0.000000  0.000001  0.005290)
 23:   1050.06   0.001553    7.85  0.000461  (-0.000000  0.021481 -0.000001)
 24:   1098.28   0.002636   13.32  0.000749  (-0.000000  0.027368 -0.000001)
 25:   1156.20   0.006990   35.33  0.001887  ( 0.000001  0.043437 -0.000001)
 26:   1174.04   0.002222   11.23  0.000591  ( 0.024302 -0.000001 -0.000000)
 27:   1215.31   0.004164   21.04  0.001069  (-0.032700 -0.000000  0.000000)
 28:   1318.55   0.000669    3.38  0.000158  ( 0.012588  0.000001 -0.000000)
 29:   1430.15   0.009193   46.46  0.002006  (-0.000001 -0.044787  0.000001)
 30:   1455.06   0.013132   66.36  0.002816  (-0.053070  0.000000  0.000001)
 31:   1588.64   0.007153   36.15  0.001405  (-0.037484  0.000001  0.000001)
 32:   1594.06   0.000268    1.35  0.000052  (-0.000006 -0.007243  0.000000)
 33:   3180.99   0.000593    3.00  0.000058  (-0.000000  0.007629 -0.000000)
 34:   3200.50   0.000014    0.07  0.000001  (-0.001181  0.000003 -0.000000)
 35:   3205.30   0.000182    0.92  0.000018  (-0.000001 -0.004206  0.000000)

* The epsilon (eps) is given for a Dirac delta lineshape.
** The dipole moment derivative (T) already includes vibrational overlap.

The first frequency considered to be a vibration is 6
The total number of vibrations considered is 30


--------------------------
THERMOCHEMISTRY AT 298.15K
--------------------------

Temperature         ...   298.15 K
Pressure            ...     1.00 atm
Total Mass          ...   181.45 AMU
Quasi RRHO          ...     True
Cut-Off Frequency   ...     1.00 cm^-1

Throughout the following assumptions are being made:
  (1) The electronic state is orbitally nondegenerate
  (2) There are no thermally accessible electronically excited states
  (3) Hindered rotations indicated by low frequency modes are not
      treated as such but are treated as vibrations and this may
      cause some error
  (4) All equations used are the standard statistical mechanics
      equations for an ideal gas
  (5) All vibrations are strictly harmonic

freq.      89.47  E(vib)   ...       0.47 
freq.     204.27  E(vib)   ...       0.35 
freq.     210.79  E(vib)   ...       0.34 
freq.     215.67  E(vib)   ...       0.34 
freq.     252.33  E(vib)   ...       0.30 
freq.     344.94  E(vib)   ...       0.23 
freq.     403.35  E(vib)   ...       0.19 
freq.     488.45  E(vib)   ...       0.15 
freq.     503.67  E(vib)   ...       0.14 
freq.     516.65  E(vib)   ...       0.13 
freq.     536.96  E(vib)   ...       0.12 
freq.     713.04  E(vib)   ...       0.07 
freq.     741.70  E(vib)   ...       0.06 
freq.     780.56  E(vib)   ...       0.05 
freq.     780.87  E(vib)   ...       0.05 
freq.     895.46  E(vib)   ...       0.03 
freq.     957.21  E(vib)   ...       0.03 
freq.    1050.06  E(vib)   ...       0.02 
freq.    1098.28  E(vib)   ...       0.02 
freq.    1156.20  E(vib)   ...       0.01 
freq.    1174.04  E(vib)   ...       0.01 
freq.    1215.31  E(vib)   ...       0.01 
freq.    1318.55  E(vib)   ...       0.01 
freq.    1430.15  E(vib)   ...       0.00 
freq.    1455.06  E(vib)   ...       0.00 
freq.    1588.64  E(vib)   ...       0.00 
freq.    1594.06  E(vib)   ...       0.00 
freq.    3180.99  E(vib)   ...       0.00 
freq.    3200.50  E(vib)   ...       0.00 
freq.    3205.30  E(vib)   ...       0.00 

------------
INNER ENERGY
------------

The inner energy is: U= E(el) + E(ZPE) + E(vib) + E(rot) + E(trans)
    E(el)   - is the total energy from the electronic structure calculation
              = E(kin-el) + E(nuc-el) + E(el-el) + E(nuc-nuc)
    E(ZPE)  - the the zero temperature vibrational energy from the frequency calculation
    E(vib)  - the the finite temperature correction to E(ZPE) due to population
              of excited vibrational states
    E(rot)  - is the rotational thermal energy
    E(trans)- is the translational thermal energy

Summary of contributions to the inner energy U:
Electronic energy                ...  -1610.95152886 Eh
Zero point energy                ...      0.07131242 Eh      44.75 kcal/mol
Thermal vibrational correction   ...      0.00502111 Eh       3.15 kcal/mol
Thermal rotational correction    ...      0.00141627 Eh       0.89 kcal/mol
Thermal translational correction ...      0.00141627 Eh       0.89 kcal/mol
-----------------------------------------------------------------------
Total thermal energy                  -1610.87236279 Eh


Summary of corrections to the electronic energy:
(perhaps to be used in another calculation)
Total thermal correction                  0.00785365 Eh       4.93 kcal/mol
Non-thermal (ZPE) correction              0.07131242 Eh      44.75 kcal/mol
-----------------------------------------------------------------------
Total correction                          0.07916607 Eh      49.68 kcal/mol


--------
ENTHALPY
--------

The enthalpy is H = U + kB*T
                kB is Boltzmann's constant
Total thermal energy              ...  -1610.87236279 Eh 
Thermal Enthalpy correction       ...      0.00094421 Eh       0.59 kcal/mol
-----------------------------------------------------------------------
Total Enthalpy                    ...  -1610.87141858 Eh


Note: Rotational entropy computed according to Herzberg 
Infrared and Raman Spectra, Chapter V,1, Van Nostrand Reinhold, 1945 
Point Group:  C2v, Symmetry Number:   2  
Rotational constants in cm-1:     0.049579     0.027797     0.017811 

Vibrational entropy computed according to the QRRHO of S. Grimme
Chem.Eur.J. 2012 18 9955 using a reference frequency of 100.0 cm-1


-------
ENTROPY
-------

The entropy contributions are T*S = T*(S(el)+S(vib)+S(rot)+S(trans))
     S(el)   - electronic entropy
     S(vib)  - vibrational entropy
     S(rot)  - rotational entropy
     S(trans)- translational entropy
The entropies will be listed as multiplied by the temperature to get
units of energy

Electronic entropy                ...      0.00000000 Eh      0.00 kcal/mol
Vibrational entropy               ...      0.00825327 Eh      5.18 kcal/mol
Rotational entropy                ...      0.01386756 Eh      8.70 kcal/mol
Translational entropy             ...      0.01971506 Eh     12.37 kcal/mol
-----------------------------------------------------------------------
Final entropy term                ...      0.04183589 Eh     26.25 kcal/mol

In case the symmetry of your molecule has not been determined correctly
or in case you have a reason to use a different symmetry number we print 
out the resulting rotational entropy values for sn=1,12:

 non-linear molecules -----------------------------------
|  sn= 1 | S(rot)=       0.01452201 Eh      9.11 kcal/mol|
|  sn= 2 | S(rot)=       0.01386756 Eh      8.70 kcal/mol|
|  sn= 3 | S(rot)=       0.01348472 Eh      8.46 kcal/mol|
|  sn= 4 | S(rot)=       0.01321310 Eh      8.29 kcal/mol|
|  sn= 5 | S(rot)=       0.01300241 Eh      8.16 kcal/mol|
|  sn= 6 | S(rot)=       0.01283027 Eh      8.05 kcal/mol|
|  sn= 7 | S(rot)=       0.01268472 Eh      7.96 kcal/mol|
|  sn= 8 | S(rot)=       0.01255864 Eh      7.88 kcal/mol|
|  sn= 9 | S(rot)=       0.01244743 Eh      7.81 kcal/mol|
|  sn=10 | S(rot)=       0.01234796 Eh      7.75 kcal/mol|
|  sn=11 | S(rot)=       0.01225797 Eh      7.69 kcal/mol|
|  sn=12 | S(rot)=       0.01217581 Eh      7.64 kcal/mol|
 linear molecules ---------------------------------------
|  Dinfh | S(rot)=       0.00912890 Eh      5.73 kcal/mol|
|  Cinfv | S(rot)=       0.00978335 Eh      6.14 kcal/mol|
 --------------------------------------------------------


-------------------
GIBBS FREE ENERGY
-------------------

The Gibbs free energy is G = H - T*S

Total enthalpy                    ...  -1610.87141858 Eh 
Total entropy correction          ...     -0.04183589 Eh    -26.25 kcal/mol
-----------------------------------------------------------------------
Final Gibbs free energy         ...  -1610.91325447 Eh

For completeness - the Gibbs free energy minus the electronic energy
G-E(el)                           ...      0.03827439 Eh     24.02 kcal/mol


Maximum memory used throughout the entire PROP-calculation: 63.6 MB

--------------------------------
SUGGESTED CITATIONS FOR THIS RUN
--------------------------------

Below you find a list of papers that are relevant to this ORCA run
We neither can nor want to force you to cite these papers, but we appreciate if you do
You receive ORCA, which is the product of decades of hard work by many enthusiastic individuals, for free
The only thing we kindly ask in return is that you cite our papers,
We deeply appreciate it, if you show your appreciation for ORCA by not just citing the generic ORCA reference.

Please note that relegating all ORCA citations to the supporting information does *not* help us.
SI sections are not indexed - citations you put there will not count into any citation statistics
But we need these citations in order to attract the funding resources that allow us to do what we are doing

Therefore, if you are a happy ORCA user, please consider citing a few of the papers listed below in the main body of your paper

In addition to the list printed below, the program has created the file vacuum_censo.bibtex that contains the list in bibtex format
You can import this file easily into all common literature databanks and citation aid programs


List of essential papers. We consider these as the minimum necessary citations

  1. Neese,F.
     Software update: the ORCA program system, version 5.0
     WIRES Comput. Molec. Sci., 2022 12(1)e1606
     doi.org/10.1002/wcms.1606
  2. Grimme,S.; Hansen,A.; Ehlert,S.; Mewes,J.
     r2SCAN-3c: A 'Swiss army knife' composite electronic-structure method
     J. Chem. Phys., 2021 154 064103
     doi.org/10.1063/5.0040021

List of papers to cite with high priority. The work reported in these papers was absolutely
necessary for this run to complete.
Our perspective: the developers of density functionals and basis sets usually get cited in chemistry papers
Good! But without the algorithms to do something with them, the functionals or basis sets would not do anything.
Hence, in our opinion, the algorithm design and method developments papers are equally worthy of getting cited

  1. Neese,F.
     An improvement of the resolution of the identity approximation for the formation of the Coulomb matrix
     J. Comp. Chem., 2003 24(14)1740-1747
     doi.org/10.1002/jcc.10318
  2. Bykov,D.; Petrenko,T.; Izsak,R.; Kossmann,S.; Becker,U.; Valeev,E.; Neese,F.
     Efficient implementation of the analytic second derivatives of Hartree-Fock and hybrid DFT energies: a detailed analysis of different approximations
     Molec. Phys., 2015 113 1961-1977
     doi.org/10.1080/00268976.2015.1025114
  3. Neese,F.
     The SHARK Integral Generation and Digestion System
     J. Comp. Chem., 2022  1-16
     doi.org/10.1002/jcc.26942
  4. Lehtola,S.; Steigemann,C.; Oliveira,M.; Marques,M.
     Recent developments in Libxc - A comprehensive library of functionals for density functional theory
     Software X, 2018 7 
     doi.org/10.1016/j.softx.2017.11.002
  5. Caldeweyher,E.; Bannwarth,C.; Grimme,S.
     Extension of the D3 dispersion coefficient model
     J. Chem. Phys., 2017 147 034112-XXXX
     doi.org/10.1063/1.4993215
  6. Caldeweyher,E.; Ehlert,S.; Hansen,A.; Neugebauer,H.; Spicher,S.; Bannwarth,C.; Grimme,S.
     A generally applicable atomic-charge dependent London dispersion correction
     J. Chem. Phys., 2019 150 154122-XXXX
     doi.org/10.1063/1.5090222
  7. Caldeweyher,E.; Mewes,J.; Ehlert,S.; Grimme,S.
     Extension and evaluation of the D4 London-dispersion model for periodic systems
     Phys. Chem. Chem. Phys., 2020 22(16)8499-8512
     doi.org/10.1039/D0CP00502A

List of suggested additional citations. These are papers that are important in the 'surrounding' of 
of this run, or papers that preceded the highly important papers. If you like your results we are grateful for a citation.

  1. Neese,F.
     The ORCA program system
     WIRES Comput. Molec. Sci., 2012 2(1)73-78
     doi.org/10.1002/wcms.81
  2. Neese,F.
     Software update: the ORCA program system, version 4.0
     WIRES Comput. Molec. Sci., 2018 8(1)1-6
     doi.org/10.1002/wcms.1327
  3. Neese,F.; Wennmohs,F.; Becker,U.; Riplinger,C.
     The ORCA quantum chemistry program package
     J. Chem. Phys., 2020 152 Art. No. L224108
     doi.org/10.1063/5.0004608

List of optional additional citations

  1. Neese,F.
     Approximate second-order SCF convergence for spin unrestricted wavefunctions
     Chem. Phys. Lett., 2000 325(1-3)93-98
     doi.org/10.1016/s0009-2614(00)00662-x

Timings for individual modules:

Sum of individual times          ...      537.325 sec (=   8.955 min)
Startup calculation              ...        1.142 sec (=   0.019 min)   0.2 %
SCF iterations                   ...       32.460 sec (=   0.541 min)   6.0 %
Property integrals               ...      303.089 sec (=   5.051 min)  56.4 %
SCF Response                     ...      104.102 sec (=   1.735 min)  19.4 %
Property calculations            ...       96.532 sec (=   1.609 min)  18.0 %
                             ****ORCA TERMINATED NORMALLY****
TOTAL RUN TIME: 0 days 0 hours 8 minutes 58 seconds 32 msec
