
                                 *****************
                                 * O   R   C   A *
                                 *****************

                                            #,                                       
                                            ###                                      
                                            ####                                     
                                            #####                                    
                                            ######                                   
                                           ########,                                 
                                     ,,################,,,,,                         
                               ,,#################################,,                 
                          ,,##########################################,,             
                       ,#########################################, ''#####,          
                    ,#############################################,,   '####,        
                  ,##################################################,,,,####,       
                ,###########''''           ''''###############################       
              ,#####''   ,,,,##########,,,,          '''####'''          '####       
            ,##' ,,,,###########################,,,                        '##       
           ' ,,###''''                  '''############,,,                           
         ,,##''                                '''############,,,,        ,,,,,,###''
      ,#''                                            '''#######################'''  
     '                                                          ''''####''''         
             ,#######,   #######,   ,#######,      ##                                
            ,#'     '#,  ##    ##  ,#'     '#,    #''#        ,####,   ,####,        
            ##       ##  ##   ,#'  ##            #'  '#       #'       #'  '#        
            ##       ##  #######   ##           ,######,      #####,   #    #        
            '#,     ,#'  ##    ##  '#,     ,#' ,#      #,     #,   #   #,  ,#        
             '#######'   ##     ##  '#######'  #'      '#     '####' # '####'        



                #########################################################
                #                        -***-                          #
                #          Department of theory and spectroscopy        #
                #                                                       #
                #                      Frank Neese                      #
                #                                                       #
                #     Directorship, Architecture, Infrastructure        #
                #                    SHARK, DRIVERS                     #
                #        Core code/Algorithms in most modules           #
                #                                                       #
                #        Max Planck Institute fuer Kohlenforschung      #
                #                Kaiser Wilhelm Platz 1                 #
                #                 D-45470 Muelheim/Ruhr                 #
                #                      Germany                          #
                #                                                       #
                #                  All rights reserved                  #
                #                        -***-                          #
                #########################################################


                         Program Version 6.0.1  -  RELEASE   -


 With contributions from (in alphabetic order):
[Max-Planck-Institut fuer Kohlenforschung]                               
  Daniel Aravena         : Magnetic Suceptibility                        
  Michael Atanasov       : Ab Initio Ligand Field Theory (pilot matlab implementation)
  Alexander A. Auer      : GIAO ZORA, VPT2 properties, NMR spectrum      
  Ute Becker             : All parallelization in ORCA, NUMFREQ, NUMCALC 
  Giovanni Bistoni       : ED, misc. LED, open-shell LED, HFLD           
  Martin Brehm           : Molecular dynamics                            
  Dmytro Bykov           : pre 5.0 version of the SCF Hessian            
  Marcos Casanova-Páez   : Triplet and SCS-CIS(D). UHF-(DLPNO)-IP/EA/STEOM-CCSD. UHF-CVS-IP/STEOM-CCSD   
  Vijay G. Chilkuri      : MRCI spin determinant printing, contributions to CSF-ICE 
  Pauline Colinet        : FMM embedding                                 
  Dipayan Datta          : RHF DLPNO-CCSD density                        
  Achintya Kumar Dutta   : EOM-CC, STEOM-CC                              
  Nicolas Foglia         : Exact transition moments, OPA infrastructure, MCD improvements    
  Dmitry Ganyushin       : Spin-Orbit,Spin-Spin,Magnetic field MRCI      
  Miquel Garcia-Rates    : C-PCM and meta-GGA Hessian, CCSD/C-PCM, Gaussian charge scheme 
  Tiago L. C. Gouveia    : GS-ROHF, GS-ROCIS                             
  Yang Guo               : DLPNO-NEVPT2, F12-NEVPT2, CIM, IAO-localization        
  Andreas Hansen         : Spin unrestricted coupled pair/coupled cluster methods 
  Ingolf Harden          : AUTO-CI MPn and infrastructure                
  Benjamin Helmich-Paris : MC-RPA, TRAH-(SCF,CASSCF), AVAS, COSX integrals, SCF dyn. polar. 
  Lee Huntington         : MR-EOM, pCC                                   
  Robert Izsak           : Overlap fitted RIJCOSX, COSX-SCS-MP3, EOM     
  Riya Kayal             : Wick's Theorem for AUTO-CI, AUTO-CI UHF-CCSDT 
  Emily Kempfer          : AUTO-CI, RHF CISDT and CCSDT                  
  Christian Kollmar      : KDIIS, OOCD, Brueckner-CCSD(T), CCSD density, CASPT2, CASPT2-K, improved NEVPT2 
  Axel Koslowski         : Symmetry handling                             
  Simone Kossmann        : meta-GGA functionals, TD-DFT gradient, OOMP2, (MP2 Hessian; deprecated post 5.0) 
  Lucas Lang             : DCDCAS                                        
  Marvin Lechner         : AUTO-CI (C++ implementation), FIC-MRCC        
  Spencer Leger          : CASSCF response                               
  Dagmar Lenk            : GEPOL surface, SMD, ORCA-2-JSON               
  Dimitrios Liakos       : Extrapolation schemes; Compound Job, initial MDCI parallelization 
  Dimitrios Manganas     : Further ROCIS development; embedding schemes. LFT, Crystal Embedding 
  Dimitrios Pantazis     : SARC Basis sets                               
  Anastasios Papadopoulos: AUTO-CI, single reference methods and gradients 
  Taras Petrenko         : pre 6.0 DFT Hessian and TD-DFT gradient, (ASA, deprecated), ECA, 1-Electron XAS/XES, NRVS 
  Peter Pinski           : DLPNO-MP2, DLPNO-MP2 Gradient                 
  Christoph Reimann      : Effective Core Potentials                     
  Marius Retegan         : Local ZFS, SOC                                
  Christoph Riplinger    : Optimizer, TS searches, QM/MM, DLPNO-CCSD(T), (RO)-DLPNO pert. Triples 
  Michael Roemelt        : Original ROCIS implementation                 
  Masaaki Saitow         : Open-shell DLPNO-CCSD energy and density      
  Barbara Sandhoefer     : DKH picture change effects                    
  Kantharuban Sivalingam : CASSCF convergence/infrastructure, NEVPT2 and variants, FIC-MRCI 
  Bernardo de Souza      : ESD, SOC TD-DFT                               
  Georgi L. Stoychev     : AutoAux, RI-MP2 NMR, DLPNO-MP2 response, X2C  
  Van Anh Tran           : RI-MP2 g-tensors                              
  Willem Van den Heuvel  : Paramagnetic NMR                              
  Zikuan Wang            : NOTCH, Electric field optimization            
  Frank Wennmohs         : Technical directorship and infrastructure     
  Hang Xu                : AUTO-CI-Response properties                   
                                                                         
[FACCTs GmbH]                                                            
  Markus Bursch, Miquel Garcia-Rates, Christoph Riplinger, Bernardo de Souza, Georgi L. Stoychev 
                                                                 
  APM, Basis sets (HGBS, AHGBS, def-TZVP (Ac-Lr), def2-XVPD (La-Lu)), CI-OPT, improved COSX, DLPNO-Multilevel,           
  DOCKER, DRACO, updates on ESD, GOAT, IRC, LR-CPCM, MBIS, meta-GGA TD-DFT gradient, ML-optimized integration grids, 
  MM, NACMEs, nearIR, NEB, NEB-TS, NL-DFT gradient (VV10), 2- and 3-layer-ONIOM, interface openCOSMO-RS, QMMM,   
  Crystal-QMMM, SF, symmetry and pop. for TD-DFT, r2SCAN hybrids, SOLVATOR                                   
                                                                         
[Other institutions]                                                     
  V. Asgeirsson          : NEB                                           
  Christoph Bannwarth    : sTDA-DFT, sTD-DFT, PBEh-3c, B97-3c, D3        
  Sebastian Ehlert       : rSCAN, r2SCAN, r2SCAN-3c, D4, dhf basis sets  
  Marvin Friede          : D4 for Fr, Ra, Ac-Lr                          
  Lars Goerigk           : TD-DFT with DH, B97 family of functionals     
  Stefan Grimme          : VdW corrections, initial TS optimization, DFT functionals, gCP, sTDA/sTD-DF 
  Waldemar Hujo          : DFT-NL                                        
  H. Jonsson             : NEB                                           
  Holger Kruse           : gCP                                           
  Marcel Mueller         : wB97X-3c, vDZP basis set                      
  Hagen Neugebauer       : wr2SCAN                                       
  Tobias Risthaus        : range-separated hybrid DFT                    
  Lukas Wittmann         : regularized MP2, r2SCAN double-hybrids, wr2SCAN        
                                                                         
We gratefully acknowledge several colleagues who have allowed us to      
interface, adapt or use parts of their codes:                            
  Ed Valeev, F. Pavosevic, A. Kumar             : LibInt (2-el integral package), F12 methods 
  Garnet Chan, S. Sharma, J. Yang, R. Olivares  : DMRG                   
  Ulf Ekstrom                                   : XCFun DFT Library      
  Mihaly Kallay                                 : mrcc  (arbitrary order and MRCC methods)
  Frank Weinhold                                : gennbo (NPA and NBO analysis)           
  Simon Mueller                                 : openCOSMO-RS                            
  Christopher J. Cramer and Donald G. Truhlar   : smd solvation model                     
  S Lehtola, MJT Oliveira, MAL Marques          : LibXC Library                           
  Liviu Ungur et al                             : ANISO software                          


 Your calculation uses the libint2 library for the computation of 2-el integrals
 For citations please refer to: http://libint.valeyev.net

 Your ORCA version has been built with support for libXC version: 6.2.2
 For citations please refer to: https://libxc.gitlab.io

 This ORCA versions uses:
   CBLAS   interface :  Fast vector & matrix operations
   LAPACKE interface :  Fast linear algebra routines
   SCALAPACK package :  Parallel linear algebra routines
   Shared memory     :  Shared parallel matrices
   BLAS/LAPACK       :  OpenBLAS 0.3.27  USE64BITINT DYNAMIC_ARCH NO_AFFINITY Zen SINGLE_THREADED
        Core in use  :  Zen
   Copyright (c) 2011-2014, The OpenBLAS Project


Your calculation utilizes the geometrical counterpoise correction gCP
Please cite in your paper:
H.Kruse, S. Grimme J.Chem.Phys., 136, (2012), 154101 
   

Your calculation utilizes the atom-pairwise dispersion correction
based on EEQ partial charges (D4)


================================================================================

----- Orbital basis set information -----
Your calculation utilizes the basis: def2-mTZVPP
   Stefan Grimme, Andreas Hansen, Sebastian Ehlert, and Jan-Michael Mewes 
   J. Chem. Phys. 154, 064103 (2021). DOI: 10.1063/5.0040021

----- AuxJ basis set information -----
Your calculation utilizes the auxiliary basis: def2/J
   F. Weigend, Phys. Chem. Chem. Phys. 8, 1057 (2006).

================================================================================
                                        WARNINGS
                       Please study these warnings very carefully!
================================================================================



WARNING: SCAN, rSCAN, or r2SCAN functional requested.
  ===> : libXC variant has now been activated.



================================================================================
                                       INPUT FILE
================================================================================
NAME = sp.inp
|  1> ! r2scan-3c def2/J RI DEFGRID2 scfconv6 printgap
|  2> %output
|  3>     printlevel normal
|  4> end
|  5> * xyz 0 1
|  6> C 0.7202492429 -0.5621105198 -0.2411984932
|  7> C -0.7204140748 -0.5618606385 0.2413682611
|  8> Cl -1.0759670164 0.8982955625 1.1793737292
|  9> Cl -1.802376689 -0.6668261507 -1.1641011155
| 10> Cl 1.0762417779 0.8977532965 -1.1795404208
| 11> Cl 1.8021717122 -0.6672380319 1.1642019481
| 12> H 0.9150540252 -1.4282935198 -0.8787080911
| 13> H -0.9155444358 -1.4278679539 0.8790015923
| 14> *
| 15> 
| 16>                          ****END OF INPUT****
================================================================================

                       ****************************
                       * Single Point Calculation *
                       ****************************

---------------------------------
CARTESIAN COORDINATES (ANGSTROEM)
---------------------------------
  C      0.720249   -0.562111   -0.241198
  C     -0.720414   -0.561861    0.241368
  Cl    -1.075967    0.898296    1.179374
  Cl    -1.802377   -0.666826   -1.164101
  Cl     1.076242    0.897753   -1.179540
  Cl     1.802172   -0.667238    1.164202
  H      0.915054   -1.428294   -0.878708
  H     -0.915544   -1.427868    0.879002

----------------------------
CARTESIAN COORDINATES (A.U.)
----------------------------
  NO LB      ZA    FRAG     MASS         X           Y           Z
   0 C     6.0000    0    12.011    1.361074   -1.062235   -0.455799
   1 C     6.0000    0    12.011   -1.361385   -1.061763    0.456120
   2 Cl   17.0000    0    35.453   -2.033283    1.697533    2.228693
   3 Cl   17.0000    0    35.453   -3.405998   -1.260119   -2.199832
   4 Cl   17.0000    0    35.453    2.033802    1.696508   -2.229008
   5 Cl   17.0000    0    35.453    3.405611   -1.260897    2.200023
   6 H     1.0000    0     1.008    1.729202   -2.699084   -1.660518
   7 H     1.0000    0     1.008   -1.730128   -2.698279    1.661072

--------------------------------
INTERNAL COORDINATES (ANGSTROEM)
--------------------------------
 C      0   0   0     0.000000000000     0.00000000     0.00000000
 C      1   0   0     1.519335884445     0.00000000     0.00000000
 Cl     2   1   0     1.771532749848   111.01552358     0.00000000
 Cl     2   1   3     1.776796281468   109.03585645   121.59174986
 Cl     1   2   3     1.771558246350   111.01671211   303.98203064
 Cl     1   2   3     1.776726884972   109.03725567    65.57981764
 H      1   2   3     1.092996056768   110.75589680   184.06166491
 H      2   1   3     1.092987096524   110.75961394   240.07488680

---------------------------
INTERNAL COORDINATES (A.U.)
---------------------------
 C      0   0   0     0.000000000000     0.00000000     0.00000000
 C      1   0   0     2.871128727040     0.00000000     0.00000000
 Cl     2   1   0     3.347711734485   111.01552358     0.00000000
 Cl     2   1   3     3.357658367744   109.03585645   121.59174986
 Cl     1   2   3     3.347759915891   111.01671211   303.98203064
 Cl     1   2   3     3.357527227372   109.03725567    65.57981764
 H      1   2   3     2.065463212748   110.75589680   184.06166491
 H      2   1   3     2.065446280340   110.75961394   240.07488680

---------------------
BASIS SET INFORMATION
---------------------
There are 3 groups of distinct atoms

 Group   1 Type C   : 11s6p1d contracted to 5s3p1d pattern {62111/411/1}
 Group   2 Type Cl  : 14s9p2d contracted to 5s4p2d pattern {73211/6111/11}
 Group   3 Type H   : 4s1p contracted to 2s1p pattern {31/1}

Atom   0C    basis set group =>   1
Atom   1C    basis set group =>   1
Atom   2Cl   basis set group =>   2
Atom   3Cl   basis set group =>   2
Atom   4Cl   basis set group =>   2
Atom   5Cl   basis set group =>   2
Atom   6H    basis set group =>   3
Atom   7H    basis set group =>   3
---------------------------------
AUXILIARY/J BASIS SET INFORMATION
---------------------------------
There are 3 groups of distinct atoms

 Group   1 Type C   : 12s5p4d2f1g contracted to 6s4p3d1f1g pattern {711111/2111/211/2/1}
 Group   2 Type Cl  : 14s5p5d2f1g contracted to 8s4p3d1f1g pattern {71111111/2111/311/2/1}
 Group   3 Type H   : 5s2p1d contracted to 3s1p1d pattern {311/2/1}

Atom   0C    basis set group =>   1
Atom   1C    basis set group =>   1
Atom   2Cl   basis set group =>   2
Atom   3Cl   basis set group =>   2
Atom   4Cl   basis set group =>   2
Atom   5Cl   basis set group =>   2
Atom   6H    basis set group =>   3
Atom   7H    basis set group =>   3

Checking for AutoStart:
The File: sp.gbw exists
Trying to determine its content:
     ... Fine, the file contains calculation information
     ... Fine, the calculation information was read
     ... Fine, the file contains a basis set
     ... Fine, the basis set was read
     ... Fine, the file contains a geometry
     ... Fine, the geometry was read
     ... Fine, the file contains a set of orbitals
     ... Fine, the orbitals can be read
     => possible old guess file was deleted
     => GBW file was renamed to GES file
     => GES file is set as startup file
     => Guess is set to MORead
     ... now leaving AutoStart

------------------------------------------------------------------------------
                             ORCA STARTUP CALCULATIONS
                           -- RI-GTO INTEGRALS CHOSEN --
------------------------------------------------------------------------------
------------------------------------------------------------------------------
                   ___                                                        
                  /   \      - P O W E R E D   B Y -                         
                 /     \                                                     
                 |  |  |   _    _      __       _____    __    __             
                 |  |  |  | |  | |    /  \     |  _  \  |  |  /  |          
                  \  \/   | |  | |   /    \    | | | |  |  | /  /          
                 / \  \   | |__| |  /  /\  \   | |_| |  |  |/  /          
                |  |  |   |  __  | /  /__\  \  |    /   |      \           
                |  |  |   | |  | | |   __   |  |    \   |  |\   \          
                \     /   | |  | | |  |  |  |  | |\  \  |  | \   \       
                 \___/    |_|  |_| |__|  |__|  |_| \__\ |__|  \__/        
                                                                              
                      - O R C A' S   B I G   F R I E N D -                    
                                      &                                       
                       - I N T E G R A L  F E E D E R -                       
                                                                              
 v1 FN, 2020, v2 2021, v3 2022-2024                                           
------------------------------------------------------------------------------


----------------------
SHARK INTEGRAL PACKAGE
----------------------

Number of atoms                             ...      8
Number of basis functions                   ...    156
Number of shells                            ...     68
Maximum angular momentum                    ...      2
Integral batch strategy                     ... SHARK/LIBINT Hybrid
RI-J (if used) integral strategy            ... SPLIT-RIJ (Revised 2003 algorithm where possible)
Printlevel                                  ...      1
Contraction scheme used                     ... SEGMENTED contraction
Prescreening option                         ... SCHWARTZ
   Thresh                                   ... 1.000e-10
   Tcut                                     ... 1.000e-11
   Tpresel                                  ... 1.000e-11 
Coulomb Range Separation                    ... NOT USED
Exchange Range Separation                   ... NOT USED
Multipole approximations                    ... NOT USED
Finite Nucleus Model                        ... NOT USED
CABS basis                                  ... NOT available
Auxiliary Coulomb fitting basis             ... AVAILABLE
   # of basis functions in Aux-J            ...    324
   # of shells in Aux-J                     ...    108
   Maximum angular momentum in Aux-J        ...      4
Auxiliary J/K fitting basis                 ... NOT available
Auxiliary Correlation fitting basis         ... NOT available
Auxiliary 'external' fitting basis          ... NOT available

Checking pre-screening integrals            ... done (  0.0 sec) Dimension = 68
Check shell pair data                       ... done (  0.0 sec)
Shell pair information
Shell pair cut-off parameter TPreSel        ...   1.0e-11
Total number of shell pairs                 ...      2346
Shell pairs after pre-screening             ...      2128
Total number of primitive shell pairs       ...     10941
Primitive shell pairs kept                  ...      6758
          la=0 lb=0:    494 shell pairs
          la=1 lb=0:    730 shell pairs
          la=1 lb=1:    283 shell pairs
          la=2 lb=0:    328 shell pairs
          la=2 lb=1:    238 shell pairs
          la=2 lb=2:     55 shell pairs

Calculating one electron integrals          ... done (  0.0 sec)
Calculating RI/J V-Matrix + Cholesky decomp.... done (  0.0 sec)
Calculating Nuclear repulsion               ... done (  0.0 sec) ENN=    531.594422851829 Eh

Diagonalization of the overlap matrix:
Smallest eigenvalue                        ... 5.648e-04
Time for diagonalization                   ...    0.002 sec
Threshold for overlap eigenvalues          ... 1.000e-07
Number of eigenvalues below threshold      ... 0
Time for construction of square roots      ...    0.003 sec
Total time needed                          ...    0.006 sec

-------------------
DFT GRID GENERATION
-------------------

General Integration Accuracy     IntAcc      ... 4.388
Radial Grid Type                 RadialGrid  ... OptM3 with GC (2021)
Angular Grid (max. ang.)         AngularGrid ... 4 (Lebedev-302)
Angular grid pruning method      GridPruning ... 4 (adaptive)
Weight generation scheme         WeightScheme... mBecke (2022)
Basis function cutoff            BFCut       ... 1.0000e-10
Integration weight cutoff        WCut        ... 1.0000e-14
Partially contracted basis set               ... off
Rotationally invariant grid construction     ... off
Angular grids for H and He will be reduced by one unit

Total number of grid points                  ...    47914
Total number of batches                      ...      754
Average number of points per batch           ...       63
Average number of grid points per atom       ...     5989
Initializing property integral containers    ... done (  0.0 sec)

SHARK setup successfully completed in   0.6 seconds

Maximum memory used throughout the entire STARTUP-calculation: 23.0 MB
-------------------------------------------------------------------------------
                                 ORCA GUESS
                   Start orbitals & Density for SCF / CASSCF
-------------------------------------------------------------------------------

------------
SCF SETTINGS
------------
Hamiltonian:
 Density Functional     Method          .... DFT(GTOs)
  Functional kind                       .... Exchange
  Functional name                       .... Re-regularized SCAN exchange by Furness et al
  Functional family                     .... MGGA
  Functional refs                              
    [ 0] J. W. Furness, A. D. Kaplan, J. Ning, J. P. Perdew, and J. Sun.,  J. Phys. Chem. Lett. 11, 8208-8215 (2020), doi: 10.1021/acs.jpclett.0c02405
    [ 1] J. W. Furness, A. D. Kaplan, J. Ning, J. P. Perdew, and J. Sun.,  J. Phys. Chem. Lett. 11, 9248-9248 (2020), doi: 10.1021/acs.jpclett.0c03077
  Functional external parameters        .... 6
    Parameter  0 _c1        =  6.670000e-01 : c1 parameter        
    Parameter  1 _c2        =  8.000000e-01 : c2 parameter        
    Parameter  2 _d         =  1.240000e+00 : d parameter         
    Parameter  3 _k1        =  6.500000e-02 : k1 parameter        
    Parameter  4 _eta       =  1.000000e-03 : eta parameter       
    Parameter  5 _dp2       =  3.610000e-01 : dp2 parameter       
  Functional kind                       .... Correlation
  Functional name                       .... Re-regularized SCAN correlation by Furness et al
  Functional family                     .... MGGA
  Functional refs                              
    [ 0] J. W. Furness, A. D. Kaplan, J. Ning, J. P. Perdew, and J. Sun.,  J. Phys. Chem. Lett. 11, 8208-8215 (2020), doi: 10.1021/acs.jpclett.0c02405
    [ 1] J. W. Furness, A. D. Kaplan, J. Ning, J. P. Perdew, and J. Sun.,  J. Phys. Chem. Lett. 11, 9248-9248 (2020), doi: 10.1021/acs.jpclett.0c03077
  Functional external parameters        .... 1
    Parameter  0 _eta       =  1.000000e-03 : Regularization parameter
 Gradients option       PostSCFGGA      .... off
 RI-approximation to the Coulomb term is turned on
   Number of AuxJ basis functions       .... 324


General Settings:
 Integral files         IntName         .... sp
 Hartree-Fock type      HFTyp           .... RHF
 Total Charge           Charge          ....    0
 Multiplicity           Mult            ....    1
 Number of Electrons    NEL             ....   82
 Basis Dimension        Dim             ....  156
 Nuclear Repulsion      ENuc            ....    531.5944228518 Eh

Convergence Acceleration:
 AO-DIIS                CNVDIIS         .... on
   Start iteration      DIISMaxIt       ....    12
   Startup error        DIISStart       ....  0.200000
   # of expansion vecs  DIISMaxEq       ....     5
   Bias factor          DIISBfac        ....   1.050
   Max. coefficient     DIISMaxC        ....  10.000
 MO-DIIS                CNVKDIIS        .... off
 Trust-Rad. Augm. Hess. CNVTRAH         .... auto
   Auto Start mean grad. ratio tolernc. ....  1.125000
   Auto Start start iteration           ....     1
   Auto Start num. interpolation iter.  ....    10
   Max. Number of Micro iterations      ....    24
   Max. Number of Macro iterations      .... Maxiter - #DIIS iter
   Number of Davidson start vectors     ....     2
   Converg. threshold    (grad. norm)   ....   3.330e-04
   Grad. Scal. Fac. for Micro threshold ....   0.100
   Minimum threshold for Micro iter.    ....   1.000e-02
   NR start threshold (gradient norm)   ....   1.000e-04
   Initial trust radius                 ....   0.400
   Minimum AH scaling param. (alpha)    ....   1.000
   Maximum AH scaling param. (alpha)    .... 1000.000
   Quad. conv. algorithm                .... NR
   White noise on init. David. guess    .... on
   Maximum white noise                  ....   0.010
   Pseudo random numbers                .... off
   Inactive MOs                         .... canonical
   Orbital update algorithm             .... Taylor
   Preconditioner                       .... Diag
   Full preconditioner red. dimension   ....   250
   COSX micro iterations for RIJONX calc.... off
 SOSCF                  CNVSOSCF        .... on
   Start iteration      SOSCFMaxIt      ....   150
   Startup grad/error   SOSCFStart      ....  0.003300
   Hessian update       SOSCFHessUp     .... L-BFGS
 Level Shifting         CNVShift        .... on
   Level shift para.    LevelShift      ....    0.2500
   Turn off err/grad.   ShiftErr        ....    0.0010
 Zerner damping         CNVZerner       .... off
 Static damping         CNVDamp         .... on
   Fraction old density DampFac         ....    0.7000
   Max. Damping (<1)    DampMax         ....    0.9800
   Min. Damping (>=0)   DampMin         ....    0.0000
   Turn off err/grad.   DampErr         ....    0.1000

SCF Procedure:
 Maximum # iterations   MaxIter         ....   125
 SCF integral mode      SCFMode         .... Direct
   Integral package                     .... SHARK and LIBINT hybrid scheme
 Reset frequency        DirectResetFreq ....    20
 Integral Threshold     Thresh          ....  1.000e-10 Eh
 Primitive CutOff       TCut            ....  1.000e-11 Eh

Convergence Tolerance:
 Convergence Check Mode ConvCheckMode   .... Total+1el-Energy
 Convergence forced     ConvForced      .... 0
 Energy Change          TolE            ....  1.000e-06 Eh
 1-El. energy change                    ....  1.000e-03 Eh
 Orbital Gradient       TolG            ....  3.330e-04
 Orbital Rotation angle TolX            ....  3.330e-04
 DIIS Error             TolErr          ....  1.000e-06

---------------------
INITIAL GUESS: MOREAD
---------------------
Guess MOs are being read from file: sp.ges
Input Geometry matches current geometry (good)
Atom 0: N(Shells)= 9 and 6 - projection required
Input basis set needs projection
NBasis(read)= 104
NBasis(calc)= 156
Basis set overlap was calculated
Using GuessMode=FMatrix for the initial guess
C*T matrix was formed
Effective Fockian was calculated
Effective Fockian was diagonalized
Initial density was built
                      ------------------
                      INITIAL GUESS DONE (   0.0 sec)
                      ------------------
             **** ENERGY FILE WAS UPDATED (sp.en.tmp) ****
Finished Guess after   0.1 sec
Maximum memory used throughout the entire GUESS-calculation: 11.2 MB

-------------------------------------------------------------------------------------------
                                      ORCA LEAN-SCF
                              memory conserving SCF solver
-------------------------------------------------------------------------------------------

----------------------------------------D-I-I-S--------------------------------------------
Iteration    Energy (Eh)           Delta-E    RMSDP     MaxDP     DIISErr   Damp  Time(sec)
-------------------------------------------------------------------------------------------
               ***  Starting incremental Fock matrix formation  ***
    1    -1917.9661913192953762     0.00e+00  2.86e-03  5.86e-02  5.38e-01  0.700   0.8
    2    -1918.0061684060515290    -4.00e-02  2.37e-03  4.14e-02  3.77e-01  0.700   0.7
    3    -1918.0344609007079271    -2.83e-02  1.75e-03  2.96e-02  2.64e-01  0.700   0.7
                               ***Turning on AO-DIIS***
    4    -1918.0543194789611334    -1.99e-02  1.28e-03  2.18e-02  1.85e-01  0.700   0.7
    5    -1918.0682438495582574    -1.39e-02  9.12e-04  1.56e-02  1.29e-01  0.700   0.7
    6    -1918.0780073147557232    -9.76e-03  6.44e-04  1.10e-02  9.06e-02  0.700   0.7
    7    -1918.0848504546374897    -6.84e-03  1.51e-03  2.59e-02  6.34e-02  0.000   0.7
                              *** Initializing SOSCF ***
---------------------------------------S-O-S-C-F--------------------------------------
Iteration    Energy (Eh)           Delta-E    RMSDP     MaxDP     MaxGrad    Time(sec)
--------------------------------------------------------------------------------------
    8    -1918.1008420226485214    -1.60e-02  8.27e-06  1.61e-04  1.21e-04     0.7
               *** Restarting incremental Fock matrix formation ***
    9    -1918.1008421457122495    -1.23e-07  4.19e-06  6.99e-05  3.00e-05     0.8
                  *** Gradient check signals convergence ***

               *****************************************************
               *                     SUCCESS                       *
               *           SCF CONVERGED AFTER   9 CYCLES          *
               *****************************************************

             **** ENERGY FILE WAS UPDATED (sp.en.tmp) ****

----------------
TOTAL SCF ENERGY
----------------

Total Energy       :      -1918.10084214571225 Eh          -52194.17742 eV

Components:
Nuclear Repulsion  :        531.59442285182888 Eh           14465.41965 eV
Electronic Energy  :      -2449.69526499754102 Eh          -66659.59707 eV
One Electron Energy:      -3704.54350803480020 Eh         -100805.75372 eV
Two Electron Energy:       1254.84824303725941 Eh           34146.15665 eV

Virial components:
Potential Energy   :      -3831.68887319126861 Eh         -104265.55500 eV
Kinetic Energy     :       1913.58803104555659 Eh           52071.37758 eV
Virial Ratio       :          2.00235829814304

DFT components:
N(Alpha)           :       41.000004213847 electrons
N(Beta)            :       41.000004213847 electrons
N(Total)           :       82.000008427693 electrons
E(X)               :     -121.309381947807 Eh       
E(C)               :       -3.112210315362 Eh       
E(XC)              :     -124.421592263169 Eh       

---------------
SCF CONVERGENCE
---------------

  Last Energy change         ...    1.2306e-07  Tolerance :   1.0000e-06
  Last MAX-Density change    ...    6.9946e-05  Tolerance :   1.0000e-05
  Last RMS-Density change    ...    4.1871e-06  Tolerance :   1.0000e-06
  Last DIIS Error            ...    1.2108e-04  Tolerance :   1.0000e-06
  Last Orbital Gradient      ...    2.9957e-05  Tolerance :   3.3300e-04
  Last Orbital Rotation      ...    6.9249e-05  Tolerance :   3.3300e-04


----------------
ORBITAL ENERGIES
----------------

  NO   OCC          E(Eh)            E(eV) 
   0   2.0000    -101.240460     -2754.8930 
   1   2.0000    -101.240452     -2754.8928 
   2   2.0000    -101.235323     -2754.7532 
   3   2.0000    -101.235320     -2754.7531 
   4   2.0000     -10.190585      -277.2999 
   5   2.0000     -10.190451      -277.2963 
   6   2.0000      -9.396427      -255.6898 
   7   2.0000      -9.396418      -255.6895 
   8   2.0000      -9.391298      -255.5502 
   9   2.0000      -9.391296      -255.5501 
  10   2.0000      -7.143211      -194.3766 
  11   2.0000      -7.143202      -194.3764 
  12   2.0000      -7.138234      -194.2412 
  13   2.0000      -7.138232      -194.2412 
  14   2.0000      -7.132351      -194.0811 
  15   2.0000      -7.132342      -194.0809 
  16   2.0000      -7.132003      -194.0717 
  17   2.0000      -7.131994      -194.0714 
  18   2.0000      -7.127084      -193.9378 
  19   2.0000      -7.127081      -193.9377 
  20   2.0000      -7.126837      -193.9311 
  21   2.0000      -7.126835      -193.9310 
  22   2.0000      -0.924530       -25.1577 
  23   2.0000      -0.860539       -23.4165 
  24   2.0000      -0.808396       -21.9976 
  25   2.0000      -0.800923       -21.7942 
  26   2.0000      -0.694877       -18.9086 
  27   2.0000      -0.593098       -16.1390 
  28   2.0000      -0.507613       -13.8129 
  29   2.0000      -0.481261       -13.0958 
  30   2.0000      -0.464923       -12.6512 
  31   2.0000      -0.423007       -11.5106 
  32   2.0000      -0.418692       -11.3932 
  33   2.0000      -0.332434        -9.0460 
  34   2.0000      -0.321851        -8.7580 
  35   2.0000      -0.313994        -8.5442 
  36   2.0000      -0.310653        -8.4533 
  37   2.0000      -0.297827        -8.1043 
  38   2.0000      -0.292311        -7.9542 
  39   2.0000      -0.289814        -7.8862 
  40   2.0000      -0.286786        -7.8039 
  41   0.0000      -0.056308        -1.5322 
  42   0.0000      -0.048661        -1.3241 
  43   0.0000      -0.005423        -0.1476 
  44   0.0000       0.005132         0.1396 
  45   0.0000       0.078764         2.1433 
  46   0.0000       0.088634         2.4118 
  47   0.0000       0.115263         3.1365 
  48   0.0000       0.147241         4.0066 
  49   0.0000       0.179232         4.8772 
  50   0.0000       0.203914         5.5488 
  51   0.0000       0.220807         6.0085 
*Only the first 10 virtual orbitals were printed.

                    ********************************
                    * MULLIKEN POPULATION ANALYSIS *
                    ********************************

-----------------------
MULLIKEN ATOMIC CHARGES
-----------------------
   0 C :   -0.008331
   1 C :   -0.008311
   2 Cl:   -0.095426
   3 Cl:   -0.105487
   4 Cl:   -0.095437
   5 Cl:   -0.105446
   6 H :    0.209215
   7 H :    0.209222
Sum of atomic charges:    0.0000000

--------------------------------
MULLIKEN REDUCED ORBITAL CHARGES
--------------------------------
  0 C s       :     3.192425  s :     3.192425
      pz      :     0.887621  p :     2.758086
      px      :     0.909183
      py      :     0.961282
      dz2     :     0.009641  d :     0.057820
      dxz     :     0.012798
      dyz     :     0.013911
      dx2y2   :     0.014100
      dxy     :     0.007372

  1 C s       :     3.192429  s :     3.192429
      pz      :     0.887656  p :     2.758064
      px      :     0.909211
      py      :     0.961197
      dz2     :     0.009639  d :     0.057818
      dxz     :     0.012795
      dyz     :     0.013911
      dx2y2   :     0.014100
      dxy     :     0.007373

  2 Cls       :     5.962594  s :     5.962594
      pz      :     3.736637  p :    11.084790
      px      :     3.914155
      py      :     3.433998
      dz2     :     0.006303  d :     0.048042
      dxz     :     0.006520
      dyz     :     0.015409
      dx2y2   :     0.011691
      dxy     :     0.008120

  3 Cls       :     5.961261  s :     5.961261
      pz      :     3.480203  p :    11.097147
      px      :     3.675794
      py      :     3.941150
      dz2     :     0.010517  d :     0.047078
      dxz     :     0.016451
      dyz     :     0.008815
      dx2y2   :     0.007170
      dxy     :     0.004126

  4 Cls       :     5.962595  s :     5.962595
      pz      :     3.736493  p :    11.084802
      px      :     3.914084
      py      :     3.434225
      dz2     :     0.006304  d :     0.048039
      dxz     :     0.006523
      dyz     :     0.015408
      dx2y2   :     0.011686
      dxy     :     0.008118

  5 Cls       :     5.961252  s :     5.961252
      pz      :     3.480195  p :    11.097110
      px      :     3.675782
      py      :     3.941132
      dz2     :     0.010518  d :     0.047084
      dxz     :     0.016452
      dyz     :     0.008816
      dx2y2   :     0.007171
      dxy     :     0.004127

  6 H s       :     0.772914  s :     0.772914
      pz      :     0.006132  p :     0.017871
      px      :     0.003052
      py      :     0.008687

  7 H s       :     0.772907  s :     0.772907
      pz      :     0.006133  p :     0.017871
      px      :     0.003053
      py      :     0.008685


------------------------
MULLIKEN OVERLAP CHARGES
------------------------
B(  0-C ,  1-C ) :   0.5896 B(  0-C ,  2-Cl) :  -0.0721 B(  0-C ,  3-Cl) :  -0.0561 
B(  0-C ,  4-Cl) :   0.5731 B(  0-C ,  5-Cl) :   0.5155 B(  0-C ,  6-H ) :   0.8349 
B(  0-C ,  7-H ) :  -0.0850 B(  1-C ,  2-Cl) :   0.5731 B(  1-C ,  3-Cl) :   0.5155 
B(  1-C ,  4-Cl) :  -0.0721 B(  1-C ,  5-Cl) :  -0.0561 B(  1-C ,  6-H ) :  -0.0850 
B(  1-C ,  7-H ) :   0.8349 B(  2-Cl,  3-Cl) :  -0.1548 B(  2-Cl,  7-H ) :  -0.0950 
B(  3-Cl,  7-H ) :  -0.0979 B(  4-Cl,  5-Cl) :  -0.1548 B(  4-Cl,  6-H ) :  -0.0950 
B(  5-Cl,  6-H ) :  -0.0979 


                     *******************************
                     * LOEWDIN POPULATION ANALYSIS *
                     *******************************

----------------------
LOEWDIN ATOMIC CHARGES
----------------------
   0 C :   -0.371232
   1 C :   -0.371207
   2 Cl:    0.098908
   3 Cl:    0.093468
   4 Cl:    0.098894
   5 Cl:    0.093516
   6 H :    0.178825
   7 H :    0.178826

-------------------------------
LOEWDIN REDUCED ORBITAL CHARGES
-------------------------------
  0 C s       :     3.019249  s :     3.019249
      pz      :     1.063681  p :     3.227506
      px      :     1.074512
      py      :     1.089313
      dz2     :     0.018957  d :     0.124476
      dxz     :     0.028137
      dyz     :     0.031507
      dx2y2   :     0.032886
      dxy     :     0.012989

  1 C s       :     3.019259  s :     3.019259
      pz      :     1.063679  p :     3.227477
      px      :     1.074516
      py      :     1.089282
      dz2     :     0.018954  d :     0.124470
      dxz     :     0.028132
      dyz     :     0.031505
      dx2y2   :     0.032886
      dxy     :     0.012992

  2 Cls       :     5.686109  s :     5.686109
      pz      :     3.736648  p :    11.103469
      px      :     3.884465
      py      :     3.482356
      dz2     :     0.013428  d :     0.111514
      dxz     :     0.012169
      dyz     :     0.040343
      dx2y2   :     0.028365
      dxy     :     0.017208

  3 Cls       :     5.688533  s :     5.688533
      pz      :     3.517523  p :    11.109113
      px      :     3.668999
      py      :     3.922591
      dz2     :     0.025188  d :     0.108886
      dxz     :     0.043026
      dyz     :     0.017877
      dx2y2   :     0.014582
      dxy     :     0.008212

  4 Cls       :     5.686122  s :     5.686122
      pz      :     3.736517  p :    11.103479
      px      :     3.884402
      py      :     3.482560
      dz2     :     0.013429  d :     0.111506
      dxz     :     0.012176
      dyz     :     0.040343
      dx2y2   :     0.028349
      dxy     :     0.017208

  5 Cls       :     5.688496  s :     5.688496
      pz      :     3.517522  p :    11.109086
      px      :     3.668988
      py      :     3.922576
      dz2     :     0.025192  d :     0.108901
      dxz     :     0.043030
      dyz     :     0.017882
      dx2y2   :     0.014584
      dxy     :     0.008215

  6 H s       :     0.774511  s :     0.774511
      pz      :     0.015906  p :     0.046664
      px      :     0.007665
      py      :     0.023093

  7 H s       :     0.774509  s :     0.774509
      pz      :     0.015910  p :     0.046665
      px      :     0.007668
      py      :     0.023087


---------------------------------
LOEWDIN BOND ORDERS (THRESH 0.050000)
---------------------------------
B(  0-C ,  1-C ) :   1.0678 B(  0-C ,  2-Cl) :   0.1185 B(  0-C ,  3-Cl) :   0.1319 
B(  0-C ,  4-Cl) :   1.3705 B(  0-C ,  5-Cl) :   1.3600 B(  0-C ,  6-H ) :   0.8510 
B(  1-C ,  2-Cl) :   1.3705 B(  1-C ,  3-Cl) :   1.3599 B(  1-C ,  4-Cl) :   0.1185 
B(  1-C ,  5-Cl) :   0.1319 B(  1-C ,  7-H ) :   0.8511 B(  2-Cl,  3-Cl) :   0.1658 
B(  4-Cl,  5-Cl) :   0.1658 

------------------------------------------
LOEWDIN REDUCED ORBITAL POPULATIONS PER MO
-------------------------------------------
THRESHOLD FOR PRINTING IS 0.1%%
                      0         1         2         3         4         5   
                 -101.24046 -101.24045 -101.23532 -101.23532 -10.19059 -10.19045
                   2.00000   2.00000   2.00000   2.00000   2.00000   2.00000
                  --------  --------  --------  --------  --------  --------
 0 C  s               0.0       0.0       0.0       0.0      49.2      50.5
 1 C  s               0.0       0.0       0.0       0.0      50.5      49.2
 2 Cl s               0.0       0.0      83.2      16.8       0.0       0.0
 3 Cl s               2.7      97.3       0.0       0.0       0.0       0.0
 4 Cl s               0.0       0.0      16.8      83.2       0.0       0.0
 5 Cl s              97.3       2.7       0.0       0.0       0.0       0.0

                      6         7         8         9        10        11   
                  -9.39643  -9.39642  -9.39130  -9.39130  -7.14321  -7.14320
                   2.00000   2.00000   2.00000   2.00000   2.00000   2.00000
                  --------  --------  --------  --------  --------  --------
 2 Cl s               0.0       0.0      95.3       4.5       0.0       0.0
 3 Cl s               3.3      96.5       0.0       0.0       0.0       0.0
 3 Cl pz              0.0       0.0       0.0       0.0       0.0      62.4
 3 Cl px              0.0       0.0       0.0       0.0       0.0      37.1
 3 Cl py              0.0       0.0       0.0       0.0       0.0       0.4
 4 Cl s               0.0       0.0       4.5      95.3       0.0       0.0
 5 Cl s              96.5       3.3       0.0       0.0       0.0       0.0
 5 Cl pz              0.0       0.0       0.0       0.0      62.4       0.0
 5 Cl px              0.0       0.0       0.0       0.0      37.1       0.0
 5 Cl py              0.0       0.0       0.0       0.0       0.4       0.0

                     12        13        14        15        16        17   
                  -7.13823  -7.13823  -7.13235  -7.13234  -7.13200  -7.13199
                   2.00000   2.00000   2.00000   2.00000   2.00000   2.00000
                  --------  --------  --------  --------  --------  --------
 2 Cl pz             28.0       0.1       0.0       0.0       0.0       0.0
 2 Cl px              4.0       0.0       0.0       0.0       0.0       0.0
 2 Cl py             67.7       0.1       0.0       0.0       0.0       0.0
 3 Cl pz              0.0       0.0       0.0      15.1       0.0      22.4
 3 Cl px              0.0       0.0       0.0      33.9       0.0      29.0
 3 Cl py              0.0       0.0       0.0      50.9       0.0      48.6
 4 Cl pz              0.1      28.1       0.0       0.0       0.0       0.0
 4 Cl px              0.0       4.0       0.0       0.0       0.0       0.0
 4 Cl py              0.1      67.7       0.0       0.0       0.0       0.0
 5 Cl pz              0.0       0.0      15.1       0.0      22.4       0.0
 5 Cl px              0.0       0.0      34.0       0.0      28.9       0.0
 5 Cl py              0.0       0.0      50.9       0.0      48.7       0.0

                     18        19        20        21        22        23   
                  -7.12708  -7.12708  -7.12684  -7.12684  -0.92453  -0.86054
                   2.00000   2.00000   2.00000   2.00000   2.00000   2.00000
                  --------  --------  --------  --------  --------  --------
 0 C  s               0.0       0.0       0.0       0.0      22.0       7.6
 0 C  pz              0.0       0.0       0.0       0.0       0.6       0.1
 0 C  px              0.0       0.0       0.0       0.0       0.6       8.5
 0 C  py              0.0       0.0       0.0       0.0       1.0       0.8
 0 C  dxz             0.0       0.0       0.0       0.0       0.0       0.1
 1 C  s               0.0       0.0       0.0       0.0      22.0       7.6
 1 C  pz              0.0       0.0       0.0       0.0       0.6       0.1
 1 C  px              0.0       0.0       0.0       0.0       0.6       8.5
 1 C  py              0.0       0.0       0.0       0.0       1.0       0.8
 1 C  dxz             0.0       0.0       0.0       0.0       0.0       0.1
 2 Cl s               0.0       0.0       0.0       0.0       9.0      11.7
 2 Cl pz             28.4       0.0      43.5       0.0       0.7       0.3
 2 Cl px             69.7       0.0      26.3       0.0       0.1       0.0
 2 Cl py              2.0       0.0      30.1       0.0       1.3       0.6
 2 Cl dyz             0.0       0.0       0.0       0.0       0.3       0.2
 2 Cl dx2y2           0.0       0.0       0.0       0.0       0.1       0.1
 3 Cl s               0.0       0.0       0.0       0.0       9.2      17.5
 3 Cl pz              0.0       0.0       0.0       0.0       1.2       0.8
 3 Cl px              0.0       0.0       0.0       0.0       0.9       0.2
 3 Cl dxz             0.0       0.0       0.0       0.0       0.3       0.2
 4 Cl s               0.0       0.0       0.0       0.0       9.0      11.7
 4 Cl pz              0.0      28.4       0.0      43.5       0.7       0.3
 4 Cl px              0.0      69.7       0.0      26.3       0.1       0.0
 4 Cl py              0.0       1.9       0.0      30.2       1.3       0.6
 4 Cl dyz             0.0       0.0       0.0       0.0       0.3       0.2
 4 Cl dx2y2           0.0       0.0       0.0       0.0       0.1       0.1
 5 Cl s               0.0       0.0       0.0       0.0       9.2      17.5
 5 Cl pz              0.0       0.0       0.0       0.0       1.2       0.8
 5 Cl px              0.0       0.0       0.0       0.0       0.9       0.2
 5 Cl dxz             0.0       0.0       0.0       0.0       0.3       0.2
 6 H  s               0.0       0.0       0.0       0.0       2.2       0.9
 6 H  py              0.0       0.0       0.0       0.0       0.1       0.1
 7 H  s               0.0       0.0       0.0       0.0       2.2       0.9
 7 H  py              0.0       0.0       0.0       0.0       0.1       0.1

                     24        25        26        27        28        29   
                  -0.80840  -0.80092  -0.69488  -0.59310  -0.50761  -0.48126
                   2.00000   2.00000   2.00000   2.00000   2.00000   2.00000
                  --------  --------  --------  --------  --------  --------
 0 C  s               0.2       0.0       9.2       9.5       0.3       0.2
 0 C  pz              9.7       4.9       0.0       3.4       4.0      14.2
 0 C  px              0.4       0.4       8.2       2.1       6.7       1.9
 0 C  py              2.3       4.7       3.1       2.4      17.4       1.1
 0 C  dxz             0.1       0.2       0.2       0.0       0.0       0.0
 0 C  dx2y2           0.1       0.1       0.1       0.1       0.1       0.0
 1 C  s               0.2       0.0       9.2       9.5       0.3       0.2
 1 C  pz              9.7       4.9       0.0       3.4       4.0      14.2
 1 C  px              0.4       0.4       8.2       2.1       6.7       1.9
 1 C  py              2.3       4.7       3.1       2.4      17.4       1.1
 1 C  dxz             0.1       0.2       0.2       0.0       0.0       0.0
 1 C  dx2y2           0.1       0.1       0.1       0.1       0.1       0.0
 2 Cl s              21.5      19.7       8.4       7.3       1.7       0.2
 2 Cl pz              0.1       0.0       0.2       1.0       3.8       0.7
 2 Cl px              0.0       0.0       0.2       0.1       2.9       1.1
 2 Cl py              0.2       0.2       1.1       5.2       0.3       1.1
 2 Cl dz2             0.0       0.0       0.0       0.0       0.1       0.2
 2 Cl dxz             0.0       0.0       0.1       0.0       0.2       0.0
 2 Cl dyz             0.0       0.0       0.1       0.3       0.2       0.0
 2 Cl dx2y2           0.0       0.0       0.1       0.4       0.1       0.0
 2 Cl dxy             0.0       0.0       0.1       0.0       0.2       0.1
 3 Cl s              14.9      19.3      12.6       3.8       0.0       4.9
 3 Cl pz              0.1       0.1       1.0       3.9       0.7       8.2
 3 Cl px              0.1       0.1       1.3       0.7       0.2      11.9
 3 Cl py              0.0       0.1       0.0       0.0       1.9       0.7
 3 Cl dz2             0.0       0.0       0.0       0.3       0.1       0.0
 3 Cl dxz             0.0       0.0       0.4       0.3       0.0       0.4
 3 Cl dyz             0.0       0.0       0.0       0.0       0.2       0.1
 3 Cl dx2y2           0.0       0.0       0.1       0.0       0.0       0.2
 3 Cl dxy             0.0       0.0       0.0       0.0       0.2       0.0
 4 Cl s              21.5      19.7       8.4       7.3       1.7       0.2
 4 Cl pz              0.1       0.0       0.2       1.0       3.8       0.7
 4 Cl px              0.0       0.0       0.2       0.1       2.9       1.1
 4 Cl py              0.2       0.2       1.1       5.2       0.3       1.1
 4 Cl dz2             0.0       0.0       0.0       0.0       0.1       0.2
 4 Cl dxz             0.0       0.0       0.1       0.0       0.2       0.0
 4 Cl dyz             0.0       0.0       0.1       0.3       0.2       0.0
 4 Cl dx2y2           0.0       0.0       0.1       0.4       0.1       0.0
 4 Cl dxy             0.0       0.0       0.1       0.0       0.2       0.1
 5 Cl s              14.9      19.3      12.6       3.8       0.0       4.9
 5 Cl pz              0.1       0.1       1.0       3.9       0.7       8.3
 5 Cl px              0.1       0.1       1.3       0.7       0.2      11.9
 5 Cl py              0.0       0.1       0.0       0.0       1.9       0.7
 5 Cl dz2             0.0       0.0       0.0       0.3       0.1       0.0
 5 Cl dxz             0.0       0.0       0.4       0.3       0.0       0.4
 5 Cl dyz             0.0       0.0       0.0       0.0       0.2       0.1
 5 Cl dx2y2           0.0       0.0       0.1       0.0       0.0       0.2
 5 Cl dxy             0.0       0.0       0.0       0.0       0.2       0.0
 6 H  s               0.0       0.0       2.9       8.5       8.4       2.3
 6 H  pz              0.0       0.0       0.1       0.2       0.2       0.0
 6 H  py              0.0       0.0       0.2       0.4       0.2       0.1
 7 H  s               0.0       0.0       2.9       8.5       8.4       2.3
 7 H  pz              0.0       0.0       0.1       0.2       0.2       0.0
 7 H  py              0.0       0.0       0.2       0.4       0.2       0.1

                     30        31        32        33        34        35   
                  -0.46492  -0.42301  -0.41869  -0.33243  -0.32185  -0.31399
                   2.00000   2.00000   2.00000   2.00000   2.00000   2.00000
                  --------  --------  --------  --------  --------  --------
 0 C  s               0.2       0.1       0.1       0.2       0.2       0.3
 0 C  pz              1.3       0.6      11.2       0.3       0.3       0.5
 0 C  px             16.6       0.1       1.1       0.5       0.8       0.1
 0 C  py              3.6      14.0       0.4       0.8       0.3       0.4
 0 C  dz2             0.0       0.0       0.0       0.1       0.3       0.1
 0 C  dxz             0.0       0.0       0.3       0.0       0.1       0.1
 0 C  dyz             0.0       0.2       0.0       0.4       0.1       0.1
 0 C  dx2y2           0.1       0.0       0.1       0.1       0.0       0.1
 0 C  dxy             0.0       0.3       0.0       0.0       0.0       0.0
 1 C  s               0.2       0.1       0.1       0.2       0.2       0.3
 1 C  pz              1.3       0.6      11.2       0.3       0.3       0.5
 1 C  px             16.6       0.1       1.1       0.5       0.8       0.1
 1 C  py              3.6      14.0       0.4       0.8       0.3       0.4
 1 C  dz2             0.0       0.0       0.0       0.1       0.3       0.1
 1 C  dxz             0.0       0.0       0.3       0.0       0.1       0.1
 1 C  dyz             0.0       0.2       0.0       0.4       0.1       0.1
 1 C  dx2y2           0.1       0.0       0.1       0.1       0.0       0.1
 1 C  dxy             0.0       0.3       0.0       0.0       0.0       0.0
 2 Cl s               2.6       1.7       0.5       0.0       0.0       0.0
 2 Cl pz              4.9      10.8       0.1       0.6      17.0       0.0
 2 Cl px              0.6       0.3       1.3      18.3       0.0       3.8
 2 Cl py             10.1      10.6       9.5       2.5       9.6       0.0
 2 Cl dz2             0.0       0.0       0.1       0.0       0.0       0.0
 2 Cl dyz             0.4       0.3       0.0       0.0       0.0       0.0
 2 Cl dx2y2           0.2       0.1       0.1       0.0       0.0       0.1
 3 Cl s               0.6       0.1       1.5       0.0       0.0       0.0
 3 Cl pz              6.8       0.7      14.7       1.4       1.2      21.7
 3 Cl px              0.2       0.5       6.9       8.2      19.2      17.1
 3 Cl py              1.0       5.1       0.1      15.5       0.1       3.7
 3 Cl dz2             0.5       0.0       0.0       0.0       0.0       0.0
 3 Cl dxz             0.0       0.0       0.3       0.0       0.0       0.0
 3 Cl dyz             0.1       0.3       0.0       0.0       0.0       0.0
 4 Cl s               2.6       1.7       0.5       0.0       0.0       0.0
 4 Cl pz              4.9      10.8       0.1       0.6      17.0       0.0
 4 Cl px              0.6       0.3       1.3      18.3       0.0       3.8
 4 Cl py             10.1      10.6       9.5       2.5       9.6       0.0
 4 Cl dz2             0.0       0.0       0.1       0.0       0.0       0.0
 4 Cl dyz             0.4       0.3       0.0       0.0       0.0       0.0
 4 Cl dx2y2           0.2       0.1       0.1       0.0       0.0       0.1
 5 Cl s               0.6       0.1       1.5       0.0       0.0       0.0
 5 Cl pz              6.8       0.7      14.7       1.4       1.2      21.7
 5 Cl px              0.2       0.5       6.9       8.2      19.2      17.1
 5 Cl py              1.0       5.1       0.1      15.5       0.1       3.7
 5 Cl dz2             0.5       0.0       0.0       0.0       0.0       0.0
 5 Cl dxz             0.0       0.0       0.3       0.0       0.0       0.0
 5 Cl dyz             0.1       0.3       0.0       0.0       0.0       0.0
 6 H  s               0.0       4.1       1.4       0.9       0.7       1.7
 6 H  pz              0.0       0.1       0.0       0.0       0.0       0.0
 6 H  px              0.2       0.0       0.0       0.0       0.0       0.0
 7 H  s               0.0       4.1       1.4       0.9       0.7       1.7
 7 H  pz              0.0       0.1       0.0       0.0       0.0       0.0
 7 H  px              0.2       0.0       0.0       0.0       0.0       0.0

                     36        37        38        39        40        41   
                  -0.31065  -0.29783  -0.29231  -0.28981  -0.28679  -0.05631
                   2.00000   2.00000   2.00000   2.00000   2.00000   0.00000
                  --------  --------  --------  --------  --------  --------
 0 C  s               0.3       0.4       0.4       0.0       0.1       6.0
 0 C  pz              0.1       1.0       0.0       0.6       0.2       0.3
 0 C  px              1.8       2.8       0.4       0.1       0.7       4.1
 0 C  py              0.2       1.3       0.3       0.1       0.1       6.5
 0 C  dz2             0.0       0.0       0.0       0.1       0.0       0.0
 0 C  dxz             0.1       0.1       0.1       0.0       0.0       0.0
 0 C  dyz             0.1       0.2       0.2       0.0       0.0       0.5
 0 C  dx2y2           0.1       0.2       0.1       0.1       0.2       0.2
 0 C  dxy             0.2       0.0       0.0       0.0       0.1       0.4
 1 C  s               0.3       0.4       0.4       0.0       0.1       6.0
 1 C  pz              0.1       1.0       0.0       0.6       0.2       0.3
 1 C  px              1.8       2.8       0.4       0.1       0.7       4.1
 1 C  py              0.2       1.3       0.3       0.1       0.1       6.5
 1 C  dz2             0.0       0.0       0.0       0.1       0.0       0.0
 1 C  dxz             0.1       0.1       0.1       0.0       0.0       0.0
 1 C  dyz             0.1       0.2       0.2       0.0       0.0       0.5
 1 C  dx2y2           0.1       0.2       0.1       0.1       0.2       0.2
 1 C  dxy             0.2       0.0       0.0       0.0       0.1       0.4
 2 Cl s               0.0       0.1       0.0       0.0       0.0       1.7
 2 Cl pz              1.1       0.3       4.8      25.2      15.4       4.5
 2 Cl px             18.1      16.6      19.9       3.3       7.4       0.2
 2 Cl py              0.1       2.9      13.8       4.4       0.6       9.5
 2 Cl dxz             0.0       0.1       0.0       0.0       0.0       0.3
 2 Cl dyz             0.0       0.0       0.0       0.0       0.0       4.3
 2 Cl dx2y2           0.0       0.0       0.0       0.0       0.0       2.2
 2 Cl dxy             0.0       0.1       0.0       0.0       0.0       0.1
 3 Cl s               0.0       0.0       0.0       0.1       0.0       0.2
 3 Cl pz              0.4       0.5       0.0       0.8      11.6       3.5
 3 Cl px              1.5       1.9       0.0       0.1      12.4       0.3
 3 Cl py             25.6      18.7       8.3      14.8       0.5       0.6
 3 Cl dz2             0.0       0.0       0.0       0.0       0.0       1.9
 3 Cl dxz             0.0       0.0       0.0       0.0       0.0       1.1
 3 Cl dyz             0.0       0.1       0.0       0.0       0.1       0.3
 3 Cl dxy             0.0       0.0       0.0       0.0       0.0       0.6
 4 Cl s               0.0       0.1       0.0       0.0       0.0       1.7
 4 Cl pz              1.1       0.3       4.8      25.2      15.4       4.5
 4 Cl px             18.1      16.6      19.9       3.3       7.4       0.2
 4 Cl py              0.1       2.9      13.8       4.4       0.6       9.5
 4 Cl dxz             0.0       0.1       0.0       0.0       0.0       0.3
 4 Cl dyz             0.0       0.0       0.0       0.0       0.0       4.3
 4 Cl dx2y2           0.0       0.0       0.0       0.0       0.0       2.2
 4 Cl dxy             0.0       0.1       0.0       0.0       0.0       0.1
 5 Cl s               0.0       0.0       0.0       0.1       0.0       0.2
 5 Cl pz              0.4       0.5       0.0       0.8      11.6       3.5
 5 Cl px              1.5       1.9       0.0       0.1      12.4       0.3
 5 Cl py             25.6      18.7       8.3      14.8       0.5       0.6
 5 Cl dz2             0.0       0.0       0.0       0.0       0.0       1.9
 5 Cl dxz             0.0       0.0       0.0       0.0       0.0       1.1
 5 Cl dyz             0.0       0.1       0.0       0.0       0.1       0.3
 5 Cl dxy             0.0       0.0       0.0       0.0       0.0       0.6
 6 H  s               0.0       2.7       1.2       0.2       0.4       0.2
 6 H  px              0.0       0.0       0.0       0.0       0.0       0.3
 6 H  py              0.0       0.0       0.0       0.0       0.0       0.3
 7 H  s               0.0       2.7       1.2       0.1       0.4       0.2
 7 H  px              0.0       0.0       0.0       0.0       0.0       0.3
 7 H  py              0.0       0.0       0.0       0.0       0.0       0.3

                     42        43        44        45        46        47   
                  -0.04866  -0.00542   0.00513   0.07876   0.08863   0.11526
                   0.00000   0.00000   0.00000   0.00000   0.00000   0.00000
                  --------  --------  --------  --------  --------  --------
 0 C  s               3.6       5.1       2.2      11.4       3.4       4.6
 0 C  pz              8.2       4.5      10.2       6.1       2.4       6.0
 0 C  px              4.3       0.5       3.4       1.2      18.9       1.8
 0 C  py              0.1       8.6       4.1       7.7       0.3      10.2
 0 C  dz2             0.0       0.0       0.5       0.3       0.5       0.0
 0 C  dxz             1.0       0.5       0.0       0.0       0.9       0.2
 0 C  dyz             0.0       0.1       0.5       0.7       0.0       1.1
 0 C  dx2y2           0.3       0.2       0.0       0.3       2.1       0.1
 0 C  dxy             0.0       0.1       0.3       0.3       0.0       0.1
 1 C  s               3.6       5.1       2.2      11.3       3.4       4.6
 1 C  pz              8.2       4.5      10.2       6.1       2.4       6.1
 1 C  px              4.3       0.5       3.4       1.2      18.9       1.8
 1 C  py              0.1       8.6       4.1       7.7       0.3      10.2
 1 C  dz2             0.0       0.0       0.5       0.3       0.5       0.0
 1 C  dxz             1.0       0.5       0.0       0.0       0.9       0.2
 1 C  dyz             0.0       0.1       0.5       0.7       0.0       1.1
 1 C  dx2y2           0.3       0.2       0.0       0.3       2.1       0.1
 1 C  dxy             0.0       0.1       0.3       0.3       0.0       0.1
 2 Cl s               0.0       2.3       1.2       0.8       0.1       0.5
 2 Cl pz              0.7       4.2       0.1       0.2       0.0       0.6
 2 Cl px              0.2       1.0       0.8       0.1       0.8       0.7
 2 Cl py              0.0       8.8       2.5       0.1       0.5       0.2
 2 Cl dz2             0.4       0.0       0.5       1.5       2.0       1.9
 2 Cl dxz             0.0       0.3       0.2       0.4       0.3       0.0
 2 Cl dyz             0.6       5.0       0.0       0.0       0.4       0.0
 2 Cl dx2y2           0.1       2.7       0.3       2.3       0.1       0.4
 2 Cl dxy             0.4       1.2       1.4       0.3       5.1       0.2
 3 Cl s               2.9       0.1       1.2       2.0       0.6       0.0
 3 Cl pz              9.6       0.0       6.0       0.7       0.3       0.4
 3 Cl px              9.1       0.1       2.6       0.5       0.3       0.2
 3 Cl py              0.1       0.6       0.0       0.2       0.4       0.3
 3 Cl dz2             0.7       0.3       2.3       0.0       3.5       0.4
 3 Cl dxz             5.3       0.0       6.0       0.0       4.6       0.1
 3 Cl dyz             0.1       1.0       0.1       0.0       0.0       0.6
 3 Cl dx2y2           1.7       0.1       0.1       0.3       0.1       0.4
 3 Cl dxy             0.1       0.6       0.1       0.2       0.2       3.2
 4 Cl s               0.0       2.3       1.2       0.8       0.1       0.5
 4 Cl pz              0.7       4.2       0.1       0.2       0.0       0.6
 4 Cl px              0.2       1.0       0.8       0.1       0.8       0.7
 4 Cl py              0.0       8.8       2.5       0.1       0.5       0.2
 4 Cl dz2             0.4       0.0       0.5       1.6       2.0       1.9
 4 Cl dxz             0.0       0.3       0.2       0.4       0.3       0.0
 4 Cl dyz             0.6       5.0       0.0       0.0       0.4       0.0
 4 Cl dx2y2           0.1       2.7       0.3       2.3       0.1       0.4
 4 Cl dxy             0.4       1.2       1.4       0.3       5.1       0.2
 5 Cl s               2.9       0.1       1.2       2.0       0.6       0.0
 5 Cl pz              9.6       0.0       6.0       0.7       0.3       0.4
 5 Cl px              9.1       0.1       2.6       0.5       0.3       0.2
 5 Cl py              0.1       0.6       0.0       0.2       0.4       0.3
 5 Cl dz2             0.7       0.3       2.3       0.0       3.5       0.4
 5 Cl dxz             5.3       0.0       6.0       0.0       4.6       0.1
 5 Cl dyz             0.1       1.0       0.1       0.0       0.0       0.6
 5 Cl dx2y2           1.7       0.1       0.1       0.3       0.1       0.4
 5 Cl dxy             0.1       0.6       0.1       0.2       0.2       3.2
 6 H  s               0.0       1.4       1.8       8.6       0.6      10.8
 6 H  pz              0.1       0.0       1.3       0.4       0.0       2.4
 6 H  px              0.2       0.1       0.0       0.3       1.5       0.2
 6 H  py              0.0       0.6       0.0       2.8       0.2       2.2
 7 H  s               0.0       1.4       1.8       8.6       0.6      10.8
 7 H  pz              0.1       0.0       1.3       0.4       0.0       2.4
 7 H  px              0.2       0.1       0.0       0.3       1.5       0.2
 7 H  py              0.0       0.6       0.0       2.8       0.2       2.2

                     48        49        50        51        52        53   
                   0.14724   0.17923   0.20391   0.22081   0.23336   0.23571
                   0.00000   0.00000   0.00000   0.00000   0.00000   0.00000
                  --------  --------  --------  --------  --------  --------
 0 C  s               5.4       1.5       6.3       5.3       1.7       2.0
 0 C  pz              4.9      15.3      13.2       0.1       5.9       6.4
 0 C  px              6.4       7.7       1.2       1.1       0.7       6.3
 0 C  py             14.2       2.5       1.2      11.2       8.5       1.3
 0 C  dz2             0.0       0.0       0.1       0.0       0.2       0.2
 0 C  dxz             0.1       0.0       0.0       0.0       0.0       0.5
 0 C  dyz             0.0       0.0       0.6       0.1       0.8       0.8
 0 C  dx2y2           0.8       0.7       0.0       0.1       0.3       0.0
 0 C  dxy             0.0       0.0       0.2       0.0       0.6       0.1
 1 C  s               5.4       1.5       6.3       5.3       1.7       2.0
 1 C  pz              4.9      15.3      13.2       0.1       5.9       6.4
 1 C  px              6.4       7.7       1.2       1.1       0.7       6.3
 1 C  py             14.2       2.5       1.2      11.2       8.5       1.3
 1 C  dz2             0.0       0.0       0.1       0.0       0.2       0.2
 1 C  dxz             0.1       0.0       0.0       0.0       0.0       0.5
 1 C  dyz             0.0       0.0       0.6       0.1       0.8       0.8
 1 C  dx2y2           0.8       0.7       0.0       0.1       0.3       0.0
 1 C  dxy             0.0       0.0       0.2       0.0       0.6       0.1
 2 Cl s               3.3       0.3       0.9       2.5       0.1       2.0
 2 Cl pz              0.4       1.4       0.2       0.6       0.4       2.7
 2 Cl px              0.1       0.9       0.1       1.5       0.4       2.6
 2 Cl py              0.3       0.2       3.5       0.3       0.4       0.9
 2 Cl dz2             0.6       1.1       0.2       3.8       2.3       5.8
 2 Cl dxz             0.1       0.9       1.5       5.7       2.5       0.8
 2 Cl dyz             4.3       1.0       3.2       2.9       0.5       0.5
 2 Cl dx2y2           0.2       0.3       0.2       0.3       8.8       0.9
 2 Cl dxy             1.8       0.3       0.0       0.0       0.0       2.2
 3 Cl s               1.0       4.5       2.5       1.3       0.3       0.1
 3 Cl pz              0.4       1.4       0.2       0.4       1.5       0.2
 3 Cl px              0.3       1.1       1.4       2.3       0.2       3.5
 3 Cl py              1.2       0.9       0.1       0.1       0.4       0.2
 3 Cl dz2             0.7       4.1       0.0       0.2       0.1       0.6
 3 Cl dxz             0.8       1.4       1.9       0.2       0.1       1.0
 3 Cl dyz             0.0       1.6       0.7       4.4       0.2       2.9
 3 Cl dx2y2           0.5       0.2       4.0       3.7       4.3       0.1
 3 Cl dxy             0.5       0.1       0.8       0.2       4.6       2.3
 4 Cl s               3.3       0.3       0.9       2.5       0.1       2.0
 4 Cl pz              0.4       1.4       0.2       0.6       0.4       2.7
 4 Cl px              0.1       0.9       0.1       1.5       0.4       2.6
 4 Cl py              0.3       0.2       3.5       0.3       0.4       0.9
 4 Cl dz2             0.6       1.1       0.2       3.8       2.3       5.8
 4 Cl dxz             0.1       0.9       1.5       5.7       2.5       0.8
 4 Cl dyz             4.3       1.0       3.2       2.9       0.5       0.5
 4 Cl dx2y2           0.2       0.3       0.2       0.3       8.8       0.9
 4 Cl dxy             1.8       0.3       0.0       0.0       0.0       2.1
 5 Cl s               1.0       4.5       2.5       1.3       0.3       0.1
 5 Cl pz              0.4       1.4       0.2       0.4       1.5       0.2
 5 Cl px              0.3       1.1       1.4       2.3       0.2       3.5
 5 Cl py              1.2       0.9       0.1       0.1       0.4       0.2
 5 Cl dz2             0.7       4.2       0.0       0.2       0.1       0.6
 5 Cl dxz             0.8       1.4       1.9       0.2       0.1       1.0
 5 Cl dyz             0.0       1.6       0.7       4.4       0.2       2.9
 5 Cl dx2y2           0.5       0.2       4.0       3.7       4.3       0.1
 5 Cl dxy             0.5       0.1       0.8       0.2       4.6       2.3
 6 H  s               0.7       0.0       3.9       0.8       3.8       3.0
 6 H  pz              0.0       0.4       1.5       0.0       0.1       0.0
 6 H  px              0.2       0.1       0.1       0.0       0.3       0.0
 6 H  py              1.0       0.1       0.1       0.6       0.0       0.1
 7 H  s               0.7       0.0       3.9       0.8       3.8       2.9
 7 H  pz              0.0       0.3       1.5       0.0       0.1       0.0
 7 H  px              0.2       0.1       0.1       0.0       0.3       0.0
 7 H  py              1.0       0.1       0.1       0.6       0.0       0.1

                     54        55        56        57        58        59   
                   0.23861   0.26413   0.30177   0.30386   0.31560   0.32230
                   0.00000   0.00000   0.00000   0.00000   0.00000   0.00000
                  --------  --------  --------  --------  --------  --------
 0 C  s               2.3       4.8       0.7       0.1       0.1       0.0
 0 C  pz              0.4       0.1       0.2       0.7       0.3       0.2
 0 C  px             14.5       6.4       0.3       0.0       0.5       0.2
 0 C  py              2.9       4.6       0.2       0.1       0.2       1.4
 0 C  dz2             0.2       0.2       0.1       0.1       0.3       0.3
 0 C  dxz             0.4       0.0       0.7       0.1       0.0       0.4
 0 C  dyz             0.0       0.3       0.3       0.2       0.2       0.0
 0 C  dx2y2           0.6       0.9       0.2       0.1       0.0       0.0
 0 C  dxy             0.1       0.0       0.0       0.0       1.2       0.0
 1 C  s               2.3       4.8       0.7       0.1       0.1       0.0
 1 C  pz              0.4       0.1       0.2       0.7       0.3       0.2
 1 C  px             14.5       6.4       0.3       0.0       0.5       0.2
 1 C  py              2.9       4.6       0.2       0.1       0.2       1.4
 1 C  dz2             0.2       0.2       0.1       0.1       0.3       0.3
 1 C  dxz             0.4       0.0       0.7       0.1       0.0       0.4
 1 C  dyz             0.0       0.3       0.3       0.2       0.2       0.0
 1 C  dx2y2           0.6       0.9       0.2       0.1       0.0       0.0
 1 C  dxy             0.1       0.0       0.0       0.0       1.2       0.0
 2 Cl s               2.0       0.2       0.7       0.8       0.3       0.1
 2 Cl pz              0.9       2.2      10.3       0.1       0.2       0.0
 2 Cl px              1.4       0.7       0.8       0.3       0.0       6.5
 2 Cl py              4.2       0.1       4.0      20.5       0.2       0.5
 2 Cl dz2             0.9       0.1       1.4       0.0       4.9       0.1
 2 Cl dxz             0.2       0.2       0.1       3.9       9.7       2.9
 2 Cl dyz             0.4       0.4       0.9       0.2       0.9       4.6
 2 Cl dx2y2           0.5       2.3       0.6       1.5       0.0      10.0
 2 Cl dxy             2.9       1.8       0.2       1.9       2.4       0.2
 3 Cl s               0.6       0.1       0.3       2.1       0.1       0.0
 3 Cl pz              2.5       1.6      12.9       5.6       0.5       0.2
 3 Cl px              0.8       0.4       5.7       2.2       8.1       1.5
 3 Cl py              0.6       0.3       0.4       1.8       0.6      10.5
 3 Cl dz2             4.3       1.9       3.0       0.0       0.5       0.5
 3 Cl dxz             2.1       3.1       0.1       1.1       0.9       0.3
 3 Cl dyz             2.1       4.3       2.1       3.2      14.4       4.5
 3 Cl dx2y2           1.1      11.6       0.4       0.9       2.9       2.6
 3 Cl dxy             0.0       0.2       2.6       1.9       0.3       1.7
 4 Cl s               2.0       0.2       0.7       0.8       0.3       0.1
 4 Cl pz              0.9       2.2      10.4       0.1       0.2       0.0
 4 Cl px              1.4       0.7       0.8       0.3       0.0       6.5
 4 Cl py              4.2       0.1       4.1      20.4       0.2       0.5
 4 Cl dz2             0.9       0.1       1.4       0.0       4.9       0.1
 4 Cl dxz             0.2       0.2       0.1       3.9       9.7       2.9
 4 Cl dyz             0.4       0.4       0.9       0.2       0.9       4.6
 4 Cl dx2y2           0.5       2.3       0.6       1.5       0.0      10.0
 4 Cl dxy             2.9       1.8       0.2       1.9       2.4       0.2
 5 Cl s               0.6       0.1       0.3       2.1       0.1       0.0
 5 Cl pz              2.5       1.6      12.9       5.6       0.5       0.2
 5 Cl px              0.8       0.4       5.7       2.2       8.1       1.5
 5 Cl py              0.6       0.3       0.4       1.8       0.6      10.5
 5 Cl dz2             4.3       1.9       3.0       0.0       0.5       0.5
 5 Cl dxz             2.1       3.1       0.1       1.1       0.9       0.3
 5 Cl dyz             2.1       4.3       2.1       3.2      14.4       4.5
 5 Cl dx2y2           1.1      11.6       0.4       0.9       2.9       2.6
 5 Cl dxy             0.0       0.2       2.6       1.9       0.4       1.7
 6 H  s               0.1       1.3       0.2       0.3       0.0       0.3
 6 H  pz              0.0       0.0       0.3       0.0       0.0       0.0
 6 H  px              0.9       0.1       0.1       0.0       0.2       0.0
 6 H  py              0.0       0.0       0.0       0.2       0.0       0.4
 7 H  s               0.1       1.3       0.2       0.3       0.0       0.3
 7 H  pz              0.0       0.0       0.3       0.0       0.0       0.0
 7 H  px              0.9       0.1       0.1       0.0       0.2       0.0
 7 H  py              0.0       0.0       0.0       0.2       0.0       0.4

                     60        61        62        63        64        65   
                   0.33166   0.33542   0.34971   0.35740   0.36468   0.37036
                   0.00000   0.00000   0.00000   0.00000   0.00000   0.00000
                  --------  --------  --------  --------  --------  --------
 0 C  s               0.0       0.0       0.3       0.1       0.1       0.2
 0 C  pz              0.0       0.6       0.2       0.3       0.0       0.2
 0 C  px              0.4       0.1       0.4       0.2       0.1       0.1
 0 C  py              0.1       0.0       0.2       0.1       0.3       0.5
 0 C  dz2             0.0       0.2       1.0       0.2       0.0       0.1
 0 C  dxz             0.0       0.0       0.4       0.1       0.0       0.0
 0 C  dyz             0.0       0.1       0.0       0.0       0.0       0.1
 0 C  dx2y2           0.0       0.1       0.1       0.0       0.0       0.1
 0 C  dxy             0.1       0.1       0.0       0.1       0.0       0.4
 1 C  s               0.0       0.0       0.3       0.1       0.1       0.2
 1 C  pz              0.0       0.6       0.2       0.3       0.0       0.2
 1 C  px              0.4       0.1       0.4       0.2       0.1       0.1
 1 C  py              0.1       0.0       0.2       0.1       0.3       0.5
 1 C  dz2             0.0       0.2       1.0       0.2       0.0       0.1
 1 C  dxz             0.0       0.0       0.4       0.1       0.0       0.0
 1 C  dyz             0.0       0.1       0.0       0.0       0.0       0.1
 1 C  dx2y2           0.0       0.1       0.1       0.0       0.0       0.1
 1 C  dxy             0.1       0.1       0.0       0.1       0.0       0.4
 2 Cl pz              2.2      11.2       0.8       0.3       5.1      16.5
 2 Cl px             13.5       8.2       6.0       1.6       0.1       1.3
 2 Cl py              0.0       0.8       0.9       0.2       0.4       0.0
 2 Cl dz2             0.4       0.3       7.0       0.3       0.0       5.2
 2 Cl dxz             2.3       0.0       2.9      12.9       6.1       3.1
 2 Cl dyz             0.3       2.7       1.2       1.2       2.9       0.9
 2 Cl dx2y2           0.2       3.8       8.2       0.1       0.9       1.4
 2 Cl dxy             2.0       3.5       0.2       0.0       0.6       3.4
 3 Cl s               0.1       0.2       0.0       0.0       0.0       0.0
 3 Cl pz              8.7       1.2       0.2       9.1       4.6       0.6
 3 Cl px              5.5       1.1       5.6       3.2       3.3       0.0
 3 Cl py              2.3       4.4       2.1       2.9      19.1       9.9
 3 Cl dz2             0.9       2.3       7.8       7.1       0.1       0.5
 3 Cl dxz             0.0       0.8       0.9       0.2       0.3       1.1
[...]
 3 Cl dxy             0.2       0.0       0.0       0.0       0.1       0.0
 4 Cl s               0.0       0.0       0.0       0.0       0.1       0.5
 4 Cl pz              0.1       7.0       8.2       0.7       2.4       4.2
 4 Cl px             11.3       0.3       0.4       7.5       0.9       0.6
 4 Cl py              0.7       0.0       0.1       2.5       1.0       7.0
 4 Cl dz2             0.1       0.0       0.0       0.1       0.0       0.0
 4 Cl dxz             0.0       0.1       0.0       0.0       0.0       0.1
 4 Cl dyz             0.0       0.2       0.2       0.0       0.1       0.0
 4 Cl dx2y2           0.0       0.0       0.0       0.1       0.1       0.2
 4 Cl dxy             0.1       0.1       0.0       0.2       0.1       0.1
 5 Cl s               0.0       0.0       0.0       0.1       0.0       0.5
 5 Cl pz              8.0       0.0       0.6       0.2       1.0       6.1
 5 Cl px              9.4      10.4       1.7       0.7       0.9       3.2
 5 Cl py              9.2       3.3       4.3       0.6       1.2       0.5
 5 Cl dz2             0.1       0.0       0.2       0.4       0.0       0.1
 5 Cl dxz             0.0       0.1       0.1       0.1       0.1       0.0
 5 Cl dyz             0.1       0.1       0.2       0.0       0.0       0.0
 5 Cl dx2y2           0.2       0.1       0.3       0.1       0.0       0.0
 5 Cl dxy             0.2       0.0       0.0       0.0       0.1       0.0
 6 H  s               0.1       0.1       0.1       0.1       0.0       0.6
 6 H  pz              0.8      11.1       8.5       0.4       0.7       1.2
 6 H  px              0.9       1.2       0.8      18.3      16.2       1.1
 6 H  py              0.0       1.6       7.6       0.8       0.1       6.8
 7 H  s               0.1       0.1       0.1       0.1       0.0       0.6
 7 H  pz              0.8      11.1       8.5       0.4       0.7       1.2
 7 H  px              0.9       1.2       0.8      18.3      16.1       1.0
 7 H  py              0.0       1.6       7.6       0.8       0.1       6.8

                    144       145       146       147       148       149   
                   2.80749   2.95529   2.98047   3.13318   3.47105   3.51163
                   0.00000   0.00000   0.00000   0.00000   0.00000   0.00000
                  --------  --------  --------  --------  --------  --------
 0 C  s               0.2       0.3       2.6       2.5       2.1       1.0
 0 C  pz              5.6       4.0       0.4       0.1       1.8       3.0
 0 C  px              1.5       0.0       0.8      10.2       0.0       3.2
 0 C  py              0.9       3.7       1.1       1.3       3.6       2.7
 0 C  dz2             0.2       0.0       0.4       3.2       0.0       0.4
 0 C  dxz             2.8       1.7       0.0       8.1       0.5       0.1
 0 C  dyz             0.1       1.8       0.4       1.7       9.4       4.4
 0 C  dx2y2           0.9       1.9       1.3       4.4       1.5      10.3
 0 C  dxy             0.9       0.3       0.2       0.1       0.7       0.7
 1 C  s               0.3       0.3       2.6       2.5       2.1       1.0
 1 C  pz              5.6       4.0       0.4       0.1       1.8       3.0
 1 C  px              1.5       0.0       0.8      10.2       0.0       3.2
 1 C  py              0.9       3.7       1.1       1.3       3.6       2.7
 1 C  dz2             0.2       0.0       0.4       3.2       0.0       0.4
 1 C  dxz             2.8       1.7       0.0       8.1       0.5       0.1
 1 C  dyz             0.1       1.8       0.4       1.7       9.4       4.4
 1 C  dx2y2           0.9       1.9       1.3       4.4       1.5      10.3
 1 C  dxy             0.9       0.3       0.2       0.1       0.7       0.7
 2 Cl s               0.3       1.7       3.1       0.3       0.6       0.0
 2 Cl pz              0.1       2.6       7.7       1.0       1.3       0.1
 2 Cl px              0.5       0.9       2.4       0.2       0.5       0.0
 2 Cl py              4.7      10.9      14.4       1.5       0.8       0.0
 2 Cl dxz             0.2       0.0       0.0       0.0       0.0       0.0
 2 Cl dyz             0.1       0.4       0.1       0.1       0.1       0.0
 2 Cl dx2y2           0.1       0.2       0.1       0.1       0.1       0.0
 3 Cl s               1.5       1.5       0.8       1.5       0.3       0.1
 3 Cl pz             15.2       6.1       3.5       5.6       0.5       0.0
 3 Cl px              6.9       6.3       3.3       2.5       0.4       0.5
 3 Cl py              0.2       0.1       0.5       0.2       0.2       0.1
 3 Cl dz2             0.1       0.1       0.0       0.3       0.0       0.0
 3 Cl dxz             0.5       0.2       0.0       0.3       0.1       0.0
 3 Cl dx2y2           0.4       0.0       0.1       0.1       0.0       0.0
 4 Cl s               0.3       1.7       3.1       0.3       0.6       0.0
 4 Cl pz              0.1       2.6       7.7       1.0       1.3       0.1
 4 Cl px              0.5       0.9       2.4       0.2       0.5       0.0
 4 Cl py              4.7      10.9      14.4       1.5       0.8       0.0
 4 Cl dxz             0.2       0.0       0.0       0.0       0.0       0.0
 4 Cl dyz             0.1       0.4       0.1       0.1       0.1       0.0
 4 Cl dx2y2           0.1       0.2       0.1       0.1       0.1       0.0
 5 Cl s               1.5       1.5       0.8       1.5       0.3       0.1
 5 Cl pz             15.2       6.1       3.5       5.6       0.5       0.0
 5 Cl px              6.9       6.3       3.3       2.5       0.4       0.5
 5 Cl py              0.2       0.1       0.5       0.2       0.2       0.1
 5 Cl dz2             0.1       0.1       0.0       0.3       0.0       0.0
 5 Cl dxz             0.5       0.2       0.0       0.3       0.1       0.0
 5 Cl dx2y2           0.4       0.0       0.1       0.1       0.0       0.0
 6 H  s               0.1       0.2       0.6       0.5       6.1       6.0
 6 H  pz              4.9       4.2       0.6       1.0       5.9       5.8
 6 H  px              0.6       0.1       0.2       2.3       1.0       0.2
 6 H  py              0.2       0.3       5.3       0.8      12.5      11.0
 7 H  s               0.1       0.2       0.6       0.5       6.1       6.0
 7 H  pz              4.9       4.2       0.6       1.0       5.9       5.8
 7 H  px              0.7       0.1       0.2       2.3       1.0       0.2
 7 H  py              0.2       0.3       5.3       0.8      12.4      11.0

                    150       151       152       153       154       155   
                  21.60927  21.83484  24.91544  25.15852  25.29778  25.50877
                   0.00000   0.00000   0.00000   0.00000   0.00000   0.00000
                  --------  --------  --------  --------  --------  --------
 0 C  s              49.7      49.7       0.0       0.2       0.3       0.6
 1 C  s              49.7      49.7       0.0       0.2       0.3       0.6
 2 Cl s               0.1       0.1      15.7      48.1       1.5      33.8
 3 Cl s               0.1       0.1      34.1       1.6      48.1      15.4
 4 Cl s               0.1       0.1      15.7      48.1       1.5      33.8
 5 Cl s               0.1       0.1      34.1       1.6      48.1      15.4



                      *****************************
                      * MAYER POPULATION ANALYSIS *
                      *****************************

  NA   - Mulliken gross atomic population
  ZA   - Total nuclear charge
  QA   - Mulliken gross atomic charge
  VA   - Mayer's total valence
  BVA  - Mayer's bonded valence
  FA   - Mayer's free valence

  ATOM       NA         ZA         QA         VA         BVA        FA
  0 C      6.0083     6.0000    -0.0083     3.9442     3.9442    -0.0000
  1 C      6.0083     6.0000    -0.0083     3.9442     3.9442    -0.0000
  2 Cl    17.0954    17.0000    -0.0954     1.1290     1.1290    -0.0000
  3 Cl    17.1055    17.0000    -0.1055     1.1229     1.1229     0.0000
  4 Cl    17.0954    17.0000    -0.0954     1.1290     1.1290     0.0000
  5 Cl    17.1054    17.0000    -0.1054     1.1229     1.1229    -0.0000
  6 H      0.7908     1.0000     0.2092     0.9242     0.9242     0.0000
  7 H      0.7908     1.0000     0.2092     0.9242     0.9242     0.0000

  Mayer bond orders larger than 0.100000
B(  0-C ,  1-C ) :   0.9251 B(  0-C ,  4-Cl) :   1.0345 B(  0-C ,  5-Cl) :   1.0011 
B(  0-C ,  6-H ) :   0.9162 B(  1-C ,  2-Cl) :   1.0345 B(  1-C ,  3-Cl) :   1.0011 
B(  1-C ,  7-H ) :   0.9162 

-------
TIMINGS
-------

Total SCF time: 0 days 0 hours 0 min 11 sec 

Total time                  ....      11.525 sec
Sum of individual times     ....      11.492 sec  ( 99.7%)

SCF preparation             ....       1.526 sec  ( 13.2%)
Fock matrix formation       ....       6.145 sec  ( 53.3%)
  Startup                   ....       0.007 sec  (  0.1% of F)
  Split-RI-J                ....       1.094 sec  ( 17.8% of F)
  XC integration            ....       4.947 sec  ( 80.5% of F)
    Basis function eval.    ....       0.847 sec  ( 17.1% of XC)
    Density eval.           ....       1.528 sec  ( 30.9% of XC)
    XC-Functional eval.     ....       0.718 sec  ( 14.5% of XC)
    XC-Potential eval.      ....       1.657 sec  ( 33.5% of XC)
Diagonalization             ....       0.000 sec  (  0.0%)
Density matrix formation    ....       0.036 sec  (  0.3%)
Total Energy calculation    ....       0.002 sec  (  0.0%)
Population analysis         ....       3.679 sec  ( 31.9%)
Orbital Transformation      ....       0.013 sec  (  0.1%)
Orbital Orthonormalization  ....       0.000 sec  (  0.0%)
DIIS solution               ....       0.080 sec  (  0.7%)
  MO trafo                  ....       0.000 sec  (  0.0 % of DIIS)
  Orb grad                  ....       0.000 sec  (  0.0 % of DIIS)
  Energy W gradient         ....       0.000 sec  (  0.0 % of DIIS)
  DIIS error                ....       0.004 sec  (  5.1 % of DIIS)
  DIIS work                 ....       0.068 sec  ( 85.2 % of DIIS)
  Form Q                    ....       0.000 sec  (  0.0 % of DIIS)
  Form QpQm                 ....       0.000 sec  (  0.0 % of DIIS)
  Exp/Cayley                ....       0.000 sec  (  0.0 % of DIIS)
  Orb update                ....       0.000 sec  (  0.0 % of DIIS)
  Wake-sleep                ....       0.001 sec  (  1.4 % of DIIS)
SOSCF solution              ....       0.011 sec  (  0.1%)
  MO trafo                  ....       0.009 sec  ( 75.7 % of SOSCF)
  Orb grad                  ....       0.000 sec  (  0.7 % of SOSCF)
  Rot update                ....       0.000 sec  (  0.2 % of SOSCF)
  Step                      ....       0.003 sec  ( 23.0 % of SOSCF)
Finished LeanSCF after  14.8 sec

Maximum memory used throughout the entire LEANSCF-calculation: 15.4 MB


-------------------------------------------------------------------------------
                          DFT DISPERSION CORRECTION                            
                                                                               
                                DFTD4 V3.4.0                                   
-------------------------------------------------------------------------------
The R2SCAN3C composite method is recognized
Using three-body term ABC
Active option DFTDOPT                   ...         5   

-------------------------   ----------------
Dispersion correction           -0.003327839
-------------------------   ----------------

------------------   -----------------
gCP correction             0.010906575
------------------   -----------------

-------------------------   --------------------
FINAL SINGLE POINT ENERGY     -1918.093263410317
-------------------------   --------------------


------------------------------------------------------------------------------
                              ORCA PROPERTY CALCULATIONS
------------------------------------------------------------------------------

GBWName                                 ... sp.gbw
Number of atoms                         ...      8
Number of basis functions               ...    156
Max core memory                         ...   1024 MB

Electric properties:
Dipole moment                           ... YES
Quadrupole moment                       ...  NO
Static polarizability (Dipole/Dipole)   ...  NO
Static polarizability (Dipole/Quad.)    ...  NO
Static polarizability (Quad./Quad.)     ...  NO
Static polarizability (Velocity)        ...  NO

Atomic electric properties:
Dipole moment                           ...  NO
Quadrupole moment                       ...  NO
Static polarizability                   ...  NO

Choice of electric origin               ... Center of mass
Position of electric origin             ...    -0.000000    -0.000003     0.000000

General magnetic properties:
Magnetizability                         ...  NO

EPR properties:
g-Tensor (aka g-matrix)                 ...  NO
Zero-Field splitting spin-orbit         ...  NO
Zero-field splitting spin-spin          ...  NO
Hyperfine couplings                     ...  NO (   0 nuclei)
Quadrupole couplings                    ...  NO (   0 nuclei)
Contact density                         ...  NO (   0 nuclei)

NMR properties:
Chemical shifts                         ...  NO (   0 nuclei)
Spin-rotation constants                 ...  NO (   0 nuclei)
Spin-spin couplings                     ...  NO (   0 nuclei,    0 pairs)

Choice of magnetic origin               ... GIAO
Position of magnetic origin             ...     0.000000     0.000000     0.000000

Properties with geometric perturbations:
SCF Hessian                             ...  NO
IR spectrum                             ...  NO
VCD spectrum                            ...  NO
X-ray spectroscopy properties:
SCF XES/XAS/RIXS spectra                ...  NO


-------------
DIPOLE MOMENT
-------------

Method             : SCF
Type of density    : Electron Density
Multiplicity       :   1
Irrep              :   0
Energy             : -1918.1008421457122495 Eh
Relativity type    : 
Basis              : AO
                                X                 Y                 Z
Electronic contribution:      0.000496939       2.591901970      -0.000199807
Nuclear contribution   :     -0.000553758      -3.299668552       0.000363753
                        -----------------------------------------
Total Dipole Moment    :     -0.000056820      -0.707766582       0.000163946
                        -----------------------------------------
Magnitude (a.u.)       :      0.707766603
Magnitude (Debye)      :      1.798999737



--------------------
Rotational spectrum 
--------------------
 
Rotational constants in cm-1:             0.060392             0.037798             0.032155 
Rotational constants in MHz :          1810.500318          1133.169009           963.970629 

Dipole components along the rotational axes: 
x,y,z [a.u.] :    -0.000097     0.000091     0.707767 
x,y,z [Debye]:    -0.000247     0.000230     1.799000 

 

Dipole moment calculation done in   1.2 sec 

Maximum memory used throughout the entire PROP-calculation: 9.6 MB

--------------------------------
SUGGESTED CITATIONS FOR THIS RUN
--------------------------------

Below you find a list of papers that are relevant to this ORCA run
We neither can nor want to force you to cite these papers, but we appreciate if you do
You receive ORCA, which is the product of decades of hard work by many enthusiastic individuals, for free
The only thing we kindly ask in return is that you cite our papers,
We deeply appreciate it, if you show your appreciation for ORCA by not just citing the generic ORCA reference.

Please note that relegating all ORCA citations to the supporting information does *not* help us.
SI sections are not indexed - citations you put there will not count into any citation statistics
But we need these citations in order to attract the funding resources that allow us to do what we are doing

Therefore, if you are a happy ORCA user, please consider citing a few of the papers listed below in the main body of your paper

In addition to the list printed below, the program has created the file sp.bibtex that contains the list in bibtex format
You can import this file easily into all common literature databanks and citation aid programs


List of essential papers. We consider these as the minimum necessary citations

  1. Neese,F.
     Software update: the ORCA program system, version 5.0
     WIRES Comput. Molec. Sci., 2022 12(1)e1606
     doi.org/10.1002/wcms.1606
  2. Grimme,S.; Hansen,A.; Ehlert,S.; Mewes,J.
     r2SCAN-3c: A 'Swiss army knife' composite electronic-structure method
     J. Chem. Phys., 2021 154 064103
     doi.org/10.1063/5.0040021

List of papers to cite with high priority. The work reported in these papers was absolutely
necessary for this run to complete.
Our perspective: the developers of density functionals and basis sets usually get cited in chemistry papers
Good! But without the algorithms to do something with them, the functionals or basis sets would not do anything.
Hence, in our opinion, the algorithm design and method developments papers are equally worthy of getting cited

  1. Neese,F.
     An improvement of the resolution of the identity approximation for the formation of the Coulomb matrix
     J. Comp. Chem., 2003 24(14)1740-1747
     doi.org/10.1002/jcc.10318
  2. Neese,F.
     The SHARK Integral Generation and Digestion System
     J. Comp. Chem., 2022  1-16
     doi.org/10.1002/jcc.26942
  3. Lehtola,S.; Steigemann,C.; Oliveira,M.; Marques,M.
     Recent developments in Libxc - A comprehensive library of functionals for density functional theory
     Software X, 2018 7 
     doi.org/10.1016/j.softx.2017.11.002
  4. Caldeweyher,E.; Bannwarth,C.; Grimme,S.
     Extension of the D3 dispersion coefficient model
     J. Chem. Phys., 2017 147 034112
     doi.org/10.1063/1.4993215
  5. Caldeweyher,E.; Ehlert,S.; Hansen,A.; Neugebauer,H.; Spicher,S.; Bannwarth,C.; Grimme,S.
     A generally applicable atomic-charge dependent London dispersion correction
     J. Chem. Phys., 2019 150 154122
     doi.org/10.1063/1.5090222
  6. Caldeweyher,E.; Mewes,J.; Ehlert,S.; Grimme,S.
     Extension and evaluation of the D4 London-dispersion model for periodic systems
     Phys. Chem. Chem. Phys., 2020 22(16)8499-8512
     doi.org/10.1039/D0CP00502A
  7. Wittmann,L.; Gordiy,I.; Friede,M.; Helmich-Paris,B.; Grimme,S.; Hansen,A.; Bursch,M.
     Extension of the D3 and D4 London Dispersion Corrections to the full Actinides Series
     Phys. Chem. Chem. Phys., 2024 26(32)21379-21394
     doi.org/https://doi.org/10.1039/D4CP01514B 

List of suggested additional citations. These are papers that are important in the 'surrounding' of 
of this run, or papers that preceded the highly important papers. If you like your results we are grateful for a citation.

  1. Neese,F.
     The ORCA program system
     WIRES Comput. Molec. Sci., 2012 2(1)73-78
     doi.org/10.1002/wcms.81
  2. Neese,F.
     Software update: the ORCA program system, version 4.0
     WIRES Comput. Molec. Sci., 2018 8(1)1-6
     doi.org/10.1002/wcms.1327
  3. Neese,F.; Wennmohs,F.; Becker,U.; Riplinger,C.
     The ORCA quantum chemistry program package
     J. Chem. Phys., 2020 152 Art. No. L224108
     doi.org/10.1063/5.0004608

List of optional additional citations

  1. Neese,F.
     Approximate second-order SCF convergence for spin unrestricted wavefunctions
     Chem. Phys. Lett., 2000 325(1-3)93-98
     doi.org/10.1016/s0009-2614(00)00662-x

Timings for individual modules:

Sum of individual times          ...       16.837 sec (=   0.281 min)
Startup calculation              ...        0.658 sec (=   0.011 min)   3.9 %
SCF iterations                   ...       14.885 sec (=   0.248 min)  88.4 %
Property calculations            ...        1.294 sec (=   0.022 min)   7.7 %
                             ****ORCA TERMINATED NORMALLY****
TOTAL RUN TIME: 0 days 0 hours 0 minutes 19 seconds 653 msec
