11
 energy: -21.651280494389 gnorm: 0.028270037144 xtb: 6.7.1 (edcfbbe)
C           -2.36104011691422       -0.82804621912144       -0.28691070024511
O           -0.92790089565451       -0.62881977958289       -0.27864320022557
C           -0.54021373883884        0.61413627121643        0.01754720583705
O           -1.28355839269976        1.53808795251713        0.25545888138610
C            0.95949499097798        0.82743218533845       -0.01153567466118
Cl           1.98274146174499       -0.65589273125469        0.05060583383667
H           -2.50220030611618       -1.87963699547245       -0.53153135293087
H           -2.82650561274679       -0.18565925640261       -1.03817495167841
H           -2.77810492077334       -0.59607875202273        0.69560311644547
H            1.22133133576596        1.46279422142054        0.83578309642000
H            1.20083737663948        1.36247237968294       -0.93486308106217
11
 energy: -21.652453731588 gnorm: 0.012802406439 xtb: 6.7.1 (edcfbbe)
C           -2.34426888120611       -0.83212522092783       -0.28595285554727
O           -0.92640939160611       -0.61149554630271       -0.27619855972824
C           -0.54559633343120        0.62697586708621        0.01326634585706
O           -1.29339909925300        1.53670964374725        0.25780345674964
C            0.95349850467658        0.84077985262738       -0.01185903890270
Cl           1.90371545759706       -0.67449164556939        0.04343573995777
H           -2.48033677211772       -1.88238356000482       -0.52961792521371
H           -2.81190467412342       -0.19272580808422       -1.03544378852099
H           -2.76190799311686       -0.60023766681270        0.69419190235090
H            1.23769654551780        1.45912289340838        0.84063350354112
H            1.21379381844775        1.36066046715115       -0.93691960742159
11
 energy: -21.652747907722 gnorm: 0.005261421448 xtb: 6.7.1 (edcfbbe)
C           -2.33077202627740       -0.83264285583981       -0.28590538823351
O           -0.92563127059005       -0.59509363444127       -0.27204689054767
C           -0.55196651158058        0.64025442974325        0.01787295142450
O           -1.30634130689205        1.54394051877252        0.25970628682254
C            0.95069137250344        0.84191995018870       -0.01374155105595
Cl           1.85967548791493       -0.68627515359831        0.03947920252404
H           -2.45768071365927       -1.88296161089669       -0.52985207553648
H           -2.80720988978470       -0.19890805457809       -1.03469000007550
H           -2.75611353728431       -0.60638855551793        0.69226799710006
H            1.24955947401227        1.45202657011984        0.83891802110371
H            1.22067010302251        1.35491767236648       -0.93866938040377
11
 energy: -21.652789464133 gnorm: 0.002667123224 xtb: 6.7.1 (edcfbbe)
C           -2.32683419608760       -0.83343133914647       -0.28537842070275
O           -0.92598323196998       -0.58679052865805       -0.27411025905870
C           -0.55387597477586        0.64952873889013        0.01404117089856
O           -1.30927346102260        1.55169689093527        0.26033878223026
C            0.95207032737565        0.84044365129600       -0.01343536917466
Cl           1.84541558452864       -0.69284804635932        0.03821265260594
H           -2.44726398959628       -1.88500699789768       -0.52904836915999
H           -2.81220900252048       -0.20446027494287       -1.03365528241419
H           -2.75612406414576       -0.61128133831943        0.69288020741951
H            1.25377813109213        1.44804296023763        0.83999720455308
H            1.22518105850693        1.35489556028349       -0.93650314407506
11
 energy: -21.652798164710 gnorm: 0.001158078551 xtb: 6.7.1 (edcfbbe)
C           -2.32640494796016       -0.83385430777421       -0.28586372350483
O           -0.92679532094940       -0.58370625701540       -0.27326664938575
C           -0.55405515260548        0.65289819769685        0.01771405214019
O           -1.30852073116775        1.55684722444197        0.25971874843526
C            0.95342654475845        0.83927453288756       -0.01329190215353
Cl           1.84181741926282       -0.69496726802161        0.03786589089964
H           -2.44295473852374       -1.88617085005715       -0.53013114092292
H           -2.81542475146030       -0.20696600711735       -1.03407665560658
H           -2.75818428047370       -0.61462828163000        0.69246659694927
H            1.25677878790188        1.44785629721933        0.83899389882440
H            1.22519835260216        1.35420599568871       -0.93678994255317
11
 energy: -21.652799526854 gnorm: 0.000362132981 xtb: 6.7.1 (edcfbbe)
C           -2.32755301203084       -0.83414345749120       -0.28567868855676
O           -0.92757811346831       -0.58362954582098       -0.27453482298188
C           -0.55382373309252        0.65381670676132        0.01567632130631
O           -1.30679375836256        1.55829129398402        0.25920759265830
C            0.95404086675695        0.83871127681621       -0.01280463100183
Cl           1.84329444953088       -0.69473990981470        0.03774511071118
H           -2.44314614921038       -1.88672932559674       -0.52964700738519
H           -2.81719416419722       -0.20806400331530       -1.03398777860907
H           -2.75842851168665       -0.61520059747658        0.69302845776260
H            1.25639559828229        1.44723925784728        0.84010525637649
H            1.22566770886314        1.35523758042537       -0.93577063715816
11
 energy: -21.652799785583 gnorm: 0.000116081901 xtb: 6.7.1 (edcfbbe)
C           -2.32745136768401       -0.83406444747853       -0.28571026979331
O           -0.92736360119980       -0.58401341934757       -0.27403014960829
C           -0.55377739709178        0.65330084567630        0.01635108872455
O           -1.30685878108404        1.55787200876585        0.25896788369412
C            0.95384908161144        0.83886794378000       -0.01288568329554
Cl           1.84300134186697       -0.69461998498233        0.03739962073192
H           -2.44340333870541       -1.88655726340913       -0.52955227136930
H           -2.81643452838150       -0.20785649584102       -1.03418460654507
H           -2.75829865183261       -0.61477871146618        0.69283117436527
H            1.25623898504589        1.44731762820586        0.84007019485930
H            1.22537943883964        1.35532117241545       -0.93591780864166
11
 energy: -21.652799826209 gnorm: 0.000031793454 xtb: 6.7.1 (edcfbbe)
C           -2.32738226126568       -0.83407521922683       -0.28564842165806
O           -0.92731526843541       -0.58396582359397       -0.27393371367212
C           -0.55383020925472        0.65337055644142        0.01621079817612
O           -1.30700170803888        1.55794676118326        0.25866050568818
C            0.95384308525171        0.83882656799510       -0.01285781756000
Cl           1.84280956585160       -0.69466148986628        0.03697429071283
H           -2.44331315885053       -1.88663039919577       -0.52925731227118
H           -2.81634793284423       -0.20803073535460       -1.03428902562410
H           -2.75832499502751       -0.61457291989606        0.69280850477147
H            1.25621730876990        1.44697468069665        0.84031491893481
H            1.22552675522853        1.35560729713577       -0.93564355437598
