
                                 *****************
                                 * O   R   C   A *
                                 *****************

                                            #,                                       
                                            ###                                      
                                            ####                                     
                                            #####                                    
                                            ######                                   
                                           ########,                                 
                                     ,,################,,,,,                         
                               ,,#################################,,                 
                          ,,##########################################,,             
                       ,#########################################, ''#####,          
                    ,#############################################,,   '####,        
                  ,##################################################,,,,####,       
                ,###########''''           ''''###############################       
              ,#####''   ,,,,##########,,,,          '''####'''          '####       
            ,##' ,,,,###########################,,,                        '##       
           ' ,,###''''                  '''############,,,                           
         ,,##''                                '''############,,,,        ,,,,,,###''
      ,#''                                            '''#######################'''  
     '                                                          ''''####''''         
             ,#######,   #######,   ,#######,      ##                                
            ,#'     '#,  ##    ##  ,#'     '#,    #''#        ,####,   ,####,        
            ##       ##  ##   ,#'  ##            #'  '#       #'       #'  '#        
            ##       ##  #######   ##           ,######,      #####,   #    #        
            '#,     ,#'  ##    ##  '#,     ,#' ,#      #,     #,   #   #,  ,#        
             '#######'   ##     ##  '#######'  #'      '#     '####' # '####'        



                #########################################################
                #                        -***-                          #
                #          Department of theory and spectroscopy        #
                #                                                       #
                #                      Frank Neese                      #
                #                                                       #
                #     Directorship, Architecture, Infrastructure        #
                #                    SHARK, DRIVERS                     #
                #        Core code/Algorithms in most modules           #
                #                                                       #
                #        Max Planck Institute fuer Kohlenforschung      #
                #                Kaiser Wilhelm Platz 1                 #
                #                 D-45470 Muelheim/Ruhr                 #
                #                      Germany                          #
                #                                                       #
                #                  All rights reserved                  #
                #                        -***-                          #
                #########################################################


                         Program Version 6.0.0  -   RELEASE  -


 With contributions from (in alphabetic order):
   Daniel Aravena         : Magnetic Suceptibility
   Michael Atanasov       : Ab Initio Ligand Field Theory (pilot matlab implementation)
   Alexander A. Auer      : GIAO ZORA, VPT2 properties, NMR spectrum
   Ute Becker             : All parallelization in ORCA, NUMFREQ, NUMCALC
   Giovanni Bistoni       : ED, misc. LED, open-shell LED, HFLD
   Martin Brehm           : Molecular dynamics
   Dmytro Bykov           : pre 5.0 version of the SCF Hessian
   Marcos Casanova-Páez   : Triplet and SCS-CIS(D). UHF-(DLPNO)-IP/EA/STEOM-CCSD. UHF-CVS-IP/STEOM-CCSD
   Vijay G. Chilkuri      : MRCI spin determinant printing, contributions to CSF-ICE
   Pauline Colinet        : FMM embedding
   Dipayan Datta          : RHF DLPNO-CCSD density
   Achintya Kumar Dutta   : EOM-CC, STEOM-CC
   Nicolas Foglia         : Exact transition moments, OPA infrastructure, MCD improvements
   Dmitry Ganyushin       : Spin-Orbit,Spin-Spin,Magnetic field MRCI
   Miquel Garcia          : C-PCM and meta-GGA Hessian, CCSD/C-PCM, Gaussian charge scheme
   Tiago L. C. Gouveia    : GS-ROHF, GS-ROCIS
   Yang Guo               : DLPNO-NEVPT2, F12-NEVPT2, CIM, IAO-localization
   Andreas Hansen         : Spin unrestricted coupled pair/coupled cluster methods
   Ingolf Harden          : AUTO-CI MPn and infrastructure 
   Benjamin Helmich-Paris : MC-RPA, TRAH-(SCF,CASSCF), AVAS, COSX integrals, SCF dyn. polar.
   Lee Huntington         : MR-EOM, pCC
   Robert Izsak           : Overlap fitted RIJCOSX, COSX-SCS-MP3, EOM
   Riya Kayal             : Wick's Theorem for AUTO-CI, AUTO-CI UHF-CCSDT
   Emily Kempfer          : AUTO-CI, RHF CISDT and CCSDT
   Christian Kollmar      : KDIIS, OOCD, Brueckner-CCSD(T), CCSD density, CASPT2, CASPT2-K, improved NEVPT2
   Axel Koslowski         : Symmetry handling
   Simone Kossmann        : Meta GGA functionals, TD-DFT gradient, OOMP2, (MP2 Hessian; deprecated post 5.0)
   Lucas Lang             : DCDCAS
   Marvin Lechner         : AUTO-CI (C++ implementation), FIC-MRCC
   Spencer Leger          : CASSCF response
   Dagmar Lenk            : GEPOL surface, SMD, ORCA-2-JSON
   Dimitrios Liakos       : Extrapolation schemes; Compound Job, initial MDCI parallelization
   Dimitrios Manganas     : Further ROCIS development; embedding schemes. LFT, Crystal Embedding
   Dimitrios Pantazis     : SARC Basis sets
   Anastasios Papadopoulos: AUTO-CI, single reference methods and gradients
   Taras Petrenko         : pre 6.0 DFT Hessian and TD-DFT gradient, (ASA, deprecated), ECA, 1-Electron XAS/XES, NRVS
   Peter Pinski           : DLPNO-MP2, DLPNO-MP2 Gradient
   Christoph Reimann      : Effective Core Potentials
   Marius Retegan         : Local ZFS, SOC
   Christoph Riplinger    : Optimizer, TS searches, QM/MM, DLPNO-CCSD(T), (RO)-DLPNO pert. Triples
   Michael Roemelt        : Original ROCIS implementation
   Masaaki Saitow         : Open-shell DLPNO-CCSD energy and density
   Barbara Sandhoefer     : DKH picture change effects
   Kantharuban Sivalingam : CASSCF convergence/infrastructure, NEVPT2 and variants, FIC-MRCI
   Bernardo de Souza      : ESD, SOC TD-DFT
   Georgi Stoychev        : AutoAux, RI-MP2 NMR, DLPNO-MP2 response, X2C
   Van Anh Tran           : RI-MP2 g-tensors
   Willem Van den Heuvel  : Paramagnetic NMR
   Zikuan Wang            : NOTCH, Electric field optimization 
   Frank Wennmohs         : Technical directorship and infrastructure
   Hang Xu                : AUTO-CI-Response properties 


 We gratefully acknowledge several colleagues who have allowed us to
 interface, adapt or use parts of their codes:
   Stefan Grimme, W. Hujo, H. Kruse, P. Pracht,  : VdW corrections, initial TS optimization,
                  C. Bannwarth, S. Ehlert,         DFT functionals, gCP, sTDA/sTD-DF
                  L. Wittmann, M. Mueller
   Ed Valeev, F. Pavosevic, A. Kumar             : LibInt (2-el integral package), F12 methods
   Garnet Chan, S. Sharma, J. Yang, R. Olivares  : DMRG
   Ulf Ekstrom                                   : XCFun DFT Library
   Mihaly Kallay                                 : mrcc  (arbitrary order and MRCC methods)
   Frank Weinhold                                : gennbo (NPA and NBO analysis)
   Simon Mueller                                 : openCOSMO-RS
   Christopher J. Cramer and Donald G. Truhlar   : smd solvation model
   Lars Goerigk                                  : TD-DFT with DH, B97 family of functionals
   V. Asgeirsson, H. Jonsson                     : NEB implementation
   FAccTs GmbH                                   : IRC, NEB, NEB-TS, DLPNO-Multilevel, CI-OPT
                                                   MM, QMMM, 2- and 3-layer-ONIOM, Crystal-QMMM,
                                                   LR-CPCM, SF, NACMEs, symmetry and pop. for TD-DFT,
                                                   nearIR, NL-DFT gradient (VV10), updates on ESD,
                                                   ML-optimized integration grids, MBIS, APM,
                                                   GOAT, DOCKER, SOLVATOR, interface openCOSMO-RS
   S Lehtola, MJT Oliveira, MAL Marques          : LibXC Library
   Liviu Ungur et al                             : ANISO software


 Your calculation uses the libint2 library for the computation of 2-el integrals
 For citations please refer to: http://libint.valeyev.net

 Your ORCA version has been built with support for libXC version: 6.2.2
 For citations please refer to: https://libxc.gitlab.io

 This ORCA versions uses:
   CBLAS   interface :  Fast vector & matrix operations
   LAPACKE interface :  Fast linear algebra routines
   SCALAPACK package :  Parallel linear algebra routines
   Shared memory     :  Shared parallel matrices
   BLAS/LAPACK       :  OpenBLAS 0.3.27  USE64BITINT DYNAMIC_ARCH NO_AFFINITY SkylakeX SINGLE_THREADED
        Core in use  :  SkylakeX
   Copyright (c) 2011-2014, The OpenBLAS Project




***************************************
The coordinates will be read from file: vacuum_censo.xyz
***************************************


Your calculation utilizes the geometrical counterpoise correction gCP
Please cite in your paper:
H.Kruse, S. Grimme J.Chem.Phys., 136, (2012), 154101 
   

Your calculation utilizes the atom-pairwise dispersion correction
based on EEQ partial charges (D4)


================================================================================

----- Orbital basis set information -----
Your calculation utilizes the basis: def2-TZVP
   F. Weigend and R. Ahlrichs, Phys. Chem. Chem. Phys. 7, 3297 (2005).

----- AuxJ basis set information -----
Your calculation utilizes the basis: def2-mTZVPP/J
   Stefan Grimme, Andreas Hansen, Sebastian Ehlert, and Jan-Michael Mewes 
   J. Chem. Phys. 154, 000000 (2021). DOI: 10.1063/5.0040021

================================================================================
                                        WARNINGS
                       Please study these warnings very carefully!
================================================================================

Using LibXC functional ID 497 : Re-regularized SCAN exchange by Furness et al
[ 1]  J. W. Furness, A. D. Kaplan, J. Ning, J. P. Perdew, and J. Sun.,  J. Phys. Chem. Lett. 11, 8208-8215 (2020)
[ 2]  J. W. Furness, A. D. Kaplan, J. Ning, J. P. Perdew, and J. Sun.,  J. Phys. Chem. Lett. 11, 9248-9248 (2020)
Using LibXC functional ID 498 : Re-regularized SCAN correlation by Furness et al
[ 1]  J. W. Furness, A. D. Kaplan, J. Ning, J. P. Perdew, and J. Sun.,  J. Phys. Chem. Lett. 11, 8208-8215 (2020)
[ 2]  J. W. Furness, A. D. Kaplan, J. Ning, J. P. Perdew, and J. Sun.,  J. Phys. Chem. Lett. 11, 9248-9248 (2020)
Using LibXC functional ID 497 : Re-regularized SCAN exchange by Furness et al
[ 1]  J. W. Furness, A. D. Kaplan, J. Ning, J. P. Perdew, and J. Sun.,  J. Phys. Chem. Lett. 11, 8208-8215 (2020)
[ 2]  J. W. Furness, A. D. Kaplan, J. Ning, J. P. Perdew, and J. Sun.,  J. Phys. Chem. Lett. 11, 9248-9248 (2020)
Using LibXC functional ID 498 : Re-regularized SCAN correlation by Furness et al
[ 1]  J. W. Furness, A. D. Kaplan, J. Ning, J. P. Perdew, and J. Sun.,  J. Phys. Chem. Lett. 11, 8208-8215 (2020)
[ 2]  J. W. Furness, A. D. Kaplan, J. Ning, J. P. Perdew, and J. Sun.,  J. Phys. Chem. Lett. 11, 9248-9248 (2020)

================================================================================
                                       INPUT FILE
================================================================================
NAME = vacuum_censo.inp
|  1> ! r2SCAN-3c DEF2-TZVP FREQ
|  2> * xyzfile 0 1 vacuum_censo.xyz
|  3> 
|  4>                          ****END OF INPUT****
================================================================================

                       ****************************
                       * Single Point Calculation *
                       ****************************

---------------------------------
CARTESIAN COORDINATES (ANGSTROEM)
---------------------------------
  C      1.251742    0.177788    0.000026
  C     -0.107404   -0.445131   -0.000009
  C     -1.255054    0.227050    0.000002
  H      1.190656    1.269599    0.000531
  H      1.826929   -0.136015   -0.879446
  H      1.827297   -0.136833    0.878959
  H     -0.135260   -1.535028   -0.000090
  H     -2.212894   -0.283133   -0.000028
  H     -1.272583    1.314273    0.000116

----------------------------
CARTESIAN COORDINATES (A.U.)
----------------------------
  NO LB      ZA    FRAG     MASS         X           Y           Z
   0 C     6.0000    0    12.011    2.365450    0.335970    0.000049
   1 C     6.0000    0    12.011   -0.202963   -0.841175   -0.000017
   2 C     6.0000    0    12.011   -2.371708    0.429062    0.000004
   3 H     1.0000    0     1.008    2.250015    2.399194    0.001004
   4 H     1.0000    0     1.008    3.452396   -0.257032   -1.661912
   5 H     1.0000    0     1.008    3.453091   -0.258576    1.660992
   6 H     1.0000    0     1.008   -0.255603   -2.900783   -0.000170
   7 H     1.0000    0     1.008   -4.181764   -0.535044   -0.000052
   8 H     1.0000    0     1.008   -2.404834    2.483616    0.000220

--------------------------------
INTERNAL COORDINATES (ANGSTROEM)
--------------------------------
 C      0   0   0     0.000000000000     0.00000000     0.00000000
 C      1   0   0     1.495093727429     0.00000000     0.00000000
 C      2   1   0     1.330010629597   125.01966661     0.00000000
 H      1   2   3     1.093518888519   111.42043636     0.02638120
 H      1   2   3     1.096714734311   110.94931079   239.16772535
 H      1   2   3     1.096709731888   110.95137425   120.88825697
 H      2   1   3     1.090253494602   116.08681377   179.99742220
 H      3   2   1     1.085239484540   121.60091275   179.99980992
 H      3   2   1     1.087364467294   121.28129929     0.00000000

---------------------------
INTERNAL COORDINATES (A.U.)
---------------------------
 C      0   0   0     0.000000000000     0.00000000     0.00000000
 C      1   0   0     2.825317689385     0.00000000     0.00000000
 C      2   1   0     2.513355845142   125.01966661     0.00000000
 H      1   2   3     2.066451221571   111.42043636     0.02638120
 H      1   2   3     2.072490494883   110.94931079   239.16772535
 H      1   2   3     2.072481041674   110.95137425   120.88825697
 H      2   1   3     2.060280521349   116.08681377   179.99742220
 H      3   2   1     2.050805415498   121.60091275   179.99980992
 H      3   2   1     2.054821050942   121.28129929     0.00000000

---------------------
BASIS SET INFORMATION
---------------------
There are 2 groups of distinct atoms

 Group   1 Type C   : 11s6p2d1f contracted to 5s3p2d1f pattern {62111/411/11/1}
 Group   2 Type H   : 5s1p contracted to 3s1p pattern {311/1}

Atom   0C    basis set group =>   1
Atom   1C    basis set group =>   1
Atom   2C    basis set group =>   1
Atom   3H    basis set group =>   2
Atom   4H    basis set group =>   2
Atom   5H    basis set group =>   2
Atom   6H    basis set group =>   2
Atom   7H    basis set group =>   2
Atom   8H    basis set group =>   2
---------------------------------
AUXILIARY/J BASIS SET INFORMATION
---------------------------------
There are 2 groups of distinct atoms

 Group   1 Type C   : 8s3p3d contracted to 6s3p3d pattern {311111/111/111}
 Group   2 Type H   : 5s2p1d contracted to 3s1p1d pattern {311/2/1}

Atom   0C    basis set group =>   1
Atom   1C    basis set group =>   1
Atom   2C    basis set group =>   1
Atom   3H    basis set group =>   2
Atom   4H    basis set group =>   2
Atom   5H    basis set group =>   2
Atom   6H    basis set group =>   2
Atom   7H    basis set group =>   2
Atom   8H    basis set group =>   2
------------------------------------------------------------------------------
                             ORCA STARTUP CALCULATIONS
                           -- RI-GTO INTEGRALS CHOSEN --
------------------------------------------------------------------------------
------------------------------------------------------------------------------
                   ___                                                        
                  /   \      - P O W E R E D   B Y -                         
                 /     \                                                     
                 |  |  |   _    _      __       _____    __    __             
                 |  |  |  | |  | |    /  \     |  _  \  |  |  /  |          
                  \  \/   | |  | |   /    \    | | | |  |  | /  /          
                 / \  \   | |__| |  /  /\  \   | |_| |  |  |/  /          
                |  |  |   |  __  | /  /__\  \  |    /   |      \           
                |  |  |   | |  | | |   __   |  |    \   |  |\   \          
                \     /   | |  | | |  |  |  |  | |\  \  |  | \   \       
                 \___/    |_|  |_| |__|  |__|  |_| \__\ |__|  \__/        
                                                                              
                      - O R C A' S   B I G   F R I E N D -                    
                                      &                                       
                       - I N T E G R A L  F E E D E R -                       
                                                                              
 v1 FN, 2020, v2 2021, v3 2022-2024                                           
------------------------------------------------------------------------------


----------------------
SHARK INTEGRAL PACKAGE
----------------------

Number of atoms                             ...      9
Number of basis functions                   ...    129
Number of shells                            ...     57
Maximum angular momentum                    ...      3
Integral batch strategy                     ... SHARK/LIBINT Hybrid
RI-J (if used) integral strategy            ... SPLIT-RIJ (Revised 2003 algorithm where possible)
Printlevel                                  ...      1
Contraction scheme used                     ... SEGMENTED contraction
Prescreening option                         ... SCHWARTZ
   Thresh                                   ... 1.000e-10
   Tcut                                     ... 1.000e-11
   Tpresel                                  ... 1.000e-11 
Coulomb Range Separation                    ... NOT USED
Exchange Range Separation                   ... NOT USED
Multipole approximations                    ... NOT USED
Finite Nucleus Model                        ... NOT USED
CABS basis                                  ... NOT available
Auxiliary Coulomb fitting basis             ... AVAILABLE
   # of basis functions in Aux-J            ...    156
   # of shells in Aux-J                     ...     66
   Maximum angular momentum in Aux-J        ...      2
Auxiliary J/K fitting basis                 ... NOT available
Auxiliary Correlation fitting basis         ... NOT available
Auxiliary 'external' fitting basis          ... NOT available

Checking pre-screening integrals            ... done (  0.0 sec) Dimension = 57
Check shell pair data                       ... done (  0.0 sec)
Shell pair information
Shell pair cut-off parameter TPreSel        ...   1.0e-11
Total number of shell pairs                 ...      1653
Shell pairs after pre-screening             ...      1626
Total number of primitive shell pairs       ...      4740
Primitive shell pairs kept                  ...      3951
          la=0 lb=0:    542 shell pairs
          la=1 lb=0:    487 shell pairs
          la=1 lb=1:    120 shell pairs
          la=2 lb=0:    198 shell pairs
          la=2 lb=1:     90 shell pairs
          la=2 lb=2:     21 shell pairs
          la=3 lb=0:     99 shell pairs
          la=3 lb=1:     45 shell pairs
          la=3 lb=2:     18 shell pairs
          la=3 lb=3:      6 shell pairs

Calculating one electron integrals          ... done (  0.0 sec)
Calculating RI/J V-Matrix + Cholesky decomp.... done (  0.0 sec)
Calculating Nuclear repulsion               ... done (  0.0 sec) ENN=     70.804043029083 Eh

Diagonalization of the overlap matrix:
Smallest eigenvalue                        ... 1.768e-04
Time for diagonalization                   ...    0.002 sec
Threshold for overlap eigenvalues          ... 1.000e-07
Number of eigenvalues below threshold      ... 0
Time for construction of square roots      ...    0.017 sec
Total time needed                          ...    0.029 sec

-------------------
DFT GRID GENERATION
-------------------

General Integration Accuracy     IntAcc      ... 4.388
Radial Grid Type                 RadialGrid  ... OptM3 with GC (2021)
Angular Grid (max. ang.)         AngularGrid ... 4 (Lebedev-302)
Angular grid pruning method      GridPruning ... 4 (adaptive)
Weight generation scheme         WeightScheme... mBecke (2022)
Basis function cutoff            BFCut       ... 1.0000e-10
Integration weight cutoff        WCut        ... 1.0000e-14
Partially contracted basis set               ... off
Rotationally invariant grid construction     ... off
Angular grids for H and He will be reduced by one unit

Total number of grid points                  ...    37715
Total number of batches                      ...      594
Average number of points per batch           ...       63
Average number of grid points per atom       ...     4191
Initializing property integral containers    ... done (  0.0 sec)

SHARK setup successfully completed in   0.5 seconds

Maximum memory used throughout the entire STARTUP-calculation: 16.8 MB
-------------------------------------------------------------------------------
                                 ORCA GUESS
                   Start orbitals & Density for SCF / CASSCF
-------------------------------------------------------------------------------

------------
SCF SETTINGS
------------
Hamiltonian:
 Density Functional     Method          .... DFT(GTOs)
  Functional kind                       .... Exchange
  Functional name                       .... Re-regularized SCAN exchange by Furness et al
  Functional family                     .... MGGA
  Functional refs                              
    [ 0] J. W. Furness, A. D. Kaplan, J. Ning, J. P. Perdew, and J. Sun.,  J. Phys. Chem. Lett. 11, 8208-8215 (2020), doi: 10.1021/acs.jpclett.0c02405
    [ 1] J. W. Furness, A. D. Kaplan, J. Ning, J. P. Perdew, and J. Sun.,  J. Phys. Chem. Lett. 11, 9248-9248 (2020), doi: 10.1021/acs.jpclett.0c03077
  Functional external parameters        .... 6
    Parameter  0 _c1        =  6.670000e-01 : c1 parameter        
    Parameter  1 _c2        =  8.000000e-01 : c2 parameter        
    Parameter  2 _d         =  1.240000e+00 : d parameter         
    Parameter  3 _k1        =  6.500000e-02 : k1 parameter        
    Parameter  4 _eta       =  1.000000e-03 : eta parameter       
    Parameter  5 _dp2       =  3.610000e-01 : dp2 parameter       
  Functional kind                       .... Correlation
  Functional name                       .... Re-regularized SCAN correlation by Furness et al
  Functional family                     .... MGGA
  Functional refs                              
    [ 0] J. W. Furness, A. D. Kaplan, J. Ning, J. P. Perdew, and J. Sun.,  J. Phys. Chem. Lett. 11, 8208-8215 (2020), doi: 10.1021/acs.jpclett.0c02405
    [ 1] J. W. Furness, A. D. Kaplan, J. Ning, J. P. Perdew, and J. Sun.,  J. Phys. Chem. Lett. 11, 9248-9248 (2020), doi: 10.1021/acs.jpclett.0c03077
  Functional external parameters        .... 1
    Parameter  0 _eta       =  1.000000e-03 : Regularization parameter
 Gradients option       PostSCFGGA      .... off
 RI-approximation to the Coulomb term is turned on
   Number of AuxJ basis functions       .... 156


General Settings:
 Integral files         IntName         .... vacuum_censo
 Hartree-Fock type      HFTyp           .... RHF
 Total Charge           Charge          ....    0
 Multiplicity           Mult            ....    1
 Number of Electrons    NEL             ....   24
 Basis Dimension        Dim             ....  129
 Nuclear Repulsion      ENuc            ....     70.8040430291 Eh

Convergence Acceleration:
 AO-DIIS                CNVDIIS         .... on
   Start iteration      DIISMaxIt       ....    12
   Startup error        DIISStart       ....  0.200000
   # of expansion vecs  DIISMaxEq       ....     5
   Bias factor          DIISBfac        ....   1.050
   Max. coefficient     DIISMaxC        ....  10.000
 MO-DIIS                CNVKDIIS        .... off
 Trust-Rad. Augm. Hess. CNVTRAH         .... auto
   Auto Start mean grad. ratio tolernc. ....  1.125000
   Auto Start start iteration           ....    50
   Auto Start num. interpolation iter.  ....    10
   Max. Number of Micro iterations      ....    24
   Max. Number of Macro iterations      .... Maxiter - #DIIS iter
   Number of Davidson start vectors     ....     2
   Converg. threshold    (grad. norm)   ....   5.000e-05
   Grad. Scal. Fac. for Micro threshold ....   0.100
   Minimum threshold for Micro iter.    ....   1.000e-02
   NR start threshold (gradient norm)   ....   1.000e-04
   Initial trust radius                 ....   0.400
   Minimum AH scaling param. (alpha)    ....   1.000
   Maximum AH scaling param. (alpha)    .... 1000.000
   Quad. conv. algorithm                .... NR
   White noise on init. David. guess    .... on
   Maximum white noise                  ....   0.010
   Pseudo random numbers                .... off
   Inactive MOs                         .... canonical
   Orbital update algorithm             .... Taylor
   Preconditioner                       .... Diag
   Full preconditioner red. dimension   ....   250
   COSX micro iterations for RIJONX calc.... off
 SOSCF                  CNVSOSCF        .... on
   Start iteration      SOSCFMaxIt      ....   150
   Startup grad/error   SOSCFStart      ....  0.003300
   Hessian update       SOSCFHessUp     .... L-BFGS
 Level Shifting         CNVShift        .... on
   Level shift para.    LevelShift      ....    0.2500
   Turn off err/grad.   ShiftErr        ....    0.0010
 Zerner damping         CNVZerner       .... off
 Static damping         CNVDamp         .... on
   Fraction old density DampFac         ....    0.7000
   Max. Damping (<1)    DampMax         ....    0.9800
   Min. Damping (>=0)   DampMin         ....    0.0000
   Turn off err/grad.   DampErr         ....    0.1000

SCF Procedure:
 Maximum # iterations   MaxIter         ....   125
 SCF integral mode      SCFMode         .... Direct
   Integral package                     .... SHARK and LIBINT hybrid scheme
 Reset frequency        DirectResetFreq ....    20
 Integral Threshold     Thresh          ....  1.000e-10 Eh
 Primitive CutOff       TCut            ....  1.000e-11 Eh

Convergence Tolerance:
 Convergence Check Mode ConvCheckMode   .... Total+1el-Energy
 Convergence forced     ConvForced      .... 0
 Energy Change          TolE            ....  1.000e-06 Eh
 1-El. energy change                    ....  1.000e-03 Eh
 Orbital Gradient       TolG            ....  5.000e-05
 Orbital Rotation angle TolX            ....  5.000e-05
 DIIS Error             TolErr          ....  1.000e-06

------------------------------
INITIAL GUESS: MODEL POTENTIAL
------------------------------
Loading Hartree-Fock densities                     ... done
Calculating cut-offs                               ... done
Initializing the effective Hamiltonian             ... done
Setting up the integral package (SHARK)            ... done
Starting the Coulomb interaction                   ... done (   0.1 sec)
Making the grid                                    ... done (   0.1 sec)
Mapping shells                                     ... done
Starting the XC term evaluation                    ... done (   0.1 sec)
  promolecular density results
     # of electrons  =     23.996622321
     EX              =    -17.066326197
     EC              =     -0.750048767
     EX+EC           =    -17.816374964
Transforming the Hamiltonian                       ... done (   0.0 sec)
Diagonalizing the Hamiltonian                      ... done (   0.0 sec)
Back transforming the eigenvectors                 ... done (   0.0 sec)
Now organizing SCF variables                       ... done
                      ------------------
                      INITIAL GUESS DONE (   0.2 sec)
                      ------------------
             **** ENERGY FILE WAS UPDATED (vacuum_censo.en.tmp) ****
Finished Guess after   0.5 sec
Maximum memory used throughout the entire GUESS-calculation: 9.3 MB

-------------------------------------------------------------------------------------------
                                      ORCA LEAN-SCF
                              memory conserving SCF solver
-------------------------------------------------------------------------------------------

----------------------------------------D-I-I-S--------------------------------------------
Iteration    Energy (Eh)           Delta-E    RMSDP     MaxDP     DIISErr   Damp  Time(sec)
-------------------------------------------------------------------------------------------
               ***  Starting incremental Fock matrix formation  ***
    1    -117.7497592542803204     0.00e+00  1.75e-03  3.35e-02  1.84e-01  0.700   1.0
    2    -117.8070863077728063    -5.73e-02  1.28e-03  2.21e-02  9.47e-02  0.700   1.1
                               ***Turning on AO-DIIS***
    3    -117.8298626786329635    -2.28e-02  5.57e-04  7.23e-03  3.42e-02  0.700   1.1
    4    -117.8427089450965752    -1.28e-02  9.77e-04  1.59e-02  1.55e-02  0.000   1.0
    5    -117.8707160194416588    -2.80e-02  2.08e-04  2.51e-03  7.74e-03  0.000   1.0
                              *** Initializing SOSCF ***
---------------------------------------S-O-S-C-F--------------------------------------
Iteration    Energy (Eh)           Delta-E    RMSDP     MaxDP     MaxGrad    Time(sec)
--------------------------------------------------------------------------------------
    6    -117.8709747861690857    -2.59e-04  9.23e-05  1.53e-03  1.82e-03     1.0
               *** Restarting incremental Fock matrix formation ***
    7    -117.8709919695128576    -1.72e-05  6.94e-05  1.27e-03  3.22e-04     1.0
    8    -117.8709906172656190     1.35e-06  2.23e-05  5.54e-04  6.91e-04     0.9
    9    -117.8709934488760780    -2.83e-06  1.41e-05  1.78e-04  1.10e-04     0.9
   10    -117.8709933489288346     9.99e-08  7.37e-06  1.10e-04  1.08e-04     0.9
                 **** Energy Check signals convergence ****

               *****************************************************
               *                     SUCCESS                       *
               *           SCF CONVERGED AFTER  10 CYCLES          *
               *****************************************************

             **** ENERGY FILE WAS UPDATED (vacuum_censo.en.tmp) ****

----------------
TOTAL SCF ENERGY
----------------

Total Energy       :       -117.87099334892883 Eh           -3207.43279 eV

Components:
Nuclear Repulsion  :         70.80404302908335 Eh            1926.67596 eV
Electronic Energy  :       -188.67503637801218 Eh           -5134.10875 eV
One Electron Energy:       -297.05864159099008 Eh           -8083.37659 eV
Two Electron Energy:        108.38360521297791 Eh            2949.26784 eV

Virial components:
Potential Energy   :       -235.11709877275237 Eh           -6397.86152 eV
Kinetic Energy     :        117.24610542382354 Eh            3190.42873 eV
Virial Ratio       :          2.00532971157418

DFT components:
N(Alpha)           :       11.999986275451 electrons
N(Beta)            :       11.999986275451 electrons
N(Total)           :       23.999972550902 electrons
E(X)               :      -17.694113875393 Eh       
E(C)               :       -0.723124867629 Eh       
E(XC)              :      -18.417238743022 Eh       

---------------
SCF CONVERGENCE
---------------

  Last Energy change         ...   -9.9947e-08  Tolerance :   1.0000e-06
  Last MAX-Density change    ...    1.1008e-04  Tolerance :   1.0000e-05
  Last RMS-Density change    ...    7.3727e-06  Tolerance :   1.0000e-06
  Last DIIS Error            ...    1.8157e-03  Tolerance :   1.0000e-06
  Last Orbital Gradient      ...    1.0787e-04  Tolerance :   5.0000e-05
  Last Orbital Rotation      ...    9.6951e-05  Tolerance :   5.0000e-05


----------------
ORBITAL ENERGIES
----------------

  NO   OCC          E(Eh)            E(eV) 
   0   2.0000     -10.037625      -273.1377 
   1   2.0000     -10.029545      -272.9178 
   2   2.0000     -10.021054      -272.6867 
   3   2.0000      -0.753599       -20.5065 
   4   2.0000      -0.652601       -17.7582 
   5   2.0000      -0.521955       -14.2031 
   6   2.0000      -0.435222       -11.8430 
   7   2.0000      -0.389888       -10.6094 
   8   2.0000      -0.383384       -10.4324 
   9   2.0000      -0.340584        -9.2678 
  10   2.0000      -0.315195        -8.5769 
  11   2.0000      -0.236329        -6.4308 
  12   0.0000      -0.012831        -0.3491 
  13   0.0000       0.065801         1.7905 
  14   0.0000       0.092028         2.5042 
  15   0.0000       0.104086         2.8323 
  16   0.0000       0.126844         3.4516 
  17   0.0000       0.131008         3.5649 
  18   0.0000       0.143109         3.8942 
  19   0.0000       0.194217         5.2849 
  20   0.0000       0.221391         6.0243 
  21   0.0000       0.222101         6.0437 
  22   0.0000       0.230742         6.2788 
*Only the first 10 virtual orbitals were printed.

                    ********************************
                    * MULLIKEN POPULATION ANALYSIS *
                    ********************************

-----------------------
MULLIKEN ATOMIC CHARGES
-----------------------
   0 C :   -0.258658
   1 C :   -0.105904
   2 C :   -0.282928
   3 H :    0.099697
   4 H :    0.109474
   5 H :    0.109466
   6 H :    0.100841
   7 H :    0.119012
   8 H :    0.109000
Sum of atomic charges:   -0.0000000

--------------------------------
MULLIKEN REDUCED ORBITAL CHARGES
--------------------------------
  0 C s       :     3.225642  s :     3.225642
      pz      :     1.026480  p :     2.983149
      px      :     0.939288
      py      :     1.017380
      dz2     :     0.003152  d :     0.046160
      dxz     :     0.021089
      dyz     :     0.001090
      dx2y2   :     0.012755
      dxy     :     0.008074
      f0      :     0.000308  f :     0.003708
      f+1     :     0.000966
      f-1     :     0.000209
      f+2     :     0.000164
      f-2     :     0.000147
      f+3     :     0.000782
      f-3     :     0.001132

  1 C s       :     3.237272  s :     3.237272
      pz      :     0.941292  p :     2.779230
      px      :     0.903115
      py      :     0.934823
      dz2     :     0.004159  d :     0.081088
      dxz     :     0.029069
      dyz     :     0.001440
      dx2y2   :     0.031305
      dxy     :     0.015114
      f0      :     0.001555  f :     0.008314
      f+1     :     0.000728
      f-1     :     0.000552
      f+2     :     0.000404
      f-2     :     0.000946
      f+3     :     0.002462
      f-3     :     0.001668

  2 C s       :     3.271784  s :     3.271784
      pz      :     1.022864  p :     2.963015
      px      :     0.958418
      py      :     0.981732
      dz2     :     0.004135  d :     0.042375
      dxz     :     0.007271
      dyz     :     0.001938
      dx2y2   :     0.021724
      dxy     :     0.007306
      f0      :     0.001378  f :     0.005754
      f+1     :     0.000547
      f-1     :     0.000536
      f+2     :     0.000177
      f-2     :     0.000406
      f+3     :     0.001267
      f-3     :     0.001443

  3 H s       :     0.877326  s :     0.877326
      pz      :     0.005130  p :     0.022978
      px      :     0.005004
      py      :     0.012843

  4 H s       :     0.867483  s :     0.867483
      pz      :     0.009873  p :     0.023043
      px      :     0.007573
      py      :     0.005597

  5 H s       :     0.867491  s :     0.867491
      pz      :     0.009868  p :     0.023043
      px      :     0.007575
      py      :     0.005600

  6 H s       :     0.875959  s :     0.875959
      pz      :     0.005303  p :     0.023200
      px      :     0.004611
      py      :     0.013286

  7 H s       :     0.857335  s :     0.857335
      pz      :     0.006103  p :     0.023653
      px      :     0.011385
      py      :     0.006165

  8 H s       :     0.867566  s :     0.867566
      pz      :     0.005833  p :     0.023434
      px      :     0.004178
      py      :     0.013423



                     *******************************
                     * LOEWDIN POPULATION ANALYSIS *
                     *******************************

----------------------
LOEWDIN ATOMIC CHARGES
----------------------
   0 C :   -0.292323
   1 C :   -0.232441
   2 C :   -0.226873
   3 H :    0.123502
   4 H :    0.126690
   5 H :    0.126682
   6 H :    0.136125
   7 H :    0.119919
   8 H :    0.118718

-------------------------------
LOEWDIN REDUCED ORBITAL CHARGES
-------------------------------
  0 C s       :     2.832851  s :     2.832851
      pz      :     1.063592  p :     3.176318
      px      :     1.047355
      py      :     1.065370
      dz2     :     0.033227  d :     0.258015
      dxz     :     0.088184
      dyz     :     0.011057
      dx2y2   :     0.077738
      dxy     :     0.047809
      f0      :     0.001980  f :     0.025140
      f+1     :     0.003988
      f-1     :     0.002841
      f+2     :     0.001599
      f-2     :     0.004195
      f+3     :     0.005167
      f-3     :     0.005370

  1 C s       :     2.805992  s :     2.805992
      pz      :     0.873244  p :     2.974036
      px      :     1.083816
      py      :     1.016976
      dz2     :     0.024459  d :     0.409593
      dxz     :     0.091164
      dyz     :     0.008880
      dx2y2   :     0.175700
      dxy     :     0.109389
      f0      :     0.003345  f :     0.042820
      f+1     :     0.004633
      f-1     :     0.003174
      f+2     :     0.001940
      f-2     :     0.006447
      f+3     :     0.015141
      f-3     :     0.008140

  2 C s       :     2.863281  s :     2.863281
      pz      :     0.971288  p :     3.096400
      px      :     1.080800
      py      :     1.044313
      dz2     :     0.017048  d :     0.239091
      dxz     :     0.020863
      dyz     :     0.007309
      dx2y2   :     0.120434
      dxy     :     0.073437
      f0      :     0.002231  f :     0.028101
      f+1     :     0.003848
      f-1     :     0.003099
      f+2     :     0.000888
      f-2     :     0.002888
      f+3     :     0.008661
      f-3     :     0.006485

  3 H s       :     0.814515  s :     0.814515
      pz      :     0.013691  p :     0.061983
      px      :     0.012803
      py      :     0.035489

  4 H s       :     0.811040  s :     0.811040
      pz      :     0.028057  p :     0.062270
      px      :     0.018691
      py      :     0.015522

  5 H s       :     0.811048  s :     0.811048
      pz      :     0.028041  p :     0.062270
      px      :     0.018698
      py      :     0.015531

  6 H s       :     0.804040  s :     0.804040
      pz      :     0.013520  p :     0.059835
      px      :     0.011849
      py      :     0.034466

  7 H s       :     0.816267  s :     0.816267
      pz      :     0.015392  p :     0.063814
      px      :     0.029716
      py      :     0.018706

  8 H s       :     0.817940  s :     0.817940
      pz      :     0.015162  p :     0.063342
      px      :     0.011774
      py      :     0.036407



                      *****************************
                      * MAYER POPULATION ANALYSIS *
                      *****************************

  NA   - Mulliken gross atomic population
  ZA   - Total nuclear charge
  QA   - Mulliken gross atomic charge
  VA   - Mayer's total valence
  BVA  - Mayer's bonded valence
  FA   - Mayer's free valence

  ATOM       NA         ZA         QA         VA         BVA        FA
  0 C      6.2587     6.0000    -0.2587     3.8794     3.8794    -0.0000
  1 C      6.1059     6.0000    -0.1059     3.8495     3.8495    -0.0000
  2 C      6.2829     6.0000    -0.2829     3.9342     3.9342     0.0000
  3 H      0.9003     1.0000     0.0997     0.9896     0.9896    -0.0000
  4 H      0.8905     1.0000     0.1095     0.9750     0.9750    -0.0000
  5 H      0.8905     1.0000     0.1095     0.9750     0.9750     0.0000
  6 H      0.8992     1.0000     0.1008     0.9742     0.9742    -0.0000
  7 H      0.8810     1.0000     0.1190     0.9773     0.9773     0.0000
  8 H      0.8910     1.0000     0.1090     0.9794     0.9794    -0.0000

  Mayer bond orders larger than 0.100000
B(  0-C ,  1-C ) :   0.9647 B(  0-C ,  3-H ) :   0.9783 B(  0-C ,  4-H ) :   0.9598 
B(  0-C ,  5-H ) :   0.9599 B(  1-C ,  2-C ) :   1.9373 B(  1-C ,  6-H ) :   0.9572 
B(  2-C ,  7-H ) :   0.9629 B(  2-C ,  8-H ) :   0.9617 

-------
TIMINGS
-------

Total SCF time: 0 days 0 hours 0 min 10 sec 

Total time                  ....      10.280 sec
Sum of individual times     ....       9.801 sec  ( 95.3%)

SCF preparation             ....       0.229 sec  (  2.2%)
Fock matrix formation       ....       8.662 sec  ( 84.3%)
  Startup                   ....       0.055 sec  (  0.6% of F)
  Split-RI-J                ....       0.564 sec  (  6.5% of F)
  XC integration            ....       7.494 sec  ( 86.5% of F)
    Basis function eval.    ....       1.146 sec  ( 15.3% of XC)
    Density eval.           ....       1.908 sec  ( 25.5% of XC)
    XC-Functional eval.     ....       1.059 sec  ( 14.1% of XC)
    XC-Potential eval.      ....       2.621 sec  ( 35.0% of XC)
Diagonalization             ....       0.000 sec  (  0.0%)
Density matrix formation    ....       0.216 sec  (  2.1%)
Total Energy calculation    ....       0.033 sec  (  0.3%)
Population analysis         ....       0.025 sec  (  0.2%)
Orbital Transformation      ....       0.055 sec  (  0.5%)
Orbital Orthonormalization  ....       0.000 sec  (  0.0%)
DIIS solution               ....       0.399 sec  (  3.9%)
SOSCF solution              ....       0.181 sec  (  1.8%)
Finished LeanSCF after  10.3 sec

Maximum memory used throughout the entire LEANSCF-calculation: 11.2 MB

------------------------------------------------------------------------------
                         ORCA PROPERTY INTEGRAL CALCULATIONS
------------------------------------------------------------------------------

GBWName                                   ... vacuum_censo.gbw
Number of atoms                           ...      9
Number of basis functions                 ...    129
Max core memory                           ...   1024 MB

Dipole integrals                          ... YES
Quadrupole integrals                      ...  NO
Linear momentum integrals                 ...  NO
Angular momentum integrals                ...  NO
Higher moments length integrals           ...  NO
Higher moments velocity integrals         ...  NO
Kinetic energy integrals                  ...  NO
GIAO right hand sides                     ...  NO
GIAO dipole derivative integrals          ...  NO
SOC integrals                             ...  NO
EPR diamagnetic integrals (GIAO)          ...  NO
EPR gauge integrals                       ...  NO
Field gradient integrals                  ...  NO (   0 nuclei)
Spin-dipole/Fermi contact integrals       ...  NO (   0 nuclei)
Contact density integrals                 ...  NO (   0 nuclei)
Nucleus-orbit integrals                   ...  NO (   0 nuclei)
Geometric perturbations                   ... YES (   9 nuclei)

Choice of electric origin   ... Center of mass
Position of electric origin ... ( -0.0043,  0.0006,  0.0000) 
Choice of magnetic origin   ... GIAO
Position of magnetic origin ... (  0.0000,  0.0000,  0.0000) 

Calculating integrals                     ... Electric Dipole (Length)     done (  0.1 sec)
Calculating integrals                     ... Geometrical perturbation right hand sides

-----------------------
GEOMETRIC PERTURBATIONS (9 nuclei)
-----------------------

MaxCore                            ...   1024 MB
Number of batches                  ...      1

BATCH   0: Atoms    0 -    8 ( 27 perturbations)
   => H(core) and overlap derivative integrals     ... done (     0.1 sec)
   => Making and storing internal U-coefficients   ... done (     0.5 sec)
   => RI-J derivative integrals                    ... done (     0.6 sec)
   => RI-J response operators                      ... done (     0.1 sec)
   => XC derivative integrals                      ... done (    35.2 sec)
   => XC response operators                        ... done (     9.3 sec)
   => Completing and storing right hand sides      ... done (     0.2 sec)
   => Total time for right hand sides =  47.3 sec

  geometrical perturbations done ( 47.3 sec)

Property integrals calculated in  47.3 sec

Maximum memory used throughout the entire PROPINT-calculation: 35.5 MB


-------------------------------------------------------------------------------
                          DFT DISPERSION CORRECTION                            
                                                                               
                                DFTD4 V3.4.0                                   
-------------------------------------------------------------------------------
The R2SCAN3C composite method is recognized
Using three-body term ABC
Active option DFTDOPT                   ...         5   

-------------------------   ----------------
Dispersion correction           -0.001354308
-------------------------   ----------------

------------------   -----------------
gCP correction             0.003228495
------------------   -----------------

-------------------------   --------------------
FINAL SINGLE POINT ENERGY      -117.869119162587
-------------------------   --------------------

------------------------------------------------------------------------------
                            ORCA SCF RESPONSE CALCULATION
------------------------------------------------------------------------------

GBWName                                 ... vacuum_censo.gbw
Number of atoms                         ...      9
Number of basis functions               ...    129
Max core memory                         ...   1024 MB

Electric field perturbation             ...  NO
Quadrupolar field perturbation          ...  NO
Magnetic field perturbation (no GIAO)   ...  NO
Magnetic field perturbation (with GIAO) ...  NO
Linear momentum (velocity) perturbation ...  NO
Spin-orbit coupling perturbation        ...  NO
Choice of electric origin               ... Center of mass
Position of electric origin             ...    -0.004305     0.000577     0.000012
Choice of magnetic origin               ... GIAO
Position of magnetic origin             ...     0.000000     0.000000     0.000000
Nuclear geometric perturbations         ... YES (  27 perturbations)
Nucleus-orbit perturbations             ...  NO (   0 perturbations)
Spin-dipole/Fermi contact perturbations ...  NO (   0 perturbations)

Total number of real perturbations      ...     27
Total number of imaginary perturbations ...      0
Total number of triplet perturbations   ...      0
Total number of SOC perturbations       ...      0


                                **********************
                                * REAL PERTURBATIONS *
                                **********************



-------------------
SHARK CP-SCF DRIVER
-------------------

Dimension of the orbital basis          ...    129
Dimension of the CPSCF-problem          ...   1404
Number of operators                     ...      1
Max. number of iterations               ...    128
Convergence Tolerance                   ... 1.0e-03
Number of perturbations                 ...     27
Perturbation type                       ... REAL

----------------------------
POPLE LINEAR EQUATION SOLVER
----------------------------

  ITERATION   0:   ||err||_max =   3.0290e-01 (   4.0 sec   0/ 27 done)
  ITERATION   1:   ||err||_max =   4.1449e-02 (   4.0 sec   0/ 27 done)
  ITERATION   2:   ||err||_max =   1.1470e-02 (   4.1 sec   8/ 27 done)
  ITERATION   3:   ||err||_max =   2.2858e-03 (   3.9 sec  15/ 27 done)
  ITERATION   4:   ||err||_max =   5.0081e-04 (   2.5 sec  27/ 27 done)

CP-SCF equations solved in  21.6 sec
Response densities calculated in   0.3 sec

Maximum memory used throughout the entire SCFRESP-calculation: 15.7 MB

------------------------------------------------------------------------------
                              ORCA PROPERTY CALCULATIONS
------------------------------------------------------------------------------

GBWName                                 ... vacuum_censo.gbw
Number of atoms                         ...      9
Number of basis functions               ...    129
Max core memory                         ...   1024 MB

Electric properties:
Dipole moment                           ... YES
Quadrupole moment                       ...  NO
Static polarizability (Dipole/Dipole)   ...  NO
Static polarizability (Dipole/Quad.)    ...  NO
Static polarizability (Quad./Quad.)     ...  NO
Static polarizability (Velocity)        ...  NO

Atomic electric properties:
Dipole moment                           ...  NO
Quadrupole moment                       ...  NO
Static polarizability                   ...  NO

Choice of electric origin               ... Center of mass
Position of electric origin             ...    -0.004305     0.000577     0.000012

General magnetic properties:
Magnetizability                         ...  NO

EPR properties:
g-Tensor (aka g-matrix)                 ...  NO
Zero-Field splitting spin-orbit         ...  NO
Zero-field splitting spin-spin          ...  NO
Hyperfine couplings                     ...  NO (   0 nuclei)
Quadrupole couplings                    ...  NO (   0 nuclei)
Contact density                         ...  NO (   0 nuclei)

NMR properties:
Chemical shifts                         ...  NO (   0 nuclei)
Spin-rotation constants                 ...  NO (   0 nuclei)
Spin-spin couplings                     ...  NO (   0 nuclei,    0 pairs)

Choice of magnetic origin               ... GIAO
Position of magnetic origin             ...     0.000000     0.000000     0.000000

Properties with geometric perturbations:
SCF Hessian                             ... YES
IR spectrum                             ... YES
VCD spectrum                            ...  NO
X-ray spectroscopy properties:
SCF XES/XAS/RIXS spectra                ...  NO


-------------
DIPOLE MOMENT
-------------

Method             : SCF
Type of density    : Electron Density
Multiplicity       :   1
Irrep              :   0
Energy             :  -117.8709933489288346 Eh
Relativity type    : 
Basis              : AO
                                X                 Y                 Z
Electronic contribution:     -0.988932886      -0.490891473      -0.000017635
Nuclear contribution   :      1.161287404       0.460674025       0.000002923
                        -----------------------------------------
Total Dipole Moment    :      0.172354518      -0.030217448      -0.000014712
                        -----------------------------------------
Magnitude (a.u.)       :      0.174983354
Magnitude (Debye)      :      0.444772339



--------------------
Rotational spectrum 
--------------------
 
Rotational constants in cm-1:             1.561403             0.311133             0.272507 
Rotational constants in MHz :         46809.692373          9327.522517          8169.560652 

Dipole components along the rotational axes: 
x,y,z [a.u.] :     0.172354    -0.030220    -0.000014 
x,y,z [Debye]:     0.438089    -0.076814    -0.000036 

 

Dipole moment calculation done in   0.0 sec 

-----------
SCF HESSIAN
-----------

Occupied/Occupied contributions to the Hessian:
   => Occupied/Occupied contributions              ... done (  0.0 sec)
Perturbed density contributions to the Hessian:
   => Perturbed density contributions              ... done (  0.0 sec)
Explicit contributions to the Hessian:
   => Nuclear repulsion Hessian                    ... done (  0.0 sec)
   => HCore and overlap Hessian                    ... done (  1.2 sec)
   => RI-J Hessian                                 ... done (  1.4 sec)
   => XC-Hessian                                   ... done ( 15.7 sec)
   => Van der Waals-Hessian                        ... done (  1.7 sec)
   => GCP-Hessian                                  ... done (  0.0 sec)
   => Explicit contributions done
Dipole derivatives                                 ... done (  0.0 sec)
Mass weighting the Hessian           ... done
Calculating normal modes             ... done
Scaling frequencies                  ... done

-----------------------
VIBRATIONAL FREQUENCIES
-----------------------

Scaling factor for frequencies =  1.000000000  (already applied!)

     0:       0.00 cm**-1
     1:       0.00 cm**-1
     2:       0.00 cm**-1
     3:       0.00 cm**-1
     4:       0.00 cm**-1
     5:       0.00 cm**-1
     6:     218.55 cm**-1
     7:     432.88 cm**-1
     8:     589.73 cm**-1
     9:     925.97 cm**-1
    10:     926.36 cm**-1
    11:     946.28 cm**-1
    12:    1026.44 cm**-1
    13:    1064.31 cm**-1
    14:    1191.60 cm**-1
    15:    1326.32 cm**-1
    16:    1395.42 cm**-1
    17:    1441.62 cm**-1
    18:    1470.53 cm**-1
    19:    1485.85 cm**-1
    20:    1697.66 cm**-1
    21:    2996.91 cm**-1
    22:    3053.82 cm**-1
    23:    3087.90 cm**-1
    24:    3112.77 cm**-1
    25:    3118.58 cm**-1
    26:    3204.23 cm**-1


------------
NORMAL MODES
------------

These modes are the Cartesian displacements weighted by the diagonal matrix
M(i,i)=1/sqrt(m[i]) where m[i] is the mass of the displaced atom
Thus, these vectors are normalized but *not* orthogonal

                  0          1          2          3          4          5    
      0       0.000000   0.000000   0.000000   0.000000   0.000000   0.000000
      1       0.000000   0.000000   0.000000   0.000000   0.000000   0.000000
      2       0.000000   0.000000   0.000000   0.000000   0.000000   0.000000
      3       0.000000   0.000000   0.000000   0.000000   0.000000   0.000000
      4       0.000000   0.000000   0.000000   0.000000   0.000000   0.000000
      5       0.000000   0.000000   0.000000   0.000000   0.000000   0.000000
      6       0.000000   0.000000   0.000000   0.000000   0.000000   0.000000
      7       0.000000   0.000000   0.000000   0.000000   0.000000   0.000000
      8       0.000000   0.000000   0.000000   0.000000   0.000000   0.000000
      9       0.000000   0.000000   0.000000   0.000000   0.000000   0.000000
     10       0.000000   0.000000   0.000000   0.000000   0.000000   0.000000
     11       0.000000   0.000000   0.000000   0.000000   0.000000   0.000000
     12       0.000000   0.000000   0.000000   0.000000   0.000000   0.000000
     13       0.000000   0.000000   0.000000   0.000000   0.000000   0.000000
     14       0.000000   0.000000   0.000000   0.000000   0.000000   0.000000
     15       0.000000   0.000000   0.000000   0.000000   0.000000   0.000000
     16       0.000000   0.000000   0.000000   0.000000   0.000000   0.000000
     17       0.000000   0.000000   0.000000   0.000000   0.000000   0.000000
     18       0.000000   0.000000   0.000000   0.000000   0.000000   0.000000
     19       0.000000   0.000000   0.000000   0.000000   0.000000   0.000000
     20       0.000000   0.000000   0.000000   0.000000   0.000000   0.000000
     21       0.000000   0.000000   0.000000   0.000000   0.000000   0.000000
     22       0.000000   0.000000   0.000000   0.000000   0.000000   0.000000
     23       0.000000   0.000000   0.000000   0.000000   0.000000   0.000000
     24       0.000000   0.000000   0.000000   0.000000   0.000000   0.000000
     25       0.000000   0.000000   0.000000   0.000000   0.000000   0.000000
     26       0.000000   0.000000   0.000000   0.000000   0.000000   0.000000
                  6          7          8          9         10         11    
      0       0.000005   0.136659  -0.000007  -0.269819   0.003452   0.040739
      1       0.000001  -0.059084  -0.000008  -0.055190   0.000737  -0.076755
      2      -0.009447   0.000001  -0.006046   0.000271   0.010340  -0.000018
      3      -0.000007   0.006122   0.000007   0.125821  -0.001619   0.001180
      4      -0.000016   0.191301   0.000003   0.115931  -0.001492  -0.006207
      5       0.096033   0.000011   0.125596   0.001006   0.041890   0.000013
      6       0.000004  -0.151017   0.000004   0.175748  -0.002266   0.024031
      7       0.000006  -0.059227   0.000004   0.016482  -0.000221   0.066876
      8      -0.067697  -0.000007  -0.030815  -0.004005  -0.165463  -0.000045
      9       0.000123   0.506248   0.000094  -0.033761   0.000631  -0.489418
     10      -0.000212  -0.039029   0.000102  -0.050029   0.000697  -0.100031
     11       0.468143   0.000033  -0.232206  -0.000556  -0.023761  -0.000041
     12      -0.269585   0.032976  -0.250782  -0.353158  -0.038378   0.159565
     13       0.385290  -0.270231  -0.157559  -0.281793  -0.011622   0.281070
     14      -0.327466   0.006438  -0.117280   0.023716  -0.013536  -0.044044
     15       0.269449   0.032762   0.250627  -0.351148   0.047289   0.159833
     16      -0.384984  -0.270391   0.157449  -0.281147   0.018642   0.281145
     17      -0.327930  -0.006510  -0.117243  -0.024508  -0.012957   0.044167
     18      -0.000025   0.041410   0.000033   0.163361  -0.001956  -0.396421
     19      -0.000025   0.185011   0.000040   0.121305  -0.001562   0.005249
     20       0.237955   0.000016  -0.369192   0.000215   0.009921   0.000082
     21      -0.000000   0.032699   0.000013   0.420050  -0.005474   0.229774
     22       0.000014  -0.408661   0.000021  -0.428932   0.005579  -0.331699
     23      -0.049609   0.000003  -0.642538   0.016934   0.694848   0.000145
     24       0.000010  -0.547965  -0.000033  -0.223673   0.003037  -0.449171
     25       0.000023  -0.066422  -0.000044   0.000424  -0.000100   0.055945
     26      -0.226168  -0.000033   0.421119   0.016703   0.694724   0.000283
                 12         13         14         15         16         17    
      0       0.000023   0.000021  -0.012899   0.006346   0.120349   0.057863
      1      -0.000006  -0.000020  -0.153239   0.026269   0.059800  -0.020608
      2       0.039169   0.156293  -0.000014   0.000007  -0.000011  -0.000022
      3      -0.000009  -0.000004   0.093440   0.002408   0.016781  -0.109779
      4      -0.000014   0.000004   0.171150   0.089158  -0.025387   0.007411
      5       0.047393  -0.157088   0.000015   0.000002  -0.000009  -0.000008
      6      -0.000008  -0.000013  -0.075018   0.035271   0.004012  -0.009343
      7       0.000009   0.000006  -0.072377  -0.109813   0.004505   0.030926
      8      -0.008244   0.023769  -0.000008  -0.000006   0.000000   0.000004
      9      -0.000016   0.000142  -0.575280   0.019737  -0.502514   0.058428
     10       0.000028   0.000208  -0.175910   0.029238   0.011440  -0.007758
     11      -0.046508  -0.331629  -0.000070   0.000002   0.000262   0.000082
     12      -0.155550  -0.552602   0.023086  -0.065887  -0.441361  -0.211754
     13      -0.076115  -0.155919   0.204527  -0.033334  -0.297357   0.161713
     14      -0.037928  -0.169358  -0.096053  -0.019065  -0.220057  -0.229043
     15       0.155569   0.552445   0.023390  -0.065871  -0.441237  -0.211578
     16       0.076161   0.155845   0.204442  -0.033342  -0.297385   0.161664
     17      -0.037925  -0.169519   0.096157   0.019051   0.219993   0.229297
     18      -0.000039   0.000005   0.383205  -0.863774  -0.025689   0.269122
     19       0.000045  -0.000032   0.161797   0.115673  -0.030074  -0.002750
     20      -0.731291   0.341770   0.000018  -0.000013   0.000025   0.000010
     21       0.000004  -0.000016  -0.268114   0.012230  -0.076731   0.312964
     22      -0.000036   0.000006   0.306170  -0.038847   0.141036  -0.546687
     23       0.403599   0.079711   0.000040  -0.000006   0.000013  -0.000039
     24      -0.000033  -0.000016   0.347902   0.438973  -0.194265   0.512756
     25       0.000057   0.000012  -0.052017  -0.106285   0.008589   0.022551
     26      -0.483159  -0.024729  -0.000008   0.000001   0.000004   0.000003
                 18         19         20         21         22         23    
      0       0.000039   0.010347   0.055611  -0.050138   0.000029  -0.027200
      1      -0.000030   0.047989  -0.004672  -0.007657  -0.000002   0.080051
      2       0.052856   0.000043   0.000002   0.000044   0.090855   0.000006
      3      -0.000008  -0.025197  -0.387039  -0.000019  -0.000002  -0.001036
      4      -0.000020   0.009392   0.150595  -0.001044  -0.000002  -0.031520
      5       0.020576   0.000018   0.000004   0.000000   0.000820  -0.000002
      6       0.000020  -0.036223   0.318621  -0.000147   0.000001   0.002843
      7      -0.000004   0.023136  -0.173400   0.000156  -0.000001   0.000395
      8      -0.000299   0.000000  -0.000005   0.000000   0.000202  -0.000000
      9      -0.000021  -0.454965  -0.196041  -0.036436   0.000040   0.049097
     10       0.000328   0.005323  -0.015467   0.455697  -0.000577  -0.820268
     11      -0.711512  -0.000195   0.000026   0.000221   0.020558  -0.000389
     12       0.134744   0.276722   0.169677   0.316621   0.375172   0.143852
     13       0.472778  -0.363497  -0.013987  -0.181814  -0.210490  -0.068652
     14      -0.049432   0.307605   0.082853  -0.510907  -0.557150  -0.239508
     15      -0.135196   0.276478   0.169739   0.316538  -0.375537   0.144250
     16      -0.472497  -0.363614  -0.013856  -0.182124   0.211101  -0.069047
     17      -0.049433  -0.308101  -0.082940   0.510162  -0.557001   0.239829
     18      -0.000026   0.096026   0.380360  -0.003235   0.000001   0.007754
     19      -0.000015   0.006405   0.174903   0.015669   0.000017   0.383874
     20      -0.047731  -0.000009   0.000014   0.000002  -0.001633   0.000032
     21      -0.000015   0.127100   0.046827   0.007298  -0.000008  -0.046683
     22       0.000056  -0.269345   0.422787   0.005842  -0.000006  -0.027660
     23      -0.000602  -0.000035   0.000041   0.000001  -0.000497  -0.000003
     24      -0.000091   0.287206  -0.417965  -0.001381   0.000001   0.004307
     25      -0.000004   0.025312  -0.226969  -0.011448   0.000015   0.018775
     26      -0.012713   0.000006  -0.000007  -0.000001   0.000951   0.000004
                 24         25         26    
      0      -0.008620   0.009855  -0.001196
      1       0.024240  -0.022358   0.001225
      2       0.000004  -0.000003   0.000001
      3       0.004089   0.006196  -0.000368
      4       0.047353  -0.061894   0.013137
      5       0.000004  -0.000004   0.000001
      6      -0.040604  -0.031330   0.058628
      7       0.027047   0.039212   0.078217
      8       0.000003   0.000004   0.000007
      9       0.012849  -0.013954  -0.002555
     10      -0.248606   0.221402  -0.016435
     11      -0.000118   0.000105  -0.000007
     12       0.044421  -0.050971   0.004777
     13      -0.020352   0.022068  -0.002487
     14      -0.072020   0.076893  -0.005442
     15       0.044524  -0.051081   0.004784
     16      -0.020461   0.022183  -0.002494
     17       0.072088  -0.076963   0.005441
     18      -0.017759   0.016281  -0.003043
     19      -0.580450   0.696112  -0.126912
     20      -0.000041   0.000052  -0.000010
     21       0.452389   0.276913  -0.702771
     22       0.252849   0.157518  -0.368598
     23       0.000015   0.000009  -0.000022
     24       0.001400   0.004885   0.018855
     25      -0.558328  -0.582603  -0.586218
     26      -0.000056  -0.000060  -0.000063


-----------
IR SPECTRUM
-----------

 Mode   freq       eps      Int      T**2         TX        TY        TZ
       cm**-1   L/(mol*cm) km/mol    a.u.
----------------------------------------------------------------------------
  6:    218.55   0.000151    0.77  0.000216  ( 0.000003  0.000012 -0.014702)
  7:    432.88   0.000216    1.09  0.000155  ( 0.012454 -0.000625  0.000000)
  8:    589.73   0.002704   13.67  0.001431  (-0.000004  0.000004 -0.037827)
  9:    925.97   0.000821    4.15  0.000277  ( 0.014690 -0.007750  0.001000)
 10:    926.36   0.009583   48.43  0.003228  (-0.000258  0.000130  0.056818)
 11:    946.28   0.000724    3.66  0.000239  (-0.012695  0.008813  0.000024)
 12:   1026.44   0.002592   13.10  0.000788  ( 0.000016 -0.000005 -0.028074)
 13:   1064.31   0.000348    1.76  0.000102  ( 0.000008  0.000001  0.010100)
 14:   1191.60   0.000083    0.42  0.000022  ( 0.004566  0.000934 -0.000002)
 15:   1326.32   0.000006    0.03  0.000002  ( 0.000517 -0.001111  0.000000)
 16:   1395.42   0.000528    2.67  0.000118  (-0.007526 -0.007832  0.000004)
 17:   1441.62   0.000232    1.17  0.000050  (-0.006785 -0.002049  0.000006)
 18:   1470.53   0.001640    8.29  0.000348  (-0.000015  0.000017 -0.018655)
 19:   1485.85   0.003276   16.56  0.000688  ( 0.014423 -0.021909 -0.000017)
 20:   1697.66   0.003424   17.30  0.000629  (-0.024994  0.002160  0.000000)
 21:   2996.91   0.004950   25.01  0.000515  (-0.022402 -0.003686  0.000008)
 22:   3053.82   0.003396   17.16  0.000347  ( 0.000010  0.000003  0.018628)
 23:   3087.90   0.001365    6.90  0.000138  (-0.004387  0.010896 -0.000000)
 24:   3112.77   0.005882   29.73  0.000590  (-0.006971  0.023261  0.000002)
 25:   3118.58   0.001524    7.70  0.000152  (-0.005074 -0.011258 -0.000002)
 26:   3204.23   0.003241   16.38  0.000316  ( 0.009595  0.014953  0.000002)

* The epsilon (eps) is given for a Dirac delta lineshape.
** The dipole moment derivative (T) already includes vibrational overlap.

The first frequency considered to be a vibration is 6
The total number of vibrations considered is 21


--------------------------
THERMOCHEMISTRY AT 298.15K
--------------------------

Temperature         ...   298.15 K
Pressure            ...     1.00 atm
Total Mass          ...    42.08 AMU
Quasi RRHO          ...     True
Cut-Off Frequency   ...     1.00 cm^-1

Throughout the following assumptions are being made:
  (1) The electronic state is orbitally nondegenerate
  (2) There are no thermally accessible electronically excited states
  (3) Hindered rotations indicated by low frequency modes are not
      treated as such but are treated as vibrations and this may
      cause some error
  (4) All equations used are the standard statistical mechanics
      equations for an ideal gas
  (5) All vibrations are strictly harmonic

freq.     218.55  E(vib)   ...       0.33 
freq.     432.88  E(vib)   ...       0.17 
freq.     589.73  E(vib)   ...       0.10 
freq.     925.97  E(vib)   ...       0.03 
freq.     926.36  E(vib)   ...       0.03 
freq.     946.28  E(vib)   ...       0.03 
freq.    1026.44  E(vib)   ...       0.02 
freq.    1064.31  E(vib)   ...       0.02 
freq.    1191.60  E(vib)   ...       0.01 
freq.    1326.32  E(vib)   ...       0.01 
freq.    1395.42  E(vib)   ...       0.00 
freq.    1441.62  E(vib)   ...       0.00 
freq.    1470.53  E(vib)   ...       0.00 
freq.    1485.85  E(vib)   ...       0.00 
freq.    1697.66  E(vib)   ...       0.00 
freq.    2996.91  E(vib)   ...       0.00 
freq.    3053.82  E(vib)   ...       0.00 
freq.    3087.90  E(vib)   ...       0.00 
freq.    3112.77  E(vib)   ...       0.00 
freq.    3118.58  E(vib)   ...       0.00 
freq.    3204.23  E(vib)   ...       0.00 

------------
INNER ENERGY
------------

The inner energy is: U= E(el) + E(ZPE) + E(vib) + E(rot) + E(trans)
    E(el)   - is the total energy from the electronic structure calculation
              = E(kin-el) + E(nuc-el) + E(el-el) + E(nuc-nuc)
    E(ZPE)  - the the zero temperature vibrational energy from the frequency calculation
    E(vib)  - the the finite temperature correction to E(ZPE) due to population
              of excited vibrational states
    E(rot)  - is the rotational thermal energy
    E(trans)- is the translational thermal energy

Summary of contributions to the inner energy U:
Electronic energy                ...   -117.86911916 Eh
Zero point energy                ...      0.07908373 Eh      49.63 kcal/mol
Thermal vibrational correction   ...      0.00123592 Eh       0.78 kcal/mol
Thermal rotational correction    ...      0.00141627 Eh       0.89 kcal/mol
Thermal translational correction ...      0.00141627 Eh       0.89 kcal/mol
-----------------------------------------------------------------------
Total thermal energy                   -117.78596697 Eh


Summary of corrections to the electronic energy:
(perhaps to be used in another calculation)
Total thermal correction                  0.00406846 Eh       2.55 kcal/mol
Non-thermal (ZPE) correction              0.07908373 Eh      49.63 kcal/mol
-----------------------------------------------------------------------
Total correction                          0.08315219 Eh      52.18 kcal/mol


--------
ENTHALPY
--------

The enthalpy is H = U + kB*T
                kB is Boltzmann's constant
Total thermal energy              ...   -117.78596697 Eh 
Thermal Enthalpy correction       ...      0.00094421 Eh       0.59 kcal/mol
-----------------------------------------------------------------------
Total Enthalpy                    ...   -117.78502276 Eh


Note: Only C1 symmetry has been detected, increase convergence thresholds 
      if your molecule has a higher symmetry. Symmetry factor of 1.0 is   
      used for the rotational entropy correction. 
 

Note: Rotational entropy computed according to Herzberg 
Infrared and Raman Spectra, Chapter V,1, Van Nostrand Reinhold, 1945 
Point Group:  C1, Symmetry Number:   1  
Rotational constants in cm-1:     1.561403     0.311133     0.272507 

Vibrational entropy computed according to the QRRHO of S. Grimme
Chem.Eur.J. 2012 18 9955 using a reference frequency of 100.0 cm-1


-------
ENTROPY
-------

The entropy contributions are T*S = T*(S(el)+S(vib)+S(rot)+S(trans))
     S(el)   - electronic entropy
     S(vib)  - vibrational entropy
     S(rot)  - rotational entropy
     S(trans)- translational entropy
The entropies will be listed as multiplied by the temperature to get
units of energy

Electronic entropy                ...      0.00000000 Eh      0.00 kcal/mol
Vibrational entropy               ...      0.00187700 Eh      1.18 kcal/mol
Rotational entropy                ...      0.01046540 Eh      6.57 kcal/mol
Translational entropy             ...      0.01764535 Eh     11.07 kcal/mol
-----------------------------------------------------------------------
Final entropy term                ...      0.02998776 Eh     18.82 kcal/mol

In case the symmetry of your molecule has not been determined correctly
or in case you have a reason to use a different symmetry number we print 
out the resulting rotational entropy values for sn=1,12:

 non-linear molecules -----------------------------------
|  sn= 1 | S(rot)=       0.01046540 Eh      6.57 kcal/mol|
|  sn= 2 | S(rot)=       0.00981094 Eh      6.16 kcal/mol|
|  sn= 3 | S(rot)=       0.00942811 Eh      5.92 kcal/mol|
|  sn= 4 | S(rot)=       0.00915648 Eh      5.75 kcal/mol|
|  sn= 5 | S(rot)=       0.00894580 Eh      5.61 kcal/mol|
|  sn= 6 | S(rot)=       0.00877365 Eh      5.51 kcal/mol|
|  sn= 7 | S(rot)=       0.00862811 Eh      5.41 kcal/mol|
|  sn= 8 | S(rot)=       0.00850203 Eh      5.34 kcal/mol|
|  sn= 9 | S(rot)=       0.00839082 Eh      5.27 kcal/mol|
|  sn=10 | S(rot)=       0.00829134 Eh      5.20 kcal/mol|
|  sn=11 | S(rot)=       0.00820135 Eh      5.15 kcal/mol|
|  sn=12 | S(rot)=       0.00811920 Eh      5.09 kcal/mol|
 linear molecules ---------------------------------------
|  Dinfh | S(rot)=       0.00655333 Eh      4.11 kcal/mol|
|  Cinfv | S(rot)=       0.00720778 Eh      4.52 kcal/mol|
 --------------------------------------------------------


-------------------
GIBBS FREE ENERGY
-------------------

The Gibbs free energy is G = H - T*S

Total enthalpy                    ...   -117.78502276 Eh 
Total entropy correction          ...     -0.02998776 Eh    -18.82 kcal/mol
-----------------------------------------------------------------------
Final Gibbs free energy         ...   -117.81501052 Eh

For completeness - the Gibbs free energy minus the electronic energy
G-E(el)                           ...      0.05410864 Eh     33.95 kcal/mol


Maximum memory used throughout the entire PROP-calculation: 28.2 MB

--------------------------------
SUGGESTED CITATIONS FOR THIS RUN
--------------------------------

Below you find a list of papers that are relevant to this ORCA run
We neither can nor want to force you to cite these papers, but we appreciate if you do
You receive ORCA, which is the product of decades of hard work by many enthusiastic individuals, for free
The only thing we kindly ask in return is that you cite our papers,
We deeply appreciate it, if you show your appreciation for ORCA by not just citing the generic ORCA reference.

Please note that relegating all ORCA citations to the supporting information does *not* help us.
SI sections are not indexed - citations you put there will not count into any citation statistics
But we need these citations in order to attract the funding resources that allow us to do what we are doing

Therefore, if you are a happy ORCA user, please consider citing a few of the papers listed below in the main body of your paper

In addition to the list printed below, the program has created the file vacuum_censo.bibtex that contains the list in bibtex format
You can import this file easily into all common literature databanks and citation aid programs


List of essential papers. We consider these as the minimum necessary citations

  1. Neese,F.
     Software update: the ORCA program system, version 5.0
     WIRES Comput. Molec. Sci., 2022 12(1)e1606
     doi.org/10.1002/wcms.1606
  2. Grimme,S.; Hansen,A.; Ehlert,S.; Mewes,J.
     r2SCAN-3c: A 'Swiss army knife' composite electronic-structure method
     J. Chem. Phys., 2021 154 064103
     doi.org/10.1063/5.0040021

List of papers to cite with high priority. The work reported in these papers was absolutely
necessary for this run to complete.
Our perspective: the developers of density functionals and basis sets usually get cited in chemistry papers
Good! But without the algorithms to do something with them, the functionals or basis sets would not do anything.
Hence, in our opinion, the algorithm design and method developments papers are equally worthy of getting cited

  1. Neese,F.
     An improvement of the resolution of the identity approximation for the formation of the Coulomb matrix
     J. Comp. Chem., 2003 24(14)1740-1747
     doi.org/10.1002/jcc.10318
  2. Bykov,D.; Petrenko,T.; Izsak,R.; Kossmann,S.; Becker,U.; Valeev,E.; Neese,F.
     Efficient implementation of the analytic second derivatives of Hartree-Fock and hybrid DFT energies: a detailed analysis of different approximations
     Molec. Phys., 2015 113 1961-1977
     doi.org/10.1080/00268976.2015.1025114
  3. Neese,F.
     The SHARK Integral Generation and Digestion System
     J. Comp. Chem., 2022  1-16
     doi.org/10.1002/jcc.26942
  4. Lehtola,S.; Steigemann,C.; Oliveira,M.; Marques,M.
     Recent developments in Libxc - A comprehensive library of functionals for density functional theory
     Software X, 2018 7 
     doi.org/10.1016/j.softx.2017.11.002
  5. Caldeweyher,E.; Bannwarth,C.; Grimme,S.
     Extension of the D3 dispersion coefficient model
     J. Chem. Phys., 2017 147 034112-XXXX
     doi.org/10.1063/1.4993215
  6. Caldeweyher,E.; Ehlert,S.; Hansen,A.; Neugebauer,H.; Spicher,S.; Bannwarth,C.; Grimme,S.
     A generally applicable atomic-charge dependent London dispersion correction
     J. Chem. Phys., 2019 150 154122-XXXX
     doi.org/10.1063/1.5090222
  7. Caldeweyher,E.; Mewes,J.; Ehlert,S.; Grimme,S.
     Extension and evaluation of the D4 London-dispersion model for periodic systems
     Phys. Chem. Chem. Phys., 2020 22(16)8499-8512
     doi.org/10.1039/D0CP00502A

List of suggested additional citations. These are papers that are important in the 'surrounding' of 
of this run, or papers that preceded the highly important papers. If you like your results we are grateful for a citation.

  1. Neese,F.
     The ORCA program system
     WIRES Comput. Molec. Sci., 2012 2(1)73-78
     doi.org/10.1002/wcms.81
  2. Neese,F.
     Software update: the ORCA program system, version 4.0
     WIRES Comput. Molec. Sci., 2018 8(1)1-6
     doi.org/10.1002/wcms.1327
  3. Neese,F.; Wennmohs,F.; Becker,U.; Riplinger,C.
     The ORCA quantum chemistry program package
     J. Chem. Phys., 2020 152 Art. No. L224108
     doi.org/10.1063/5.0004608

List of optional additional citations

  1. Neese,F.
     Approximate second-order SCF convergence for spin unrestricted wavefunctions
     Chem. Phys. Lett., 2000 325(1-3)93-98
     doi.org/10.1016/s0009-2614(00)00662-x

Timings for individual modules:

Sum of individual times          ...      101.906 sec (=   1.698 min)
Startup calculation              ...        0.572 sec (=   0.010 min)   0.6 %
SCF iterations                   ...       10.843 sec (=   0.181 min)  10.6 %
Property integrals               ...       47.419 sec (=   0.790 min)  46.5 %
SCF Response                     ...       22.831 sec (=   0.381 min)  22.4 %
Property calculations            ...       20.240 sec (=   0.337 min)  19.9 %
                             ****ORCA TERMINATED NORMALLY****
TOTAL RUN TIME: 0 days 0 hours 1 minutes 42 seconds 563 msec
