
                                 *****************
                                 * O   R   C   A *
                                 *****************

                                            #,                                       
                                            ###                                      
                                            ####                                     
                                            #####                                    
                                            ######                                   
                                           ########,                                 
                                     ,,################,,,,,                         
                               ,,#################################,,                 
                          ,,##########################################,,             
                       ,#########################################, ''#####,          
                    ,#############################################,,   '####,        
                  ,##################################################,,,,####,       
                ,###########''''           ''''###############################       
              ,#####''   ,,,,##########,,,,          '''####'''          '####       
            ,##' ,,,,###########################,,,                        '##       
           ' ,,###''''                  '''############,,,                           
         ,,##''                                '''############,,,,        ,,,,,,###''
      ,#''                                            '''#######################'''  
     '                                                          ''''####''''         
             ,#######,   #######,   ,#######,      ##                                
            ,#'     '#,  ##    ##  ,#'     '#,    #''#        ,####,   ,####,        
            ##       ##  ##   ,#'  ##            #'  '#       #'       #'  '#        
            ##       ##  #######   ##           ,######,      #####,   #    #        
            '#,     ,#'  ##    ##  '#,     ,#' ,#      #,     #,   #   #,  ,#        
             '#######'   ##     ##  '#######'  #'      '#     '####' # '####'        



                #########################################################
                #                        -***-                          #
                #          Department of theory and spectroscopy        #
                #                                                       #
                #                      Frank Neese                      #
                #                                                       #
                #     Directorship, Architecture, Infrastructure        #
                #                    SHARK, DRIVERS                     #
                #        Core code/Algorithms in most modules           #
                #                                                       #
                #        Max Planck Institute fuer Kohlenforschung      #
                #                Kaiser Wilhelm Platz 1                 #
                #                 D-45470 Muelheim/Ruhr                 #
                #                      Germany                          #
                #                                                       #
                #                  All rights reserved                  #
                #                        -***-                          #
                #########################################################


                         Program Version 6.0.1  -  RELEASE   -


 With contributions from (in alphabetic order):
[Max-Planck-Institut fuer Kohlenforschung]                               
  Daniel Aravena         : Magnetic Suceptibility                        
  Michael Atanasov       : Ab Initio Ligand Field Theory (pilot matlab implementation)
  Alexander A. Auer      : GIAO ZORA, VPT2 properties, NMR spectrum      
  Ute Becker             : All parallelization in ORCA, NUMFREQ, NUMCALC 
  Giovanni Bistoni       : ED, misc. LED, open-shell LED, HFLD           
  Martin Brehm           : Molecular dynamics                            
  Dmytro Bykov           : pre 5.0 version of the SCF Hessian            
  Marcos Casanova-Páez   : Triplet and SCS-CIS(D). UHF-(DLPNO)-IP/EA/STEOM-CCSD. UHF-CVS-IP/STEOM-CCSD   
  Vijay G. Chilkuri      : MRCI spin determinant printing, contributions to CSF-ICE 
  Pauline Colinet        : FMM embedding                                 
  Dipayan Datta          : RHF DLPNO-CCSD density                        
  Achintya Kumar Dutta   : EOM-CC, STEOM-CC                              
  Nicolas Foglia         : Exact transition moments, OPA infrastructure, MCD improvements    
  Dmitry Ganyushin       : Spin-Orbit,Spin-Spin,Magnetic field MRCI      
  Miquel Garcia-Rates    : C-PCM and meta-GGA Hessian, CCSD/C-PCM, Gaussian charge scheme 
  Tiago L. C. Gouveia    : GS-ROHF, GS-ROCIS                             
  Yang Guo               : DLPNO-NEVPT2, F12-NEVPT2, CIM, IAO-localization        
  Andreas Hansen         : Spin unrestricted coupled pair/coupled cluster methods 
  Ingolf Harden          : AUTO-CI MPn and infrastructure                
  Benjamin Helmich-Paris : MC-RPA, TRAH-(SCF,CASSCF), AVAS, COSX integrals, SCF dyn. polar. 
  Lee Huntington         : MR-EOM, pCC                                   
  Robert Izsak           : Overlap fitted RIJCOSX, COSX-SCS-MP3, EOM     
  Riya Kayal             : Wick's Theorem for AUTO-CI, AUTO-CI UHF-CCSDT 
  Emily Kempfer          : AUTO-CI, RHF CISDT and CCSDT                  
  Christian Kollmar      : KDIIS, OOCD, Brueckner-CCSD(T), CCSD density, CASPT2, CASPT2-K, improved NEVPT2 
  Axel Koslowski         : Symmetry handling                             
  Simone Kossmann        : meta-GGA functionals, TD-DFT gradient, OOMP2, (MP2 Hessian; deprecated post 5.0) 
  Lucas Lang             : DCDCAS                                        
  Marvin Lechner         : AUTO-CI (C++ implementation), FIC-MRCC        
  Spencer Leger          : CASSCF response                               
  Dagmar Lenk            : GEPOL surface, SMD, ORCA-2-JSON               
  Dimitrios Liakos       : Extrapolation schemes; Compound Job, initial MDCI parallelization 
  Dimitrios Manganas     : Further ROCIS development; embedding schemes. LFT, Crystal Embedding 
  Dimitrios Pantazis     : SARC Basis sets                               
  Anastasios Papadopoulos: AUTO-CI, single reference methods and gradients 
  Taras Petrenko         : pre 6.0 DFT Hessian and TD-DFT gradient, (ASA, deprecated), ECA, 1-Electron XAS/XES, NRVS 
  Peter Pinski           : DLPNO-MP2, DLPNO-MP2 Gradient                 
  Christoph Reimann      : Effective Core Potentials                     
  Marius Retegan         : Local ZFS, SOC                                
  Christoph Riplinger    : Optimizer, TS searches, QM/MM, DLPNO-CCSD(T), (RO)-DLPNO pert. Triples 
  Michael Roemelt        : Original ROCIS implementation                 
  Masaaki Saitow         : Open-shell DLPNO-CCSD energy and density      
  Barbara Sandhoefer     : DKH picture change effects                    
  Kantharuban Sivalingam : CASSCF convergence/infrastructure, NEVPT2 and variants, FIC-MRCI 
  Bernardo de Souza      : ESD, SOC TD-DFT                               
  Georgi L. Stoychev     : AutoAux, RI-MP2 NMR, DLPNO-MP2 response, X2C  
  Van Anh Tran           : RI-MP2 g-tensors                              
  Willem Van den Heuvel  : Paramagnetic NMR                              
  Zikuan Wang            : NOTCH, Electric field optimization            
  Frank Wennmohs         : Technical directorship and infrastructure     
  Hang Xu                : AUTO-CI-Response properties                   
                                                                         
[FACCTs GmbH]                                                            
  Markus Bursch, Miquel Garcia-Rates, Christoph Riplinger, Bernardo de Souza, Georgi L. Stoychev 
                                                                 
  APM, Basis sets (HGBS, AHGBS, def-TZVP (Ac-Lr), def2-XVPD (La-Lu)), CI-OPT, improved COSX, DLPNO-Multilevel,           
  DOCKER, DRACO, updates on ESD, GOAT, IRC, LR-CPCM, MBIS, meta-GGA TD-DFT gradient, ML-optimized integration grids, 
  MM, NACMEs, nearIR, NEB, NEB-TS, NL-DFT gradient (VV10), 2- and 3-layer-ONIOM, interface openCOSMO-RS, QMMM,   
  Crystal-QMMM, SF, symmetry and pop. for TD-DFT, r2SCAN hybrids, SOLVATOR                                   
                                                                         
[Other institutions]                                                     
  V. Asgeirsson          : NEB                                           
  Christoph Bannwarth    : sTDA-DFT, sTD-DFT, PBEh-3c, B97-3c, D3        
  Sebastian Ehlert       : rSCAN, r2SCAN, r2SCAN-3c, D4, dhf basis sets  
  Marvin Friede          : D4 for Fr, Ra, Ac-Lr                          
  Lars Goerigk           : TD-DFT with DH, B97 family of functionals     
  Stefan Grimme          : VdW corrections, initial TS optimization, DFT functionals, gCP, sTDA/sTD-DF 
  Waldemar Hujo          : DFT-NL                                        
  H. Jonsson             : NEB                                           
  Holger Kruse           : gCP                                           
  Marcel Mueller         : wB97X-3c, vDZP basis set                      
  Hagen Neugebauer       : wr2SCAN                                       
  Tobias Risthaus        : range-separated hybrid DFT                    
  Lukas Wittmann         : regularized MP2, r2SCAN double-hybrids, wr2SCAN        
                                                                         
We gratefully acknowledge several colleagues who have allowed us to      
interface, adapt or use parts of their codes:                            
  Ed Valeev, F. Pavosevic, A. Kumar             : LibInt (2-el integral package), F12 methods 
  Garnet Chan, S. Sharma, J. Yang, R. Olivares  : DMRG                   
  Ulf Ekstrom                                   : XCFun DFT Library      
  Mihaly Kallay                                 : mrcc  (arbitrary order and MRCC methods)
  Frank Weinhold                                : gennbo (NPA and NBO analysis)           
  Simon Mueller                                 : openCOSMO-RS                            
  Christopher J. Cramer and Donald G. Truhlar   : smd solvation model                     
  S Lehtola, MJT Oliveira, MAL Marques          : LibXC Library                           
  Liviu Ungur et al                             : ANISO software                          


 Your calculation uses the libint2 library for the computation of 2-el integrals
 For citations please refer to: http://libint.valeyev.net

 Your ORCA version has been built with support for libXC version: 6.2.2
 For citations please refer to: https://libxc.gitlab.io

 This ORCA versions uses:
   CBLAS   interface :  Fast vector & matrix operations
   LAPACKE interface :  Fast linear algebra routines
   SCALAPACK package :  Parallel linear algebra routines
   Shared memory     :  Shared parallel matrices
   BLAS/LAPACK       :  OpenBLAS 0.3.27  USE64BITINT DYNAMIC_ARCH NO_AFFINITY Zen SINGLE_THREADED
        Core in use  :  Zen
   Copyright (c) 2011-2014, The OpenBLAS Project


Your calculation utilizes the geometrical counterpoise correction gCP
Please cite in your paper:
H.Kruse, S. Grimme J.Chem.Phys., 136, (2012), 154101 
   

Your calculation utilizes the atom-pairwise dispersion correction
based on EEQ partial charges (D4)


================================================================================

----- Orbital basis set information -----
Your calculation utilizes the basis: def2-SV(P)
   F. Weigend and R. Ahlrichs, Phys. Chem. Chem. Phys. 7, 3297 (2005).

----- AuxJ basis set information -----
Your calculation utilizes the auxiliary basis: def2/J
   F. Weigend, Phys. Chem. Chem. Phys. 8, 1057 (2006).

================================================================================
                                        WARNINGS
                       Please study these warnings very carefully!
================================================================================


================================================================================
                                       INPUT FILE
================================================================================
NAME = sp.inp
|  1> ! pbe def2-sv(p) def2/J RI DEFGRID1 loosescf d4 GCP(DFT/SV(P)) printgap
|  2> %output
|  3>     printlevel normal
|  4> end
|  5> * xyz 0 1
|  6> C -2.0354053347 -1.4196788601 -0.0835359679
|  7> C -0.9857306478 -0.5339234785 0.6056095755
|  8> H -1.4137241424 -0.1711602249 1.5493223019
|  9> C -0.6440278831 0.6822752281 -0.2648357047
| 10> H -0.549176943 0.3761666294 -1.3184529466
| 11> C 0.7004494638 1.2630863316 0.1905079314
| 12> H 0.6333662184 1.4639832686 1.2761615911
| 13> C 1.8105798094 0.2325770315 -0.0604785842
| 14> H 2.1773078725 0.3568456908 -1.0831425369
| 15> C 1.2486867755 -1.2050201774 0.0761326818
| 16> H 2.0227636665 -1.8279478477 0.5503857566
| 17> O 0.1605459129 -1.2898890965 0.9645994151
| 18> O 0.9277133479 -1.6825185662 -1.1951384634
| 19> O 2.9202082124 0.4137497869 0.7711286732
| 20> O 0.9947880604 2.4448736752 -0.4970916471
| 21> O -1.6158673502 1.6919932686 -0.1363487563
| 22> O -3.215823261 -0.6552923487 -0.2293188956
| 23> H -2.2124439715 -2.305909973 0.539215929
| 24> H -1.6583144076 -1.7389204558 -1.0640566569
| 25> H 0.7293756947 -2.6253160366 -1.1408633419
| 26> H 2.6233517488 0.4786519223 1.6871025829
| 27> H 0.177557798 2.9601081983 -0.5313976343
| 28> H -2.4813823502 1.2744488905 -0.2451412855
| 29> H -3.8988668063 -1.2046559239 -0.6272844668
| 30> *
| 31> 
| 32>                          ****END OF INPUT****
================================================================================

                       ****************************
                       * Single Point Calculation *
                       ****************************

---------------------------------
CARTESIAN COORDINATES (ANGSTROEM)
---------------------------------
  C     -2.035405   -1.419679   -0.083536
  C     -0.985731   -0.533923    0.605610
  H     -1.413724   -0.171160    1.549322
  C     -0.644028    0.682275   -0.264836
  H     -0.549177    0.376167   -1.318453
  C      0.700449    1.263086    0.190508
  H      0.633366    1.463983    1.276162
  C      1.810580    0.232577   -0.060479
  H      2.177308    0.356846   -1.083143
  C      1.248687   -1.205020    0.076133
  H      2.022764   -1.827948    0.550386
  O      0.160546   -1.289889    0.964599
  O      0.927713   -1.682519   -1.195138
  O      2.920208    0.413750    0.771129
  O      0.994788    2.444874   -0.497092
  O     -1.615867    1.691993   -0.136349
  O     -3.215823   -0.655292   -0.229319
  H     -2.212444   -2.305910    0.539216
  H     -1.658314   -1.738920   -1.064057
  H      0.729376   -2.625316   -1.140863
  H      2.623352    0.478652    1.687103
  H      0.177558    2.960108   -0.531398
  H     -2.481382    1.274449   -0.245141
  H     -3.898867   -1.204656   -0.627284

----------------------------
CARTESIAN COORDINATES (A.U.)
----------------------------
  NO LB      ZA    FRAG     MASS         X           Y           Z
   0 C     6.0000    0    12.011   -3.846359   -2.682804   -0.157860
   1 C     6.0000    0    12.011   -1.862761   -1.008969    1.144436
   2 H     1.0000    0     1.008   -2.671551   -0.323446    2.927795
   3 C     6.0000    0    12.011   -1.217036    1.289313   -0.500467
   4 H     1.0000    0     1.008   -1.037794    0.710852   -2.491515
   5 C     6.0000    0    12.011    1.323658    2.386887    0.360008
   6 H     1.0000    0     1.008    1.196889    2.766527    2.411596
   7 C     6.0000    0    12.011    3.421500    0.439507   -0.114288
   8 H     1.0000    0     1.008    4.114516    0.674341   -2.046843
   9 C     6.0000    0    12.011    2.359676   -2.277158    0.143870
  10 H     1.0000    0     1.008    3.822469   -3.454321    1.040078
  11 O     8.0000    0    15.999    0.303388   -2.437537    1.822829
  12 O     8.0000    0    15.999    1.753124   -3.179499   -2.258484
  13 O     8.0000    0    15.999    5.518394    0.781874    1.457222
  14 O     8.0000    0    15.999    1.879877    4.620142   -0.939367
  15 O     8.0000    0    15.999   -3.053547    3.197404   -0.257662
  16 O     8.0000    0    15.999   -6.077025   -1.238323   -0.433350
  17 H     1.0000    0     1.008   -4.180913   -4.357538    1.018970
  18 H     1.0000    0     1.008   -3.133760   -3.286083   -2.010776
  19 H     1.0000    0     1.008    1.378320   -4.961128   -2.155919
  20 H     1.0000    0     1.008    4.957416    0.904521    3.188162
  21 H     1.0000    0     1.008    0.335536    5.593794   -1.004196
  22 H     1.0000    0     1.008   -4.689133    2.408359   -0.463250
  23 H     1.0000    0     1.008   -7.367790   -2.276470   -1.185396

--------------------------------
INTERNAL COORDINATES (ANGSTROEM)
--------------------------------
 C      0   0   0     0.000000000000     0.00000000     0.00000000
 C      1   0   0     1.536652571123     0.00000000     0.00000000
 H      2   1   0     1.097893127564   108.03873105     0.00000000
 C      2   1   3     1.534136584259   110.77208645   241.63193124
 H      4   2   1     1.101275836230   109.97807692   317.86326236
 C      4   2   1     1.533720542085   109.08759473   199.23556588
 H      6   4   2     1.106120974365   107.87914144   305.85558406
 C      6   4   2     1.535360880323   109.33683506    64.30904134
 H      8   6   4     1.093514395013   108.60783200    87.03298565
 C      8   6   4     1.549539336248   110.24864953   328.85077092
 H     10   8   6     1.100976791110   107.93552559   217.18641842
 O     10   8   6     1.407347294192   113.07759122   331.34836210
 O     10   8   6     1.395406384230   108.69697384    96.54802349
 O      8   6   4     1.398452498515   112.92637283   204.27918015
 O      6   4   2     1.398588472459   111.00909062   185.28172708
 O      4   2   1     1.407306422580   111.29536235    80.35172180
 O      1   2   3     1.413833753151   107.75336687    55.73121526
 H      1   2   3     1.097528218081   108.73336526   295.18980048
 H      1   2   3     1.097967934542   109.48095356   176.07217975
 H     13  10   8     0.964961493368   109.29120531   169.84469944
 H     14   8   6     0.965061785800   109.21135324    50.69788726
 H     15   6   4     0.966699961898   106.85173640    42.97327642
 H     16   4   2     0.967106683524   107.33657080   311.21416864
 H     17   1   2     0.962665787484   109.05579545   182.29618745

---------------------------
INTERNAL COORDINATES (A.U.)
---------------------------
 C      0   0   0     0.000000000000     0.00000000     0.00000000
 C      1   0   0     2.903852522409     0.00000000     0.00000000
 H      2   1   0     2.074717335410   108.03873105     0.00000000
 C      2   1   3     2.899097996279   110.77208645   241.63193124
 H      4   2   1     2.081109728381   109.97807692   317.86326236
 C      4   2   1     2.898311790510   109.08759473   199.23556588
 H      6   4   2     2.090265712535   107.87914144   305.85558406
 C      6   4   2     2.901411580548   109.33683506    64.30904134
 H      8   6   4     2.066442730076   108.60783200    87.03298565
 C      8   6   4     2.928204979247   110.24864953   328.85077092
 H     10   8   6     2.080544615001   107.93552559   217.18641842
 O     10   8   6     2.659500961338   113.07759122   331.34836210
 O     10   8   6     2.636935911720   108.69697384    96.54802349
 O      8   6   4     2.642692233492   112.92637283   204.27918015
 O      6   4   2     2.642949187007   111.00909062   185.28172708
 O      4   2   1     2.659423725184   111.29536235    80.35172180
 O      1   2   3     2.671758592350   107.75336687    55.73121526
 H      1   2   3     2.074027756424   108.73336526   295.18980048
 H      1   2   3     2.074858700112   109.48095356   176.07217975
 H     13  10   8     1.823512952246   109.29120531   169.84469944
 H     14   8   6     1.823702477475   109.21135324    50.69788726
 H     15   6   4     1.826798181660   106.85173640    42.97327642
 H     16   4   2     1.827566774146   107.33657080   311.21416864
 H     17   1   2     1.819174696841   109.05579545   182.29618745

---------------------
BASIS SET INFORMATION
---------------------
There are 3 groups of distinct atoms

 Group   1 Type C   : 7s4p1d contracted to 3s2p1d pattern {511/31/1}
 Group   2 Type H   : 4s contracted to 2s pattern {31}
 Group   3 Type O   : 7s4p1d contracted to 3s2p1d pattern {511/31/1}

Atom   0C    basis set group =>   1
Atom   1C    basis set group =>   1
Atom   2H    basis set group =>   2
Atom   3C    basis set group =>   1
Atom   4H    basis set group =>   2
Atom   5C    basis set group =>   1
Atom   6H    basis set group =>   2
Atom   7C    basis set group =>   1
Atom   8H    basis set group =>   2
Atom   9C    basis set group =>   1
Atom  10H    basis set group =>   2
Atom  11O    basis set group =>   3
Atom  12O    basis set group =>   3
Atom  13O    basis set group =>   3
Atom  14O    basis set group =>   3
Atom  15O    basis set group =>   3
Atom  16O    basis set group =>   3
Atom  17H    basis set group =>   2
Atom  18H    basis set group =>   2
Atom  19H    basis set group =>   2
Atom  20H    basis set group =>   2
Atom  21H    basis set group =>   2
Atom  22H    basis set group =>   2
Atom  23H    basis set group =>   2
---------------------------------
AUXILIARY/J BASIS SET INFORMATION
---------------------------------
There are 3 groups of distinct atoms

 Group   1 Type C   : 12s5p4d2f1g contracted to 6s4p3d1f1g pattern {711111/2111/211/2/1}
 Group   2 Type H   : 5s2p1d contracted to 3s1p1d pattern {311/2/1}
 Group   3 Type O   : 12s5p4d2f1g contracted to 6s4p3d1f1g pattern {711111/2111/211/2/1}

Atom   0C    basis set group =>   1
Atom   1C    basis set group =>   1
Atom   2H    basis set group =>   2
Atom   3C    basis set group =>   1
Atom   4H    basis set group =>   2
Atom   5C    basis set group =>   1
Atom   6H    basis set group =>   2
Atom   7C    basis set group =>   1
Atom   8H    basis set group =>   2
Atom   9C    basis set group =>   1
Atom  10H    basis set group =>   2
Atom  11O    basis set group =>   3
Atom  12O    basis set group =>   3
Atom  13O    basis set group =>   3
Atom  14O    basis set group =>   3
Atom  15O    basis set group =>   3
Atom  16O    basis set group =>   3
Atom  17H    basis set group =>   2
Atom  18H    basis set group =>   2
Atom  19H    basis set group =>   2
Atom  20H    basis set group =>   2
Atom  21H    basis set group =>   2
Atom  22H    basis set group =>   2
Atom  23H    basis set group =>   2
------------------------------------------------------------------------------
                             ORCA STARTUP CALCULATIONS
                           -- RI-GTO INTEGRALS CHOSEN --
------------------------------------------------------------------------------
------------------------------------------------------------------------------
                   ___                                                        
                  /   \      - P O W E R E D   B Y -                         
                 /     \                                                     
                 |  |  |   _    _      __       _____    __    __             
                 |  |  |  | |  | |    /  \     |  _  \  |  |  /  |          
                  \  \/   | |  | |   /    \    | | | |  |  | /  /          
                 / \  \   | |__| |  /  /\  \   | |_| |  |  |/  /          
                |  |  |   |  __  | /  /__\  \  |    /   |      \           
                |  |  |   | |  | | |   __   |  |    \   |  |\   \          
                \     /   | |  | | |  |  |  |  | |\  \  |  | \   \       
                 \___/    |_|  |_| |__|  |__|  |_| \__\ |__|  \__/        
                                                                              
                      - O R C A' S   B I G   F R I E N D -                    
                                      &                                       
                       - I N T E G R A L  F E E D E R -                       
                                                                              
 v1 FN, 2020, v2 2021, v3 2022-2024                                           
------------------------------------------------------------------------------


----------------------
SHARK INTEGRAL PACKAGE
----------------------

Number of atoms                             ...     24
Number of basis functions                   ...    192
Number of shells                            ...     96
Maximum angular momentum                    ...      2
Integral batch strategy                     ... SHARK/LIBINT Hybrid
RI-J (if used) integral strategy            ... SPLIT-RIJ (Revised 2003 algorithm where possible)
Printlevel                                  ...      1
Contraction scheme used                     ... SEGMENTED contraction
Prescreening option                         ... SCHWARTZ
   Thresh                                   ... 1.000e-09
   Tcut                                     ... 1.000e-10
   Tpresel                                  ... 1.000e-10 
Coulomb Range Separation                    ... NOT USED
Exchange Range Separation                   ... NOT USED
Multipole approximations                    ... NOT USED
Finite Nucleus Model                        ... NOT USED
CABS basis                                  ... NOT available
Auxiliary Coulomb fitting basis             ... AVAILABLE
   # of basis functions in Aux-J            ...    720
   # of shells in Aux-J                     ...    240
   Maximum angular momentum in Aux-J        ...      4
Auxiliary J/K fitting basis                 ... NOT available
Auxiliary Correlation fitting basis         ... NOT available
Auxiliary 'external' fitting basis          ... NOT available

Checking pre-screening integrals            ... done (  0.0 sec) Dimension = 96
Check shell pair data                       ... done (  0.0 sec)
Shell pair information
Shell pair cut-off parameter TPreSel        ...   1.0e-10
Total number of shell pairs                 ...      4656
Shell pairs after pre-screening             ...      4187
Total number of primitive shell pairs       ...     18720
Primitive shell pairs kept                  ...     11313
          la=0 lb=0:   1628 shell pairs
          la=1 lb=0:   1328 shell pairs
          la=1 lb=1:    288 shell pairs
          la=2 lb=0:    613 shell pairs
          la=2 lb=1:    264 shell pairs
          la=2 lb=2:     66 shell pairs

Calculating one electron integrals          ... done (  0.0 sec)
Calculating RI/J V-Matrix + Cholesky decomp.... done (  0.0 sec)
Calculating Nuclear repulsion               ... done (  0.0 sec) ENN=    842.003690172653 Eh

Diagonalization of the overlap matrix:
Smallest eigenvalue                        ... 6.216e-04
Time for diagonalization                   ...    0.003 sec
Threshold for overlap eigenvalues          ... 1.000e-07
Number of eigenvalues below threshold      ... 0
Time for construction of square roots      ...    0.003 sec
Total time needed                          ...    0.008 sec

-------------------
DFT GRID GENERATION
-------------------

General Integration Accuracy     IntAcc      ... 4.159
Radial Grid Type                 RadialGrid  ... OptM3 with GC (2021)
Angular Grid (max. ang.)         AngularGrid ... 3 (Lebedev-194)
Angular grid pruning method      GridPruning ... 4 (adaptive)
Weight generation scheme         WeightScheme... mBecke (2022)
Basis function cutoff            BFCut       ... 1.0000e-10
Integration weight cutoff        WCut        ... 1.0000e-14
Partially contracted basis set               ... off
Rotationally invariant grid construction     ... off
Angular grids for H and He will be reduced by one unit

Total number of grid points                  ...    55716
Total number of batches                      ...      885
Average number of points per batch           ...       62
Average number of grid points per atom       ...     2322
Initializing property integral containers    ... done (  0.0 sec)

SHARK setup successfully completed in   0.6 seconds

Maximum memory used throughout the entire STARTUP-calculation: 28.7 MB
-------------------------------------------------------------------------------
                                 ORCA GUESS
                   Start orbitals & Density for SCF / CASSCF
-------------------------------------------------------------------------------

------------
SCF SETTINGS
------------
Hamiltonian:
 Density Functional     Method          .... DFT(GTOs)
 Exchange Functional    Exchange        .... PBE
   PBE kappa parameter   XKappa         ....  0.804000
   PBE mue parameter    XMuePBE         ....  0.219520
 Correlation Functional Correlation     .... PBE
   PBE beta parameter  CBetaPBE         ....  0.066725
 LDA part of GGA corr.  LDAOpt          .... PW91-LDA
 Gradients option       PostSCFGGA      .... off
   NL short-range parameter             ....  6.400000
 RI-approximation to the Coulomb term is turned on
   Number of AuxJ basis functions       .... 720


General Settings:
 Integral files         IntName         .... sp
 Hartree-Fock type      HFTyp           .... RHF
 Total Charge           Charge          ....    0
 Multiplicity           Mult            ....    1
 Number of Electrons    NEL             ....   96
 Basis Dimension        Dim             ....  192
 Nuclear Repulsion      ENuc            ....    842.0036901727 Eh

Convergence Acceleration:
 AO-DIIS                CNVDIIS         .... on
   Start iteration      DIISMaxIt       ....    12
   Startup error        DIISStart       ....  0.200000
   # of expansion vecs  DIISMaxEq       ....     5
   Bias factor          DIISBfac        ....   1.050
   Max. coefficient     DIISMaxC        ....  10.000
 MO-DIIS                CNVKDIIS        .... off
 Trust-Rad. Augm. Hess. CNVTRAH         .... auto
   Auto Start mean grad. ratio tolernc. ....  1.125000
   Auto Start start iteration           ....    50
   Auto Start num. interpolation iter.  ....    10
   Max. Number of Micro iterations      ....    24
   Max. Number of Macro iterations      .... Maxiter - #DIIS iter
   Number of Davidson start vectors     ....     2
   Converg. threshold    (grad. norm)   ....   1.000e-04
   Grad. Scal. Fac. for Micro threshold ....   0.100
   Minimum threshold for Micro iter.    ....   1.000e-02
   NR start threshold (gradient norm)   ....   1.000e-04
   Initial trust radius                 ....   0.400
   Minimum AH scaling param. (alpha)    ....   1.000
   Maximum AH scaling param. (alpha)    .... 1000.000
   Quad. conv. algorithm                .... NR
   White noise on init. David. guess    .... on
   Maximum white noise                  ....   0.010
   Pseudo random numbers                .... off
   Inactive MOs                         .... canonical
   Orbital update algorithm             .... Taylor
   Preconditioner                       .... Diag
   Full preconditioner red. dimension   ....   250
 SOSCF                  CNVSOSCF        .... on
   Start iteration      SOSCFMaxIt      ....   150
   Startup grad/error   SOSCFStart      ....  0.003300
   Hessian update       SOSCFHessUp     .... L-BFGS
 Level Shifting         CNVShift        .... on
   Level shift para.    LevelShift      ....    0.2500
   Turn off err/grad.   ShiftErr        ....    0.0010
 Zerner damping         CNVZerner       .... off
 Static damping         CNVDamp         .... on
   Fraction old density DampFac         ....    0.7000
   Max. Damping (<1)    DampMax         ....    0.9800
   Min. Damping (>=0)   DampMin         ....    0.0000
   Turn off err/grad.   DampErr         ....    0.1000

SCF Procedure:
 Maximum # iterations   MaxIter         ....   125
 SCF integral mode      SCFMode         .... Direct
   Integral package                     .... SHARK and LIBINT hybrid scheme
 Reset frequency        DirectResetFreq ....    20
 Integral Threshold     Thresh          ....  1.000e-09 Eh
 Primitive CutOff       TCut            ....  1.000e-10 Eh

Convergence Tolerance:
 Convergence Check Mode ConvCheckMode   .... Total+1el-Energy
 Convergence forced     ConvForced      .... 0
 Energy Change          TolE            ....  1.000e-05 Eh
 1-El. energy change                    ....  1.000e-02 Eh
 Orbital Gradient       TolG            ....  1.000e-04
 Orbital Rotation angle TolX            ....  1.000e-04
 DIIS Error             TolErr          ....  5.000e-04

------------------------------
INITIAL GUESS: MODEL POTENTIAL
------------------------------
Loading Hartree-Fock densities                     ... done
Calculating cut-offs                               ... done
Initializing the effective Hamiltonian             ... done
Setting up the integral package (SHARK)            ... done
Starting the Coulomb interaction                   ... done (   0.2 sec)
Making the grid                                    ... done (   0.2 sec)
Mapping shells                                     ... done
Starting the XC term evaluation                    ... done (   0.2 sec)
  promolecular density results
     # of electrons  =     95.986783757
     EX              =    -83.243017895
     EC              =     -3.272417916
     EX+EC           =    -86.515435811
Transforming the Hamiltonian                       ... done (   0.0 sec)
Diagonalizing the Hamiltonian                      ... done (   0.0 sec)
Back transforming the eigenvectors                 ... done (   0.0 sec)
Now organizing SCF variables                       ... done
                      ------------------
                      INITIAL GUESS DONE (   0.6 sec)
                      ------------------
             **** ENERGY FILE WAS UPDATED (sp.en.tmp) ****
Finished Guess after   0.7 sec
Maximum memory used throughout the entire GUESS-calculation: 22.5 MB

-------------------------------------------------------------------------------------------
                                      ORCA LEAN-SCF
                              memory conserving SCF solver
-------------------------------------------------------------------------------------------

----------------------------------------D-I-I-S--------------------------------------------
Iteration    Energy (Eh)           Delta-E    RMSDP     MaxDP     DIISErr   Damp  Time(sec)
-------------------------------------------------------------------------------------------
               ***  Starting incremental Fock matrix formation  ***
    1    -685.5236806142384012     0.00e+00  5.13e-03  1.87e-01  2.34e-01  0.700   0.8
    2    -685.6734152612700655    -1.50e-01  3.28e-03  1.22e-01  9.28e-02  0.700   0.7
                               ***Turning on AO-DIIS***
    3    -685.7206235702337835    -4.72e-02  1.11e-03  2.70e-02  1.95e-02  0.700   0.7
    4    -685.7520968921064650    -3.15e-02  1.41e-03  2.24e-02  1.07e-02  0.000   0.7
    5    -685.8249288590945980    -7.28e-02  4.73e-04  1.73e-02  5.69e-03  0.000   0.7
                              *** Initializing SOSCF ***
---------------------------------------S-O-S-C-F--------------------------------------
Iteration    Energy (Eh)           Delta-E    RMSDP     MaxDP     MaxGrad    Time(sec)
--------------------------------------------------------------------------------------
    6    -685.8252562109485098    -3.27e-04  1.37e-04  3.34e-03  1.20e-03     0.7
               *** Restarting incremental Fock matrix formation ***
    7    -685.8252832635273535    -2.71e-05  9.92e-05  2.81e-03  1.47e-04     0.8
    8    -685.8252819546571573     1.31e-06  4.17e-05  1.14e-03  2.57e-04     0.9
                 **** Energy Check signals convergence ****

               *****************************************************
               *                     SUCCESS                       *
               *           SCF CONVERGED AFTER   8 CYCLES          *
               *****************************************************

             **** ENERGY FILE WAS UPDATED (sp.en.tmp) ****

----------------
TOTAL SCF ENERGY
----------------

Total Energy       :       -685.82528195465716 Eh          -18662.25469 eV

Components:
Nuclear Repulsion  :        842.00369017265257 Eh           22912.08524 eV
Electronic Energy  :      -1527.82897212730973 Eh          -41574.33993 eV
One Electron Energy:      -2613.25631134447440 Eh          -71110.31941 eV
Two Electron Energy:       1085.42733921716467 Eh           29535.97948 eV

Virial components:
Potential Energy   :      -1366.97265070531648 Eh          -37197.21690 eV
Kinetic Energy     :        681.14736875065944 Eh           18534.96220 eV
Virial Ratio       :          2.00686769621173

DFT components:
N(Alpha)           :       47.999778613720 electrons
N(Beta)            :       47.999778613720 electrons
N(Total)           :       95.999557227440 electrons
E(X)               :      -84.614049311544 Eh       
E(C)               :       -3.283846561052 Eh       
E(XC)              :      -87.897895872596 Eh       

---------------
SCF CONVERGENCE
---------------

  Last Energy change         ...   -1.3089e-06  Tolerance :   1.0000e-05
  Last MAX-Density change    ...    1.1424e-03  Tolerance :   1.0000e-03
  Last RMS-Density change    ...    4.1681e-05  Tolerance :   1.0000e-04
  Last DIIS Error            ...    1.2042e-03  Tolerance :   5.0000e-04
  Last Orbital Gradient      ...    2.5725e-04  Tolerance :   1.0000e-04
  Last Orbital Rotation      ...    1.4652e-04  Tolerance :   1.0000e-04


----------------
ORBITAL ENERGIES
----------------

  NO   OCC          E(Eh)            E(eV) 
   0   2.0000     -18.779344      -511.0119 
   1   2.0000     -18.774044      -510.8677 
   2   2.0000     -18.768863      -510.7267 
   3   2.0000     -18.747705      -510.1510 
   4   2.0000     -18.743721      -510.0426 
   5   2.0000     -18.735986      -509.8321 
   6   2.0000      -9.984102      -271.6812 
   7   2.0000      -9.947472      -270.6845 
   8   2.0000      -9.945005      -270.6173 
   9   2.0000      -9.936636      -270.3896 
  10   2.0000      -9.935835      -270.3678 
  11   2.0000      -9.934022      -270.3185 
  12   2.0000      -0.986061       -26.8321 
  13   2.0000      -0.952730       -25.9251 
  14   2.0000      -0.937200       -25.5025 
  15   2.0000      -0.925247       -25.1773 
  16   2.0000      -0.917990       -24.9798 
  17   2.0000      -0.906538       -24.6682 
  18   2.0000      -0.704410       -19.1680 
  19   2.0000      -0.690855       -18.7991 
  20   2.0000      -0.624904       -17.0045 
  21   2.0000      -0.581318       -15.8185 
  22   2.0000      -0.563702       -15.3391 
  23   2.0000      -0.517378       -14.0786 
  24   2.0000      -0.509550       -13.8656 
  25   2.0000      -0.495227       -13.4758 
  26   2.0000      -0.476201       -12.9581 
  27   2.0000      -0.470382       -12.7997 
  28   2.0000      -0.442707       -12.0467 
  29   2.0000      -0.419094       -11.4041 
  30   2.0000      -0.410812       -11.1788 
  31   2.0000      -0.400791       -10.9061 
  32   2.0000      -0.385408       -10.4875 
  33   2.0000      -0.380572       -10.3559 
  34   2.0000      -0.368660       -10.0317 
  35   2.0000      -0.353369        -9.6157 
  36   2.0000      -0.332220        -9.0402 
  37   2.0000      -0.321881        -8.7588 
  38   2.0000      -0.307086        -8.3562 
  39   2.0000      -0.291171        -7.9232 
  40   2.0000      -0.284147        -7.7320 
  41   2.0000      -0.267444        -7.2775 
  42   2.0000      -0.256133        -6.9697 
  43   2.0000      -0.243219        -6.6183 
  44   2.0000      -0.229523        -6.2457 
  45   2.0000      -0.225226        -6.1287 
  46   2.0000      -0.211681        -5.7601 
  47   2.0000      -0.201925        -5.4947 
  48   0.0000       0.001657         0.0451 
  49   0.0000       0.018083         0.4921 
  50   0.0000       0.036931         1.0049 
  51   0.0000       0.057273         1.5585 
  52   0.0000       0.065614         1.7855 
  53   0.0000       0.077093         2.0978 
  54   0.0000       0.085190         2.3181 
  55   0.0000       0.091405         2.4872 
  56   0.0000       0.102750         2.7960 
  57   0.0000       0.105112         2.8602 
  58   0.0000       0.116658         3.1744 
*Only the first 10 virtual orbitals were printed.

                    ********************************
                    * MULLIKEN POPULATION ANALYSIS *
                    ********************************

-----------------------
MULLIKEN ATOMIC CHARGES
-----------------------
   0 C :    0.048566
   1 C :    0.038047
   2 H :    0.077234
   3 C :   -0.003700
   4 H :    0.071011
   5 C :    0.069860
   6 H :    0.031872
   7 C :    0.113862
   8 H :    0.085475
   9 C :    0.125352
  10 H :    0.067718
  11 O :   -0.316055
  12 O :   -0.388745
  13 O :   -0.412200
  14 O :   -0.408531
  15 O :   -0.433327
  16 O :   -0.447639
  17 H :    0.082386
  18 H :    0.069998
  19 H :    0.303280
  20 H :    0.295219
  21 H :    0.305943
  22 H :    0.310058
  23 H :    0.314317
Sum of atomic charges:   -0.0000000

--------------------------------
MULLIKEN REDUCED ORBITAL CHARGES
--------------------------------
  0 C s       :     3.011704  s :     3.011704
      pz      :     1.057172  p :     2.878590
      px      :     0.824215
      py      :     0.997203
      dz2     :     0.009275  d :     0.061140
      dxz     :     0.012139
      dyz     :     0.012083
      dx2y2   :     0.012645
      dxy     :     0.014998

  1 C s       :     3.058662  s :     3.058662
      pz      :     1.044236  p :     2.837744
      px      :     0.851403
      py      :     0.942105
      dz2     :     0.010270  d :     0.065547
      dxz     :     0.013976
      dyz     :     0.010961
      dx2y2   :     0.012366
      dxy     :     0.017974

  2 H s       :     0.922766  s :     0.922766

  3 C s       :     3.085172  s :     3.085172
      pz      :     1.048669  p :     2.850610
      px      :     0.921320
      py      :     0.880622
      dz2     :     0.014043  d :     0.067917
      dxz     :     0.009373
      dyz     :     0.013907
      dx2y2   :     0.013685
      dxy     :     0.016910

  4 H s       :     0.928989  s :     0.928989

  5 C s       :     3.027662  s :     3.027662
      pz      :     0.978470  p :     2.833046
      px      :     0.977069
      py      :     0.877507
      dz2     :     0.019580  d :     0.069432
      dxz     :     0.006470
      dyz     :     0.014412
      dx2y2   :     0.012888
      dxy     :     0.016081

  6 H s       :     0.968128  s :     0.968128

  7 C s       :     3.014419  s :     3.014419
      pz      :     0.994647  p :     2.804594
      px      :     0.869237
      py      :     0.940710
      dz2     :     0.014910  d :     0.067124
      dxz     :     0.015542
      dyz     :     0.006390
      dx2y2   :     0.013093
      dxy     :     0.017189

  8 H s       :     0.914525  s :     0.914525

  9 C s       :     3.024332  s :     3.024332
      pz      :     0.773385  p :     2.751403
      px      :     0.885810
      py      :     1.092208
      dz2     :     0.023980  d :     0.098913
      dxz     :     0.029641
      dyz     :     0.017966
      dx2y2   :     0.012004
      dxy     :     0.015323

 10 H s       :     0.932282  s :     0.932282

 11 O s       :     3.748834  s :     3.748834
      pz      :     1.618952  p :     4.552025
      px      :     1.251106
      py      :     1.681966
      dz2     :     0.002472  d :     0.015197
      dxz     :     0.004671
      dyz     :     0.002326
      dx2y2   :     0.002154
      dxy     :     0.003573

 12 O s       :     3.776634  s :     3.776634
      pz      :     1.470117  p :     4.596727
      px      :     1.814662
      py      :     1.311948
      dz2     :     0.005818  d :     0.015384
      dxz     :     0.002163
      dyz     :     0.002076
      dx2y2   :     0.004279
      dxy     :     0.001048

 13 O s       :     3.786129  s :     3.786129
      pz      :     1.202186  p :     4.610160
      px      :     1.520136
      py      :     1.887839
      dz2     :     0.005057  d :     0.015911
      dxz     :     0.005111
      dyz     :     0.000526
      dx2y2   :     0.003063
      dxy     :     0.002155

 14 O s       :     3.777146  s :     3.777146
      pz      :     1.748435  p :     4.615520
      px      :     1.507196
      py      :     1.359890
      dz2     :     0.003030  d :     0.015865
      dxz     :     0.001612
      dyz     :     0.002234
      dx2y2   :     0.003227
      dxy     :     0.005762

 15 O s       :     3.773553  s :     3.773553
      pz      :     1.889044  p :     4.644665
      px      :     1.224377
      py      :     1.531244
      dz2     :     0.002564  d :     0.015109
      dxz     :     0.000918
      dyz     :     0.001922
      dx2y2   :     0.003219
      dxy     :     0.006486

 16 O s       :     3.784119  s :     3.784119
      pz      :     1.821579  p :     4.648619
      px      :     1.274144
      py      :     1.552896
      dz2     :     0.001570  d :     0.014901
      dxz     :     0.002346
      dyz     :     0.002670
      dx2y2   :     0.001556
      dxy     :     0.006759

 17 H s       :     0.917614  s :     0.917614

 18 H s       :     0.930002  s :     0.930002

 19 H s       :     0.696720  s :     0.696720

 20 H s       :     0.704781  s :     0.704781

 21 H s       :     0.694057  s :     0.694057

 22 H s       :     0.689942  s :     0.689942

 23 H s       :     0.685683  s :     0.685683


------------------------
MULLIKEN OVERLAP CHARGES
------------------------
B(  0-C ,  1-C ) :   0.6237 B(  0-C ,  2-H ) :  -0.0880 B(  0-C ,  3-C ) :  -0.1038 
B(  0-C , 11-O ) :  -0.0771 B(  0-C , 16-O ) :   0.5998 B(  0-C , 17-H ) :   0.6800 
B(  0-C , 18-H ) :   0.6733 B(  1-C ,  2-H ) :   0.6219 B(  1-C ,  3-C ) :   0.2773 
B(  1-C ,  4-H ) :  -0.0563 B(  1-C ,  5-C ) :  -0.0625 B(  1-C ,  9-C ) :  -0.2174 
B(  1-C , 11-O ) :   0.5434 B(  1-C , 15-O ) :  -0.0571 B(  1-C , 16-O ) :  -0.1288 
B(  3-C ,  4-H ) :   0.6444 B(  3-C ,  5-C ) :   0.2988 B(  3-C ,  6-H ) :  -0.0670 
B(  3-C ,  9-C ) :   0.1159 B(  3-C , 11-O ) :  -0.1239 B(  3-C , 14-O ) :  -0.0603 
B(  3-C , 15-O ) :   0.5693 B(  3-C , 18-H ) :  -0.0524 B(  3-C , 22-H ) :  -0.0667 
B(  4-H ,  5-C ) :  -0.0899 B(  4-H , 15-O ) :  -0.0713 B(  5-C ,  6-H ) :   0.5295 
B(  5-C ,  7-C ) :   0.0898 B(  5-C ,  9-C ) :   0.0788 B(  5-C , 13-O ) :  -0.0517 
B(  5-C , 14-O ) :   0.6774 B(  5-C , 15-O ) :  -0.1010 B(  5-C , 21-H ) :  -0.1125 
B(  6-H , 14-O ) :  -0.0760 B(  7-C ,  8-H ) :   0.5310 B(  7-C ,  9-C ) :   0.1463 
B(  7-C , 10-H ) :  -0.0705 B(  7-C , 11-O ) :  -0.0776 B(  7-C , 12-O ) :  -0.0947 
B(  7-C , 13-O ) :   0.5857 B(  7-C , 14-O ) :  -0.1103 B(  7-C , 20-H ) :  -0.1157 
B(  8-H , 13-O ) :  -0.0513 B(  9-C , 10-H ) :   0.6749 B(  9-C , 11-O ) :   0.6347 
B(  9-C , 12-O ) :   0.5316 B(  9-C , 13-O ) :  -0.0737 B( 10-H , 11-O ) :  -0.0737 
B( 11-O , 12-O ) :  -0.1427 B( 12-O , 19-H ) :   0.4744 B( 13-O , 20-H ) :   0.5371 
B( 14-O , 21-H ) :   0.5392 B( 15-O , 21-H ) :   0.0610 B( 15-O , 22-H ) :   0.5392 
B( 16-O , 18-H ) :  -0.0535 B( 16-O , 22-H ) :   0.0955 B( 16-O , 23-H ) :   0.5174 
B( 17-H , 18-H ) :  -0.0984 


                     *******************************
                     * LOEWDIN POPULATION ANALYSIS *
                     *******************************

----------------------
LOEWDIN ATOMIC CHARGES
----------------------
   0 C :   -0.134123
   1 C :   -0.068870
   2 H :    0.117854
   3 C :   -0.084821
   4 H :    0.108529
   5 C :   -0.065038
   6 H :    0.095884
   7 C :   -0.071202
   8 H :    0.130634
   9 C :   -0.012654
  10 H :    0.099984
  11 O :   -0.146881
  12 O :   -0.306358
  13 O :   -0.304782
  14 O :   -0.313782
  15 O :   -0.328954
  16 O :   -0.337825
  17 H :    0.100592
  18 H :    0.097497
  19 H :    0.284564
  20 H :    0.281363
  21 H :    0.284351
  22 H :    0.278666
  23 H :    0.295373

-------------------------------
LOEWDIN REDUCED ORBITAL CHARGES
-------------------------------
  0 C s       :     2.931803  s :     2.931803
      pz      :     1.114435  p :     3.062268
      px      :     0.908129
      py      :     1.039703
      dz2     :     0.020074  d :     0.140053
      dxz     :     0.027743
      dyz     :     0.029187
      dx2y2   :     0.025983
      dxy     :     0.037065

  1 C s       :     2.896849  s :     2.896849
      pz      :     1.088401  p :     3.018643
      px      :     0.920731
      py      :     1.009511
      dz2     :     0.020870  d :     0.153378
      dxz     :     0.032541
      dyz     :     0.028865
      dx2y2   :     0.027243
      dxy     :     0.043859

  2 H s       :     0.882146  s :     0.882146

  3 C s       :     2.892139  s :     2.892139
      pz      :     1.098752  p :     3.033272
      px      :     0.970157
      py      :     0.964362
      dz2     :     0.032386  d :     0.159411
      dxz     :     0.020096
      dyz     :     0.034454
      dx2y2   :     0.031584
      dxy     :     0.040890

  4 H s       :     0.891471  s :     0.891471

  5 C s       :     2.890115  s :     2.890115
      pz      :     1.037431  p :     3.013535
      px      :     1.050484
      py      :     0.925620
      dz2     :     0.046898  d :     0.161389
      dxz     :     0.012730
      dyz     :     0.032691
      dx2y2   :     0.028407
      dxy     :     0.040662

  6 H s       :     0.904116  s :     0.904116

  7 C s       :     2.894786  s :     2.894786
      pz      :     1.033475  p :     3.020538
      px      :     0.944787
      py      :     1.042275
      dz2     :     0.034622  d :     0.155878
      dxz     :     0.034895
      dyz     :     0.012194
      dx2y2   :     0.030310
      dxy     :     0.043858

  8 H s       :     0.869366  s :     0.869366

  9 C s       :     2.896009  s :     2.896009
      pz      :     0.873138  p :     2.895333
      px      :     0.946840
      py      :     1.075355
      dz2     :     0.055504  d :     0.221312
      dxz     :     0.068188
      dyz     :     0.036745
      dx2y2   :     0.026641
      dxy     :     0.034234

 10 H s       :     0.900016  s :     0.900016

 11 O s       :     3.468584  s :     3.468584
      pz      :     1.647492  p :     4.648565
      px      :     1.303462
      py      :     1.697612
      dz2     :     0.003999  d :     0.029732
      dxz     :     0.010032
      dyz     :     0.003106
      dx2y2   :     0.005037
      dxy     :     0.007558

 12 O s       :     3.540555  s :     3.540555
      pz      :     1.541983  p :     4.738301
      px      :     1.817452
      py      :     1.378866
      dz2     :     0.010568  d :     0.027502
      dxz     :     0.003246
      dyz     :     0.004370
      dx2y2   :     0.007384
      dxy     :     0.001934

 13 O s       :     3.533006  s :     3.533006
      pz      :     1.287830  p :     4.743856
      px      :     1.580649
      py      :     1.875377
      dz2     :     0.009494  d :     0.027920
      dxz     :     0.009828
      dyz     :     0.001275
      dx2y2   :     0.004479
      dxy     :     0.002844

 14 O s       :     3.530507  s :     3.530507
      pz      :     1.783692  p :     4.755670
      px      :     1.561532
      py      :     1.410445
      dz2     :     0.004574  d :     0.027605
      dxz     :     0.002145
      dyz     :     0.004639
      dx2y2   :     0.005930
      dxy     :     0.010318

 15 O s       :     3.523601  s :     3.523601
      pz      :     1.895211  p :     4.778928
      px      :     1.291042
      py      :     1.592675
      dz2     :     0.004081  d :     0.026425
      dxz     :     0.001743
      dyz     :     0.002418
      dx2y2   :     0.005970
      dxy     :     0.012212

 16 O s       :     3.531736  s :     3.531736
      pz      :     1.832951  p :     4.780034
      px      :     1.331623
      py      :     1.615460
      dz2     :     0.002559  d :     0.026054
      dxz     :     0.004260
      dyz     :     0.003710
      dx2y2   :     0.003166
      dxy     :     0.012360

 17 H s       :     0.899408  s :     0.899408

 18 H s       :     0.902503  s :     0.902503

 19 H s       :     0.715436  s :     0.715436

 20 H s       :     0.718637  s :     0.718637

 21 H s       :     0.715649  s :     0.715649

 22 H s       :     0.721334  s :     0.721334

 23 H s       :     0.704627  s :     0.704627


---------------------------------
LOEWDIN BOND ORDERS (THRESH 0.050000)
---------------------------------
B(  0-C ,  1-C ) :   1.0582 B(  0-C ,  3-C ) :   0.0578 B(  0-C , 11-O ) :   0.0721 
B(  0-C , 16-O ) :   1.2079 B(  0-C , 17-H ) :   0.9097 B(  0-C , 18-H ) :   0.9061 
B(  1-C ,  2-H ) :   0.8734 B(  1-C ,  3-C ) :   1.0168 B(  1-C ,  5-C ) :   0.0583 
B(  1-C ,  9-C ) :   0.0636 B(  1-C , 11-O ) :   1.1357 B(  1-C , 15-O ) :   0.0785 
B(  1-C , 16-O ) :   0.0609 B(  3-C ,  4-H ) :   0.8612 B(  3-C ,  5-C ) :   1.0188 
B(  3-C ,  7-C ) :   0.0573 B(  3-C , 11-O ) :   0.0528 B(  3-C , 14-O ) :   0.0802 
B(  3-C , 15-O ) :   1.2118 B(  5-C ,  6-H ) :   0.8584 B(  5-C ,  7-C ) :   1.0232 
B(  5-C ,  9-C ) :   0.0555 B(  5-C , 13-O ) :   0.0732 B(  5-C , 14-O ) :   1.2428 
B(  5-C , 15-O ) :   0.0634 B(  7-C ,  8-H ) :   0.8661 B(  7-C ,  9-C ) :   1.0057 
B(  7-C , 11-O ) :   0.0595 B(  7-C , 12-O ) :   0.0601 B(  7-C , 13-O ) :   1.2430 
B(  7-C , 14-O ) :   0.0604 B(  9-C , 10-H ) :   0.8834 B(  9-C , 11-O ) :   1.1904 
B(  9-C , 12-O ) :   1.2534 B(  9-C , 13-O ) :   0.0874 B( 11-O , 12-O ) :   0.0976 
B( 12-O , 19-H ) :   0.8747 B( 13-O , 20-H ) :   0.8827 B( 14-O , 21-H ) :   0.8684 
B( 15-O , 22-H ) :   0.8525 B( 16-O , 22-H ) :   0.0737 B( 16-O , 23-H ) :   0.8824 


------------------------------------------
LOEWDIN REDUCED ORBITAL POPULATIONS PER MO
-------------------------------------------
THRESHOLD FOR PRINTING IS 0.1%%
                      0         1         2         3         4         5   
                 -18.77934 -18.77404 -18.76886 -18.74770 -18.74372 -18.73599
                   2.00000   2.00000   2.00000   2.00000   2.00000   2.00000
                  --------  --------  --------  --------  --------  --------
11 O  s               0.0      99.9       0.0       0.0       0.0       0.0
12 O  s               0.0       0.0      99.9       0.0       0.0       0.0
13 O  s               0.0       0.0       0.0       0.0      99.9       0.0
14 O  s               0.0       0.0       0.0       0.0       0.0      99.9
15 O  s               0.0       0.0       0.0      99.9       0.0       0.0
16 O  s              99.9       0.0       0.0       0.0       0.0       0.0

                      6         7         8         9        10        11   
                  -9.98410  -9.94747  -9.94500  -9.93664  -9.93583  -9.93402
                   2.00000   2.00000   2.00000   2.00000   2.00000   2.00000
                  --------  --------  --------  --------  --------  --------
 0 C  s               0.0       0.0      99.6       0.0       0.0       0.0
 1 C  s               0.0      99.6       0.0       0.0       0.0       0.0
 3 C  s               0.0       0.0       0.0      99.6       0.0       0.0
 5 C  s               0.0       0.0       0.0       0.0      99.5       0.0
 7 C  s               0.0       0.0       0.0       0.0       0.0      99.5
 9 C  s              99.6       0.0       0.0       0.0       0.0       0.0
12 O  pz              0.1       0.0       0.0       0.0       0.0       0.0

                     12        13        14        15        16        17   
                  -0.98606  -0.95273  -0.93720  -0.92525  -0.91799  -0.90654
                   2.00000   2.00000   2.00000   2.00000   2.00000   2.00000
                  --------  --------  --------  --------  --------  --------
 0 C  s               0.7       8.7       0.6       0.1       0.1       0.1
 0 C  pz              0.1       0.1       0.0       0.0       0.2       0.0
 0 C  px              0.2       5.4       0.7       0.5       0.5       0.0
 0 C  py              0.2       2.2       0.1       0.0       0.0       0.0
 0 C  dz2             0.0       0.2       0.0       0.0       0.0       0.0
 0 C  dx2y2           0.0       0.1       0.0       0.0       0.0       0.0
 0 C  dxy             0.0       0.4       0.0       0.0       0.0       0.0
 1 C  s               4.8       0.9       0.1       0.6       3.7       0.0
 1 C  pz              0.0       0.4       0.1       0.0       0.4       0.1
 1 C  px              2.9       1.1       0.1       0.2       2.5       0.1
 1 C  py              0.9       0.0       0.9       0.1       1.1       0.4
 1 C  dxy             0.2       0.0       0.0       0.0       0.2       0.0
 2 H  s               0.6       0.2       0.0       0.1       0.4       0.0
 3 C  s               1.0       1.2       6.0       2.4       0.0       1.3
 3 C  pz              0.2       0.0       0.1       0.0       0.2       0.0
 3 C  px              0.0       0.5       0.5       1.6       0.0       3.8
 3 C  py              0.3       0.1       2.9       0.7       0.9       0.5
 3 C  dz2             0.0       0.0       0.1       0.0       0.0       0.0
 3 C  dxy             0.0       0.0       0.1       0.2       0.0       0.3
 4 H  s               0.2       0.1       0.7       0.2       0.0       0.1
 5 C  s               0.6       0.2       7.1       0.2       0.3       3.9
 5 C  pz              0.0       0.0       1.0       0.0       0.2       1.2
 5 C  px              0.0       0.1       0.0       2.1       0.0       0.3
 5 C  py              0.2       0.0       1.4       0.1       0.7       5.1
 5 C  dyz             0.0       0.0       0.1       0.0       0.0       0.3
 5 C  dx2y2           0.0       0.0       0.1       0.0       0.0       0.3
 6 H  s               0.1       0.0       1.0       0.0       0.0       0.3
 7 C  s               1.9       0.0       2.5       7.2       0.0       0.3
 7 C  pz              0.1       0.0       0.6       2.8       0.3       0.5
 7 C  px              0.3       0.0       0.2       4.0       0.0       1.5
 7 C  py              0.9       0.1       0.9       0.1       0.0       0.3
 7 C  dxz             0.0       0.0       0.1       0.5       0.0       0.1
 7 C  dx2y2           0.0       0.0       0.0       0.1       0.0       0.0
 8 H  s               0.3       0.0       0.3       0.8       0.0       0.0
 9 C  s              15.2       0.5       0.1       0.1       0.2       0.0
 9 C  pz              0.1       0.2       0.4       0.0      11.8       0.2
 9 C  px              4.0       0.0       0.2       0.9       1.0       0.2
 9 C  py              0.3       0.1       0.7       0.6       1.0       0.0
 9 C  dz2             0.1       0.0       0.0       0.0       0.2       0.0
 9 C  dxz             0.1       0.0       0.0       0.0       0.6       0.0
 9 C  dyz             0.1       0.0       0.0       0.0       0.2       0.0
 9 C  dx2y2           0.1       0.0       0.0       0.0       0.2       0.0
10 H  s               1.8       0.1       0.0       0.1       0.0       0.0
11 O  s              27.9       0.1       0.0       1.3      24.1       0.8
11 O  pz              1.8       0.0       0.0       0.0       0.3       0.0
11 O  px              0.1       0.1       0.0       0.0       0.2       0.0
11 O  py              0.4       0.0       0.0       0.0       0.6       0.0
12 O  s              21.2       2.1       2.9       0.0      33.7       0.3
12 O  pz              1.9       0.1       0.1       0.0       0.7       0.0
12 O  py              0.1       0.0       0.1       0.0       0.7       0.0
13 O  s               1.0       0.0       7.6      41.5       0.4       7.3
13 O  pz              0.0       0.0       0.0       0.1       0.0       0.0
13 O  px              0.1       0.0       0.5       2.4       0.0       0.3
14 O  s               0.2       0.4      18.7       0.1       2.5      35.6
14 O  pz              0.0       0.0       0.3       0.0       0.0       0.3
14 O  px              0.0       0.0       0.9       0.0       0.1       1.4
14 O  py              0.0       0.0       0.3       0.0       0.0       0.2
15 O  s               0.5       3.9      20.6      13.7       1.0      18.4
15 O  py              0.1       0.3       1.1       0.8       0.0       1.0
16 O  s               0.6      52.1       5.0       1.7       0.4       0.4
16 O  pz              0.0       0.2       0.0       0.0       0.0       0.0
16 O  px              0.0       0.1       0.0       0.0       0.0       0.0
16 O  py              0.0       2.4       0.3       0.1       0.0       0.0
17 H  s               0.1       1.0       0.1       0.0       0.0       0.0
18 H  s               0.2       0.9       0.1       0.0       0.0       0.0
19 H  s               4.3       0.4       0.6       0.0       6.9       0.1
20 H  s               0.2       0.0       1.6       8.4       0.1       1.5
21 H  s               0.1       0.1       4.5       0.0       0.5       6.5
22 H  s               0.1       1.7       3.6       2.6       0.2       3.8
23 H  s               0.1      10.6       1.1       0.4       0.1       0.1

                     18        19        20        21        22        23   
                  -0.70441  -0.69085  -0.62490  -0.58132  -0.56370  -0.51738
                   2.00000   2.00000   2.00000   2.00000   2.00000   2.00000
                  --------  --------  --------  --------  --------  --------
 0 C  s               8.7       2.2      13.8       0.1       6.4       0.3
 0 C  pz              0.5       0.2       0.0       0.4       0.7       1.0
 0 C  px              3.1       0.7       0.3       0.0       0.4       0.0
 0 C  py              0.5       0.0       0.1       0.2       2.3       1.5
 0 C  dxy             0.1       0.0       0.0       0.0       0.0       0.0
 1 C  s              17.6       2.2       0.1       0.2       6.2       1.1
 1 C  pz              1.2       0.3       0.7       3.9       0.8       1.1
 1 C  px              1.1       0.6       5.6       0.4       0.3       0.4
 1 C  py              0.4       2.4       2.4       3.2       1.7       0.3
 1 C  dyz             0.0       0.0       0.1       0.0       0.0       0.0
 1 C  dxy             0.1       0.0       0.1       0.1       0.0       0.0
 2 H  s               3.5       0.5       0.0       0.3       2.8       1.7
 3 C  s               9.2       3.0       4.0       8.4       0.1       2.7
 3 C  pz              0.8       0.0       0.2       0.4       0.2       3.3
 3 C  px              0.6       3.8       1.6       0.0       1.4       0.2
 3 C  py              3.6       0.1       0.2       0.1       3.4       0.7
 3 C  dxy             0.2       0.0       0.0       0.0       0.0       0.1
 4 H  s               2.0       0.7       0.5       2.8       0.0       2.3
 5 C  s               3.3      10.1       2.3       1.5       7.3       2.6
 5 C  pz              0.0       0.0       0.2       0.1       0.7       2.9
 5 C  px              0.9       0.0       2.5       8.2       0.1       0.5
 5 C  py              1.5       5.4       0.1       0.1       0.1       0.3
 6 H  s               0.7       1.7       0.9       0.4       2.9       3.1
 7 C  s               0.2      13.1       3.5       6.7       0.8       2.5
 7 C  pz              0.0       0.3       0.5       0.7       1.3       0.8
 7 C  px              0.4       5.0       0.1       0.0       1.5       6.2
 7 C  py              0.9       0.2       3.0       3.8       4.2       0.0
 7 C  dxz             0.0       0.1       0.0       0.0       0.0       0.0
 7 C  dx2y2           0.0       0.0       0.1       0.0       0.0       0.2
 7 C  dxy             0.0       0.0       0.0       0.1       0.1       0.0
 8 H  s               0.1       2.7       1.2       3.0       0.9       2.3
 9 C  s               2.9       6.3       7.0       4.5       0.5       1.3
 9 C  pz              1.9       0.0       0.0       0.7       3.8       2.0
 9 C  px              0.3       0.8       1.7       0.1       1.8       0.0
 9 C  py              0.5       3.9       0.4       1.6       1.6       0.1
 9 C  dxz             0.1       0.0       0.0       0.0       0.1       0.1
10 H  s               0.9       1.1       2.2       2.3       0.0       0.1
11 O  s               3.4       1.1       0.9       0.7       0.8       0.9
11 O  pz              0.1       0.2       0.4       1.3       0.1       0.1
11 O  px              6.8       3.9       1.7       8.6       5.0       0.1
11 O  py              0.9       0.0       0.4       0.5       2.1       0.4
12 O  s               0.4       1.3       1.1       0.7       0.0       0.0
12 O  pz              0.4       0.7       1.7       2.2       0.6       3.4
12 O  px              0.0       0.3       0.6       0.1       1.1       1.1
12 O  py              0.1       2.2       3.1       1.4       4.8       6.6
13 O  s               0.0       4.1       0.7       0.9       0.0       0.0
13 O  pz              0.0       2.4       1.9       5.9       1.8      16.5
13 O  px              0.0       0.7       0.3       1.1       0.0       0.5
13 O  py              0.0       0.1       0.3       0.0       0.4       0.4
13 O  dxz             0.0       0.0       0.0       0.1       0.0       0.2
14 O  s               0.9       3.0       0.8       0.0       1.4       0.0
14 O  pz              0.1       0.2       0.1       0.4       1.3       1.3
14 O  px              0.1       0.4       0.0       1.5       0.5       0.7
14 O  py              0.5       2.1       0.5       2.1       5.4       1.6
15 O  s               3.5       0.4       0.5       1.6       0.2       0.0
15 O  pz              0.0       0.0       0.0       0.0       0.0       0.4
15 O  px              1.6       0.7       2.5       7.3       0.1       8.6
15 O  py              0.3       0.0       0.1       0.7       0.2       0.2
15 O  dxy             0.0       0.0       0.0       0.1       0.0       0.1
16 O  s               1.8       0.4       1.8       0.0       0.7       0.2
16 O  pz              0.3       0.1       0.9       0.0       0.2       0.4
16 O  px              3.1       0.7       9.2       0.4       5.2       0.3
16 O  py              0.1       0.0       0.1       0.0       0.7       0.8
16 O  dxy             0.0       0.0       0.1       0.0       0.1       0.0
17 H  s               1.6       0.6       3.7       0.0       2.9       0.3
18 H  s               1.9       0.5       3.3       0.1       3.1       1.2
19 H  s               0.2       1.4       1.8       1.1       1.8       3.0
20 H  s               0.0       1.8       0.9       2.2       0.6       4.9
21 H  s               0.4       1.5       0.3       1.1       2.3       0.9
22 H  s               1.4       0.3       0.9       2.7       0.0       2.6
23 H  s               1.5       0.4       3.4       0.1       1.4       0.2

                     24        25        26        27        28        29   
                  -0.50955  -0.49523  -0.47620  -0.47038  -0.44271  -0.41909
                   2.00000   2.00000   2.00000   2.00000   2.00000   2.00000
                  --------  --------  --------  --------  --------  --------
 0 C  s               1.5       0.4       0.8       0.1       0.0       0.0
 0 C  pz              0.7       3.0       1.0       0.1       3.1       9.3
 0 C  px              0.7       0.3       3.2       6.1       0.3       0.3
 0 C  py             10.3       2.8       5.8       0.3       0.2       1.0
 0 C  dz2             0.1       0.0       0.1       0.0       0.0       0.0
 0 C  dxy             0.1       0.0       0.3       0.3       0.0       0.1
 1 C  s               1.1       0.3       0.5       1.9       0.0       0.2
 1 C  pz              0.4      10.2       0.8       0.8       2.9       0.5
 1 C  px              2.7       0.6       0.1       2.1       0.3       4.9
 1 C  py              6.3       0.2       0.5       0.0       0.9       1.9
 1 C  dxz             0.0       0.0       0.0       0.0       0.0       0.2
 1 C  dx2y2           0.0       0.0       0.0       0.1       0.0       0.0
 1 C  dxy             0.0       0.0       0.1       0.0       0.0       0.1
 2 H  s               2.4       3.2       0.0       0.5       0.6       2.4
 3 C  s               0.0       0.4       0.1       0.3       0.1       0.1
 3 C  pz              2.2       5.8       1.4       0.3       5.7       1.9
 3 C  px              1.1       0.0       0.2       2.0       0.5       2.7
 3 C  py              1.3      10.4       3.4       1.2       0.2       0.1
 4 H  s               0.5       4.4       0.2       0.4       2.1       1.4
 5 C  s               0.0       0.4       0.0       0.1       0.3       0.8
 5 C  pz              0.9       3.5       2.9       1.3      12.1       0.6
 5 C  px              0.2       2.5       0.0       1.9       0.2       3.1
 5 C  py              0.0       0.9       2.3       4.9       1.0       1.0
 5 C  dxy             0.0       0.0       0.0       0.1       0.0       0.1
 6 H  s               0.2       2.2       0.7       0.2       5.4       1.2
 7 C  s               0.1       0.0       0.1       0.5       0.3       0.7
 7 C  pz              1.4       0.6       3.1       0.1       1.9       0.7
 7 C  px              0.4       0.7       2.5       2.4       4.8       1.2
 7 C  py              0.0       1.6       1.2       1.2       1.8       2.5
 7 C  dyz             0.0       0.0       0.0       0.0       0.1       0.0
 7 C  dx2y2           0.0       0.0       0.0       0.0       0.2       0.0
 8 H  s               0.1       0.1       1.0       0.0       0.5       0.8
 9 C  s               0.2       0.9       0.3       0.7       0.4       0.2
 9 C  pz              8.8       0.2       3.1       0.5       1.4       0.2
 9 C  px              1.1       6.3       0.7       0.6       6.9      12.6
 9 C  py              0.7       0.9       1.4       9.1       0.9       1.5
 9 C  dz2             0.1       0.0       0.2       0.0       0.1       0.0
 9 C  dxz             0.0       0.0       0.0       0.0       0.0       0.1
 9 C  dx2y2           0.0       0.0       0.0       0.0       0.1       0.0
10 H  s               2.3       3.2       0.6       3.8       2.5       5.7
11 O  s               0.0       0.0       1.8       0.2       0.1       0.2
11 O  pz              0.4       2.8       0.3       0.3       4.6       2.6
11 O  px              6.0       0.9       1.0       0.3       0.5       8.9
11 O  py              0.0       0.0       1.2       3.3       0.1       0.2
12 O  s               0.1       0.0       0.1       0.8       0.0       0.1
12 O  pz              1.7       0.3       1.6       2.3       3.3       0.0
12 O  px              0.3       1.8       0.7       0.2       0.5       2.9
12 O  py             13.0       0.1       5.0       0.3       3.4       0.4
13 O  s               0.2       0.1       0.6       0.1       0.3       0.0
13 O  pz              1.9       0.4       1.3       1.1      14.5       0.7
13 O  px              0.6       0.1       0.6       0.1       0.6       0.0
13 O  py              0.2       0.4       0.2       0.0       0.2       1.7
14 O  s               0.1       0.6       0.1       0.1       0.1       0.4
14 O  pz              0.0       0.4       0.3       1.6       1.3       1.0
14 O  px              0.1       1.0       0.7       5.1       0.3       1.0
14 O  py              0.1       0.1       6.1      12.2       2.2       0.4
15 O  s               0.6       0.4       0.0       0.3       0.0       0.1
15 O  pz              0.3       0.8       0.1       0.0       1.1       0.7
15 O  px              0.7      12.1       6.4       0.1       0.0       3.7
15 O  py              0.7       0.4       0.2       1.4       0.0       0.6
16 O  s               0.7       0.2       1.0       0.2       0.0       0.2
16 O  pz              1.6       0.1       3.2       1.8       0.7       1.9
16 O  px              5.6       1.1      11.9      13.0       0.1       2.8
16 O  py              2.9       1.9       1.0       0.0       0.0       1.1
16 O  dxy             0.0       0.0       0.1       0.1       0.0       0.0
17 H  s               3.2       2.5       1.5       0.1       0.7       3.0
18 H  s               2.9       0.2       3.5       0.2       1.0       2.1
19 H  s               4.2       0.0       2.1       0.0       1.4       0.0
20 H  s               0.8       0.2       0.2       0.3       4.0       0.3
21 H  s               0.0       0.2       1.9       5.6       0.4       0.0
22 H  s               0.3       3.7       1.4       0.0       0.0       1.4
23 H  s               2.4       0.4       4.5       4.0       0.0       0.5

                     30        31        32        33        34        35   
                  -0.41081  -0.40079  -0.38541  -0.38057  -0.36866  -0.35337
                   2.00000   2.00000   2.00000   2.00000   2.00000   2.00000
                  --------  --------  --------  --------  --------  --------
 0 C  s               0.0       0.0       0.0       0.0       0.1       0.0
 0 C  pz             16.8       1.0       3.5       2.3       0.3       3.1
 0 C  px              0.1      10.9       2.7       1.2       2.3       0.3
 0 C  py              0.6       6.0       1.4       0.3       0.1       0.9
 0 C  dz2             0.0       0.0       0.0       0.0       0.1       0.1
 0 C  dx2y2           0.0       0.0       0.0       0.0       0.1       0.0
 1 C  s               0.0       0.0       0.2       0.2       0.3       0.4
 1 C  pz              0.0       2.4       0.0       2.1       1.2       7.5
 1 C  px              0.7       3.2       0.4       0.0       6.2       2.8
 1 C  py              1.4      12.0       0.0       1.2       0.2       0.0
 1 C  dz2             0.0       0.0       0.0       0.1       0.1       0.2
 1 C  dyz             0.0       0.1       0.1       0.1       0.0       0.2
 1 C  dxy             0.1       0.0       0.0       0.0       0.0       0.0
 2 H  s               0.0       1.2       0.1       0.7       2.0       8.3
 3 C  s               0.6       0.5       0.6       0.4       0.0       0.4
 3 C  pz              2.3       3.2       7.0       1.2       0.6       1.3
 3 C  px              8.8       1.8       3.1       1.5       0.1       2.8
 3 C  py              0.3       1.9       0.9       0.4       0.1       1.2
 3 C  dz2             0.0       0.1       0.1       0.1       0.0       0.0
 3 C  dx2y2           0.1       0.0       0.0       0.1       0.1       0.0
 3 C  dxy             0.2       0.1       0.1       0.0       0.2       0.0
 4 H  s               2.2       0.1       4.8       1.5       1.0       0.3
 5 C  s               0.9       0.1       0.2       0.1       0.2       0.1
 5 C  pz              0.1       2.4       2.7       1.9       1.1       6.4
 5 C  px              3.5       2.3       1.8       4.6       1.8       0.0
 5 C  py              1.8       0.3       2.0       4.7       1.2       1.1
 5 C  dxz             0.1       0.0       0.0       0.0       0.0       0.1
 5 C  dyz             0.1       0.0       0.0       0.1       0.0       0.1
 5 C  dx2y2           0.0       0.0       0.1       0.1       0.0       0.0
 5 C  dxy             0.0       0.4       0.0       0.1       0.0       0.0
 6 H  s               0.2       1.1       0.8       0.9       1.9       4.1
 7 C  s               0.2       1.0       0.5       0.3       0.1       0.2
 7 C  pz              0.1       1.6      13.9       0.1       2.4      10.8
 7 C  px              0.5       2.1       0.2       0.5       0.4       0.8
 7 C  py              1.2       0.0       1.3      10.2       0.8       0.6
 7 C  dxz             0.0       0.0       0.1       0.1       0.0       0.3
 7 C  dyz             0.0       0.0       0.0       0.1       0.0       0.0
 7 C  dx2y2           0.2       0.1       0.0       0.0       0.0       0.1
 8 H  s               0.1       0.2       7.4       0.6       1.6       7.4
 9 C  s               0.0       0.0       0.0       0.3       0.4       0.1
 9 C  pz              0.0       0.0       0.0       0.7       0.5       0.2
 9 C  px              0.4       0.1       0.1       0.4       0.1       1.4
 9 C  py              4.1       0.2       2.5       8.4       1.5       0.0
 9 C  dz2             0.0       0.1       0.1       0.2       0.4       0.1
 9 C  dxz             0.0       0.0       0.0       0.0       0.1       0.1
 9 C  dyz             0.0       0.0       0.1       0.0       0.2       0.1
10 H  s               0.2       0.0       0.3       0.7       0.9       0.3
11 O  s               0.0       0.0       0.0       1.7       2.4       0.2
11 O  pz              0.5       0.9       0.8       9.1      10.0       0.5
11 O  px              0.0       1.7       0.0       0.1       6.6       1.0
11 O  py              3.5       2.7       2.1       3.7       3.5       0.1
12 O  s               0.4       0.1       1.6       0.1       4.0       0.1
12 O  pz              2.5       0.0       1.9       2.6      14.1       1.0
12 O  px              0.0       0.2       0.0       3.0       0.0       1.3
12 O  py              0.1       0.2       2.6       0.1       8.7       1.0
13 O  s               0.5       1.6       0.5       0.6       0.3       0.1
13 O  pz              3.3       1.9       1.1       0.6       0.0       1.3
13 O  px              0.1       3.8       6.4       1.2       2.1       6.3
13 O  py              0.1       0.1       0.9       5.0       0.1       0.0
14 O  s               0.9       0.2       0.6       0.2       0.8       0.1
14 O  pz              0.5       0.0       1.8       1.9       1.1       2.0
14 O  px              4.8       0.5       2.3       0.4       2.6       0.9
14 O  py              1.5       2.2       0.1       9.1       0.0       2.1
14 O  dxy             0.0       0.0       0.0       0.1       0.0       0.0
15 O  s               0.1       0.1       0.7       0.5       0.9       0.7
15 O  pz              0.6       1.1       3.2       0.8       0.1       0.2
15 O  px              8.4       7.1       0.0       0.0       1.1       0.0
15 O  py              1.6       0.1       4.3       3.3       0.5       7.2
16 O  s               0.2       1.7       0.1       0.5       0.1       0.2
16 O  pz              5.6       0.0       1.9       1.4       0.6       3.4
16 O  px              1.3       1.4       0.0       0.5       1.2       0.1
16 O  py              0.6      10.3       1.5       1.7       4.4       0.1
17 H  s               3.9       2.0       2.6       0.0       0.0       2.3
18 H  s               5.3       0.2       1.7       0.4       1.4       1.8
19 H  s               0.0       0.1       0.5       0.3       1.1       0.3
20 H  s               0.9       0.5       0.5       0.4       0.1       0.7
21 H  s               1.4       0.9       0.7       1.3       0.1       0.0
22 H  s               2.7       1.2       0.1       0.0       0.8       0.1
23 H  s               0.0       0.0       0.0       0.0       0.1       0.1

                     36        37        38        39        40        41   
                  -0.33222  -0.32188  -0.30709  -0.29117  -0.28415  -0.26744
                   2.00000   2.00000   2.00000   2.00000   2.00000   2.00000
                  --------  --------  --------  --------  --------  --------
 0 C  s               0.3       0.1       0.1       0.0       0.2       0.4
 0 C  pz              0.3       0.9       0.1       0.1       0.2       0.2
[...]
 5 C  dxz             0.0       0.0       0.1       0.6       0.2       0.0
 5 C  dyz             0.1       0.0       0.4       2.3       2.8       0.3
 5 C  dx2y2           0.1       0.2       0.1       4.1       0.7       0.0
 5 C  dxy             0.0       0.2       0.5       1.0       0.5       0.0
 7 C  s               0.0       0.9       0.5       0.1       1.6       0.0
 7 C  pz              0.0       0.3       0.4       0.1       0.6       0.1
 7 C  px              0.0       0.7       0.9       0.2       0.8       0.0
 7 C  py              0.0       0.0       0.0       0.1       0.3       0.0
 7 C  dz2             0.0       0.1       0.1       0.1       0.0       0.0
 7 C  dxz             0.0       2.3       1.9       0.3       2.9       0.3
 7 C  dyz             0.0       0.6       0.1       0.1       0.2       0.0
 7 C  dx2y2           0.0       0.6       0.7       1.2       1.6       0.2
 7 C  dxy             0.0       0.6       0.4       0.1       0.0       0.0
 9 C  s               0.3       1.4       0.1       0.5       1.2       1.2
 9 C  pz              0.1       2.2       0.4       0.4       0.1       1.0
 9 C  px              0.2       0.0       0.0       0.2       0.6       1.3
 9 C  py              0.0       0.3       0.0       0.1       0.2       0.0
 9 C  dz2             0.5       3.6       0.8       0.5       2.1       0.2
 9 C  dxz             0.7       1.3       0.3       0.3       0.3       3.5
 9 C  dyz             0.0       3.7       0.0       0.8       0.2       0.0
 9 C  dx2y2           0.2       0.0       0.1       0.0       0.4       1.3
 9 C  dxy             0.0       0.2       0.0       0.0       0.0       0.0
11 O  s               0.5       0.1       0.0       0.1       0.2       0.0
11 O  pz              0.1       0.1       0.0       0.0       0.1       0.3
11 O  px              0.1       0.0       0.3       0.1       0.7       5.0
11 O  py              0.1       0.0       0.0       0.0       0.0       0.5
11 O  dz2             0.0       0.3       0.4       0.7       0.0       6.9
11 O  dxz             1.7       0.6       1.6       0.0       4.4      31.3
11 O  dyz             0.0       0.1       0.0       0.0       0.1       1.0
11 O  dx2y2           6.6       0.0       0.4       0.8       0.9       0.3
11 O  dxy             0.6       1.1       0.3       1.4       1.7      15.8
12 O  s               0.0       2.4       0.5       0.8       1.0       0.1
12 O  pz              0.0       1.9       0.2       0.4       0.3       0.1
12 O  px              0.0       0.2       0.0       0.0       0.1       0.0
12 O  py              0.0       0.9       0.0       0.2       0.6       0.0
12 O  dz2             0.0      29.3       1.4       4.6       2.7       0.4
12 O  dxz             0.4       4.6       0.3       0.4       1.6       0.1
12 O  dyz             0.2      10.8       1.8       2.5       4.5       0.5
12 O  dx2y2           0.0       0.1       0.2       0.0       0.0       0.1
12 O  dxy             0.1       0.3       0.5       0.0       0.2       0.0
13 O  s               0.0       0.9       1.2       0.2       2.8       0.2
13 O  pz              0.0       0.9       0.6       0.1       1.0       0.0
13 O  px              0.0       0.4       0.6       0.1       0.7       0.1
13 O  dz2             0.0       0.1       0.1       0.0       0.1       0.0
13 O  dxz             0.0      15.9      11.0       2.1      14.4       0.7
13 O  dyz             0.0       0.0       0.2       0.3       0.5       0.0
13 O  dx2y2           0.0       4.8       5.8       1.2       6.3       0.3
13 O  dxy             0.0       0.0       0.7       1.0       0.8       0.2
14 O  s               0.0       0.1       0.4       2.0       2.5       0.2
14 O  pz              0.0       0.0       0.0       0.5       0.3       0.0
14 O  py              0.0       0.1       0.3       2.1       1.5       0.1
14 O  dz2             0.0       0.1       0.3       0.1       0.9       0.2
14 O  dxz             0.0       0.0       0.1       1.1       0.4       0.0
14 O  dyz             0.3       0.5       1.3      16.2      10.4       0.3
14 O  dx2y2           0.2       0.5       1.7      13.5       7.4       0.4
14 O  dxy             0.3       0.2       1.1       4.4       2.3       0.1
15 O  s               0.0       0.1       3.2       0.5       0.5       0.9
15 O  px              0.0       0.1       2.2       1.1       0.2       0.2
15 O  py              0.0       0.0       0.8       0.2       0.1       0.3
15 O  dz2             0.0       0.2       8.1       1.1       1.3       2.3
15 O  dxz             0.0       0.0       0.3       0.6       0.0       0.0
15 O  dyz             0.1       0.0       0.4       0.4       0.0       0.0
15 O  dx2y2           0.0       0.1       0.0       0.3       0.0       0.3
15 O  dxy             0.0       1.2      29.6      13.4       3.3       2.9
16 O  s               2.8       0.0       0.0       0.0       0.0       0.3
16 O  pz              0.2       0.0       0.0       0.0       0.0       0.0
16 O  px              3.5       0.0       0.0       0.0       0.0       0.2
16 O  py              0.4       0.0       0.0       0.0       0.0       0.0
16 O  dz2            11.1       0.0       0.1       0.0       0.0       0.5
16 O  dxz             0.2       0.0       0.0       0.0       0.0       0.2
16 O  dyz             1.1       0.0       0.0       0.0       0.0       0.1
16 O  dx2y2           5.7       0.1       0.1       0.1       0.1       1.1
16 O  dxy            41.2       0.0       0.0       0.1       0.1       0.7
19 H  s               0.0       0.6       0.0       0.1       0.1       0.0
20 H  s               0.0       0.3       0.2       0.0       0.2       0.0
21 H  s               0.0       0.0       0.1       0.5       0.2       0.0
22 H  s               0.0       0.0       0.3       0.4       0.0       0.0
23 H  s               0.8       0.0       0.0       0.0       0.0       0.0



                      *****************************
                      * MAYER POPULATION ANALYSIS *
                      *****************************

  NA   - Mulliken gross atomic population
  ZA   - Total nuclear charge
  QA   - Mulliken gross atomic charge
  VA   - Mayer's total valence
  BVA  - Mayer's bonded valence
  FA   - Mayer's free valence

  ATOM       NA         ZA         QA         VA         BVA        FA
  0 C      5.9514     6.0000     0.0486     3.9665     3.9665    -0.0000
  1 C      5.9620     6.0000     0.0380     4.0218     4.0218    -0.0000
  2 H      0.9228     1.0000     0.0772     0.9791     0.9791    -0.0000
  3 C      6.0037     6.0000    -0.0037     4.0745     4.0745     0.0000
  4 H      0.9290     1.0000     0.0710     0.9855     0.9855    -0.0000
  5 C      5.9301     6.0000     0.0699     4.1226     4.1226    -0.0000
  6 H      0.9681     1.0000     0.0319     0.9808     0.9808    -0.0000
  7 C      5.8861     6.0000     0.1139     3.9376     3.9376     0.0000
  8 H      0.9145     1.0000     0.0855     0.9960     0.9960    -0.0000
  9 C      5.8746     6.0000     0.1254     4.1538     4.1538     0.0000
 10 H      0.9323     1.0000     0.0677     0.9849     0.9849    -0.0000
 11 O      8.3161     8.0000    -0.3161     2.1521     2.1521     0.0000
 12 O      8.3887     8.0000    -0.3887     2.0335     2.0335    -0.0000
 13 O      8.4122     8.0000    -0.4122     2.0121     2.0121     0.0000
 14 O      8.4085     8.0000    -0.4085     2.0387     2.0387    -0.0000
 15 O      8.4333     8.0000    -0.4333     2.0133     2.0133     0.0000
 16 O      8.4476     8.0000    -0.4476     2.0252     2.0252    -0.0000
 17 H      0.9176     1.0000     0.0824     0.9549     0.9549    -0.0000
 18 H      0.9300     1.0000     0.0700     0.9892     0.9892     0.0000
 19 H      0.6967     1.0000     0.3033     0.8900     0.8900    -0.0000
 20 H      0.7048     1.0000     0.2952     0.8910     0.8910     0.0000
 21 H      0.6941     1.0000     0.3059     0.9033     0.9033    -0.0000
 22 H      0.6899     1.0000     0.3101     0.9252     0.9252    -0.0000
 23 H      0.6857     1.0000     0.3143     0.8723     0.8723    -0.0000

  Mayer bond orders larger than 0.100000
B(  0-C ,  1-C ) :   1.0732 B(  0-C , 16-O ) :   1.0449 B(  0-C , 17-H ) :   0.9163 
B(  0-C , 18-H ) :   0.9030 B(  1-C ,  2-H ) :   0.8822 B(  1-C ,  3-C ) :   0.9749 
B(  1-C , 11-O ) :   0.9834 B(  3-C ,  4-H ) :   0.8790 B(  3-C ,  5-C ) :   1.0510 
B(  3-C , 15-O ) :   1.0682 B(  5-C ,  6-H ) :   0.8488 B(  5-C ,  7-C ) :   1.0275 
B(  5-C , 14-O ) :   1.1131 B(  7-C ,  8-H ) :   0.8629 B(  7-C ,  9-C ) :   0.9805 
B(  7-C , 13-O ) :   1.0494 B(  9-C , 10-H ) :   0.8986 B(  9-C , 11-O ) :   1.0605 
B(  9-C , 12-O ) :   1.0920 B( 12-O , 19-H ) :   0.8356 B( 13-O , 20-H ) :   0.8508 
B( 14-O , 21-H ) :   0.8318 B( 15-O , 22-H ) :   0.8112 B( 16-O , 23-H ) :   0.8430 


-------
TIMINGS
-------

Total SCF time: 0 days 0 hours 0 min 6 sec 

Total time                  ....       6.194 sec
Sum of individual times     ....       6.161 sec  ( 99.5%)

SCF preparation             ....       0.063 sec  (  1.0%)
Fock matrix formation       ....       5.889 sec  ( 95.1%)
  Startup                   ....       0.008 sec  (  0.1% of F)
  Split-RI-J                ....       2.983 sec  ( 50.7% of F)
  XC integration            ....       2.619 sec  ( 44.5% of F)
    XC Preparation          ....       0.000 sec  (  0.0% of XC)
    Basis function eval.    ....       1.085 sec  ( 41.4% of XC)
    Density eval.           ....       0.598 sec  ( 22.8% of XC)
    XC-Functional eval.     ....       0.161 sec  (  6.2% of XC)
    XC-Potential eval.      ....       0.605 sec  ( 23.1% of XC)
Diagonalization             ....       0.000 sec  (  0.0%)
Density matrix formation    ....       0.029 sec  (  0.5%)
Total Energy calculation    ....       0.002 sec  (  0.0%)
Population analysis         ....       0.061 sec  (  1.0%)
Orbital Transformation      ....       0.017 sec  (  0.3%)
Orbital Orthonormalization  ....       0.000 sec  (  0.0%)
DIIS solution               ....       0.079 sec  (  1.3%)
  MO trafo                  ....       0.000 sec  (  0.0 % of DIIS)
  Orb grad                  ....       0.000 sec  (  0.0 % of DIIS)
  Energy W gradient         ....       0.000 sec  (  0.0 % of DIIS)
  DIIS error                ....       0.006 sec  (  7.9 % of DIIS)
  DIIS work                 ....       0.063 sec  ( 80.1 % of DIIS)
  Form Q                    ....       0.000 sec  (  0.0 % of DIIS)
  Form QpQm                 ....       0.000 sec  (  0.0 % of DIIS)
  Exp/Cayley                ....       0.000 sec  (  0.0 % of DIIS)
  Orb update                ....       0.000 sec  (  0.0 % of DIIS)
  Wake-sleep                ....       0.001 sec  (  1.4 % of DIIS)
SOSCF solution              ....       0.021 sec  (  0.3%)
  MO trafo                  ....       0.013 sec  ( 60.1 % of SOSCF)
  Orb grad                  ....       0.000 sec  (  0.9 % of SOSCF)
  Rot update                ....       0.002 sec  (  8.2 % of SOSCF)
  Step                      ....       0.006 sec  ( 30.4 % of SOSCF)
Finished LeanSCF after   6.2 sec

Maximum memory used throughout the entire LEANSCF-calculation: 18.9 MB


-------------------------------------------------------------------------------
                          DFT DISPERSION CORRECTION                            
                                                                               
                                DFTD4 V3.4.0                                   
-------------------------------------------------------------------------------
The PBE functional is recognized
Active option DFTDOPT                   ...         5   

-------------------------   ----------------
Dispersion correction           -0.024675238
-------------------------   ----------------

------------------   -----------------
gCP correction             0.156536294
------------------   -----------------

-------------------------   --------------------
FINAL SINGLE POINT ENERGY      -685.693420898639
-------------------------   --------------------


------------------------------------------------------------------------------
                              ORCA PROPERTY CALCULATIONS
------------------------------------------------------------------------------

GBWName                                 ... sp.gbw
Number of atoms                         ...     24
Number of basis functions               ...    192
Max core memory                         ...   1024 MB

Electric properties:
Dipole moment                           ... YES
Quadrupole moment                       ...  NO
Static polarizability (Dipole/Dipole)   ...  NO
Static polarizability (Dipole/Quad.)    ...  NO
Static polarizability (Quad./Quad.)     ...  NO
Static polarizability (Velocity)        ...  NO

Atomic electric properties:
Dipole moment                           ...  NO
Quadrupole moment                       ...  NO
Static polarizability                   ...  NO

Choice of electric origin               ... Center of mass
Position of electric origin             ...    -0.000005    -0.000007     0.000001

General magnetic properties:
Magnetizability                         ...  NO

EPR properties:
g-Tensor (aka g-matrix)                 ...  NO
Zero-Field splitting spin-orbit         ...  NO
Zero-field splitting spin-spin          ...  NO
Hyperfine couplings                     ...  NO (   0 nuclei)
Quadrupole couplings                    ...  NO (   0 nuclei)
Contact density                         ...  NO (   0 nuclei)

NMR properties:
Chemical shifts                         ...  NO (   0 nuclei)
Spin-rotation constants                 ...  NO (   0 nuclei)
Spin-spin couplings                     ...  NO (   0 nuclei,    0 pairs)

Choice of magnetic origin               ... GIAO
Position of magnetic origin             ...     0.000000     0.000000     0.000000

Properties with geometric perturbations:
SCF Hessian                             ...  NO
IR spectrum                             ...  NO
VCD spectrum                            ...  NO
X-ray spectroscopy properties:
SCF XES/XAS/RIXS spectra                ...  NO


-------------
DIPOLE MOMENT
-------------

Method             : SCF
Type of density    : Electron Density
Multiplicity       :   1
Irrep              :   0
Energy             :  -685.8252819546571573 Eh
Relativity type    : 
Basis              : AO
                                X                 Y                 Z
Electronic contribution:      2.115460133       1.337111612       0.449866969
Nuclear contribution   :     -3.609587452      -2.766787737      -0.387687577
                        -----------------------------------------
Total Dipole Moment    :     -1.494127319      -1.429676124       0.062179392
                        -----------------------------------------
Magnitude (a.u.)       :      2.068878088
Magnitude (Debye)      :      5.258670186



--------------------
Rotational spectrum 
--------------------
 
Rotational constants in cm-1:             0.044185             0.026375             0.019123 
Rotational constants in MHz :          1324.637941           790.689620           573.293143 

Dipole components along the rotational axes: 
x,y,z [a.u.] :     1.788733    -1.032188     0.123606 
x,y,z [Debye]:     4.546598    -2.623613     0.314183 

 

Dipole moment calculation done in   0.0 sec 

Maximum memory used throughout the entire PROP-calculation: 12.5 MB

--------------------------------
SUGGESTED CITATIONS FOR THIS RUN
--------------------------------

Below you find a list of papers that are relevant to this ORCA run
We neither can nor want to force you to cite these papers, but we appreciate if you do
You receive ORCA, which is the product of decades of hard work by many enthusiastic individuals, for free
The only thing we kindly ask in return is that you cite our papers,
We deeply appreciate it, if you show your appreciation for ORCA by not just citing the generic ORCA reference.

Please note that relegating all ORCA citations to the supporting information does *not* help us.
SI sections are not indexed - citations you put there will not count into any citation statistics
But we need these citations in order to attract the funding resources that allow us to do what we are doing

Therefore, if you are a happy ORCA user, please consider citing a few of the papers listed below in the main body of your paper

In addition to the list printed below, the program has created the file sp.bibtex that contains the list in bibtex format
You can import this file easily into all common literature databanks and citation aid programs


List of essential papers. We consider these as the minimum necessary citations

  1. Neese,F.
     Software update: the ORCA program system, version 5.0
     WIRES Comput. Molec. Sci., 2022 12(1)e1606
     doi.org/10.1002/wcms.1606

List of papers to cite with high priority. The work reported in these papers was absolutely
necessary for this run to complete.
Our perspective: the developers of density functionals and basis sets usually get cited in chemistry papers
Good! But without the algorithms to do something with them, the functionals or basis sets would not do anything.
Hence, in our opinion, the algorithm design and method developments papers are equally worthy of getting cited

  1. Neese,F.
     An improvement of the resolution of the identity approximation for the formation of the Coulomb matrix
     J. Comp. Chem., 2003 24(14)1740-1747
     doi.org/10.1002/jcc.10318
  2. Neese,F.
     The SHARK Integral Generation and Digestion System
     J. Comp. Chem., 2022  1-16
     doi.org/10.1002/jcc.26942
  3. Caldeweyher,E.; Bannwarth,C.; Grimme,S.
     Extension of the D3 dispersion coefficient model
     J. Chem. Phys., 2017 147 034112
     doi.org/10.1063/1.4993215
  4. Caldeweyher,E.; Ehlert,S.; Hansen,A.; Neugebauer,H.; Spicher,S.; Bannwarth,C.; Grimme,S.
     A generally applicable atomic-charge dependent London dispersion correction
     J. Chem. Phys., 2019 150 154122
     doi.org/10.1063/1.5090222
  5. Caldeweyher,E.; Mewes,J.; Ehlert,S.; Grimme,S.
     Extension and evaluation of the D4 London-dispersion model for periodic systems
     Phys. Chem. Chem. Phys., 2020 22(16)8499-8512
     doi.org/10.1039/D0CP00502A
  6. Wittmann,L.; Gordiy,I.; Friede,M.; Helmich-Paris,B.; Grimme,S.; Hansen,A.; Bursch,M.
     Extension of the D3 and D4 London Dispersion Corrections to the full Actinides Series
     Phys. Chem. Chem. Phys., 2024 26(32)21379-21394
     doi.org/https://doi.org/10.1039/D4CP01514B 

List of suggested additional citations. These are papers that are important in the 'surrounding' of 
of this run, or papers that preceded the highly important papers. If you like your results we are grateful for a citation.

  1. Neese,F.
     The ORCA program system
     WIRES Comput. Molec. Sci., 2012 2(1)73-78
     doi.org/10.1002/wcms.81
  2. Neese,F.
     Software update: the ORCA program system, version 4.0
     WIRES Comput. Molec. Sci., 2018 8(1)1-6
     doi.org/10.1002/wcms.1327
  3. Neese,F.; Wennmohs,F.; Becker,U.; Riplinger,C.
     The ORCA quantum chemistry program package
     J. Chem. Phys., 2020 152 Art. No. L224108
     doi.org/10.1063/5.0004608

List of optional additional citations

  1. Neese,F.
     Approximate second-order SCF convergence for spin unrestricted wavefunctions
     Chem. Phys. Lett., 2000 325(1-3)93-98
     doi.org/10.1016/s0009-2614(00)00662-x

Timings for individual modules:

Sum of individual times          ...        7.636 sec (=   0.127 min)
Startup calculation              ...        0.613 sec (=   0.010 min)   8.0 %
SCF iterations                   ...        6.958 sec (=   0.116 min)  91.1 %
Property calculations            ...        0.065 sec (=   0.001 min)   0.9 %
                             ****ORCA TERMINATED NORMALLY****
TOTAL RUN TIME: 0 days 0 hours 0 minutes 7 seconds 873 msec
