
                                 *****************
                                 * O   R   C   A *
                                 *****************

                                            #,                                       
                                            ###                                      
                                            ####                                     
                                            #####                                    
                                            ######                                   
                                           ########,                                 
                                     ,,################,,,,,                         
                               ,,#################################,,                 
                          ,,##########################################,,             
                       ,#########################################, ''#####,          
                    ,#############################################,,   '####,        
                  ,##################################################,,,,####,       
                ,###########''''           ''''###############################       
              ,#####''   ,,,,##########,,,,          '''####'''          '####       
            ,##' ,,,,###########################,,,                        '##       
           ' ,,###''''                  '''############,,,                           
         ,,##''                                '''############,,,,        ,,,,,,###''
      ,#''                                            '''#######################'''  
     '                                                          ''''####''''         
             ,#######,   #######,   ,#######,      ##                                
            ,#'     '#,  ##    ##  ,#'     '#,    #''#        ,####,   ,####,        
            ##       ##  ##   ,#'  ##            #'  '#       #'       #'  '#        
            ##       ##  #######   ##           ,######,      #####,   #    #        
            '#,     ,#'  ##    ##  '#,     ,#' ,#      #,     #,   #   #,  ,#        
             '#######'   ##     ##  '#######'  #'      '#     '####' # '####'        



                #########################################################
                #                        -***-                          #
                #          Department of theory and spectroscopy        #
                #                                                       #
                #                      Frank Neese                      #
                #                                                       #
                #     Directorship, Architecture, Infrastructure        #
                #                    SHARK, DRIVERS                     #
                #        Core code/Algorithms in most modules           #
                #                                                       #
                #        Max Planck Institute fuer Kohlenforschung      #
                #                Kaiser Wilhelm Platz 1                 #
                #                 D-45470 Muelheim/Ruhr                 #
                #                      Germany                          #
                #                                                       #
                #                  All rights reserved                  #
                #                        -***-                          #
                #########################################################


                         Program Version 6.0.0  -   RELEASE  -


 With contributions from (in alphabetic order):
   Daniel Aravena         : Magnetic Suceptibility
   Michael Atanasov       : Ab Initio Ligand Field Theory (pilot matlab implementation)
   Alexander A. Auer      : GIAO ZORA, VPT2 properties, NMR spectrum
   Ute Becker             : All parallelization in ORCA, NUMFREQ, NUMCALC
   Giovanni Bistoni       : ED, misc. LED, open-shell LED, HFLD
   Martin Brehm           : Molecular dynamics
   Dmytro Bykov           : pre 5.0 version of the SCF Hessian
   Marcos Casanova-Páez   : Triplet and SCS-CIS(D). UHF-(DLPNO)-IP/EA/STEOM-CCSD. UHF-CVS-IP/STEOM-CCSD
   Vijay G. Chilkuri      : MRCI spin determinant printing, contributions to CSF-ICE
   Pauline Colinet        : FMM embedding
   Dipayan Datta          : RHF DLPNO-CCSD density
   Achintya Kumar Dutta   : EOM-CC, STEOM-CC
   Nicolas Foglia         : Exact transition moments, OPA infrastructure, MCD improvements
   Dmitry Ganyushin       : Spin-Orbit,Spin-Spin,Magnetic field MRCI
   Miquel Garcia          : C-PCM and meta-GGA Hessian, CCSD/C-PCM, Gaussian charge scheme
   Tiago L. C. Gouveia    : GS-ROHF, GS-ROCIS
   Yang Guo               : DLPNO-NEVPT2, F12-NEVPT2, CIM, IAO-localization
   Andreas Hansen         : Spin unrestricted coupled pair/coupled cluster methods
   Ingolf Harden          : AUTO-CI MPn and infrastructure 
   Benjamin Helmich-Paris : MC-RPA, TRAH-(SCF,CASSCF), AVAS, COSX integrals, SCF dyn. polar.
   Lee Huntington         : MR-EOM, pCC
   Robert Izsak           : Overlap fitted RIJCOSX, COSX-SCS-MP3, EOM
   Riya Kayal             : Wick's Theorem for AUTO-CI, AUTO-CI UHF-CCSDT
   Emily Kempfer          : AUTO-CI, RHF CISDT and CCSDT
   Christian Kollmar      : KDIIS, OOCD, Brueckner-CCSD(T), CCSD density, CASPT2, CASPT2-K, improved NEVPT2
   Axel Koslowski         : Symmetry handling
   Simone Kossmann        : Meta GGA functionals, TD-DFT gradient, OOMP2, (MP2 Hessian; deprecated post 5.0)
   Lucas Lang             : DCDCAS
   Marvin Lechner         : AUTO-CI (C++ implementation), FIC-MRCC
   Spencer Leger          : CASSCF response
   Dagmar Lenk            : GEPOL surface, SMD, ORCA-2-JSON
   Dimitrios Liakos       : Extrapolation schemes; Compound Job, initial MDCI parallelization
   Dimitrios Manganas     : Further ROCIS development; embedding schemes. LFT, Crystal Embedding
   Dimitrios Pantazis     : SARC Basis sets
   Anastasios Papadopoulos: AUTO-CI, single reference methods and gradients
   Taras Petrenko         : pre 6.0 DFT Hessian and TD-DFT gradient, (ASA, deprecated), ECA, 1-Electron XAS/XES, NRVS
   Peter Pinski           : DLPNO-MP2, DLPNO-MP2 Gradient
   Christoph Reimann      : Effective Core Potentials
   Marius Retegan         : Local ZFS, SOC
   Christoph Riplinger    : Optimizer, TS searches, QM/MM, DLPNO-CCSD(T), (RO)-DLPNO pert. Triples
   Michael Roemelt        : Original ROCIS implementation
   Masaaki Saitow         : Open-shell DLPNO-CCSD energy and density
   Barbara Sandhoefer     : DKH picture change effects
   Kantharuban Sivalingam : CASSCF convergence/infrastructure, NEVPT2 and variants, FIC-MRCI
   Bernardo de Souza      : ESD, SOC TD-DFT
   Georgi Stoychev        : AutoAux, RI-MP2 NMR, DLPNO-MP2 response, X2C
   Van Anh Tran           : RI-MP2 g-tensors
   Willem Van den Heuvel  : Paramagnetic NMR
   Zikuan Wang            : NOTCH, Electric field optimization 
   Frank Wennmohs         : Technical directorship and infrastructure
   Hang Xu                : AUTO-CI-Response properties 


 We gratefully acknowledge several colleagues who have allowed us to
 interface, adapt or use parts of their codes:
   Stefan Grimme, W. Hujo, H. Kruse, P. Pracht,  : VdW corrections, initial TS optimization,
                  C. Bannwarth, S. Ehlert,         DFT functionals, gCP, sTDA/sTD-DF
                  L. Wittmann, M. Mueller
   Ed Valeev, F. Pavosevic, A. Kumar             : LibInt (2-el integral package), F12 methods
   Garnet Chan, S. Sharma, J. Yang, R. Olivares  : DMRG
   Ulf Ekstrom                                   : XCFun DFT Library
   Mihaly Kallay                                 : mrcc  (arbitrary order and MRCC methods)
   Frank Weinhold                                : gennbo (NPA and NBO analysis)
   Simon Mueller                                 : openCOSMO-RS
   Christopher J. Cramer and Donald G. Truhlar   : smd solvation model
   Lars Goerigk                                  : TD-DFT with DH, B97 family of functionals
   V. Asgeirsson, H. Jonsson                     : NEB implementation
   FAccTs GmbH                                   : IRC, NEB, NEB-TS, DLPNO-Multilevel, CI-OPT
                                                   MM, QMMM, 2- and 3-layer-ONIOM, Crystal-QMMM,
                                                   LR-CPCM, SF, NACMEs, symmetry and pop. for TD-DFT,
                                                   nearIR, NL-DFT gradient (VV10), updates on ESD,
                                                   ML-optimized integration grids, MBIS, APM,
                                                   GOAT, DOCKER, SOLVATOR, interface openCOSMO-RS
   S Lehtola, MJT Oliveira, MAL Marques          : LibXC Library
   Liviu Ungur et al                             : ANISO software


 Your calculation uses the libint2 library for the computation of 2-el integrals
 For citations please refer to: http://libint.valeyev.net

 Your ORCA version has been built with support for libXC version: 6.2.2
 For citations please refer to: https://libxc.gitlab.io

 This ORCA versions uses:
   CBLAS   interface :  Fast vector & matrix operations
   LAPACKE interface :  Fast linear algebra routines
   SCALAPACK package :  Parallel linear algebra routines
   Shared memory     :  Shared parallel matrices
   BLAS/LAPACK       :  OpenBLAS 0.3.27  USE64BITINT DYNAMIC_ARCH NO_AFFINITY SkylakeX SINGLE_THREADED
        Core in use  :  SkylakeX
   Copyright (c) 2011-2014, The OpenBLAS Project




***************************************
The coordinates will be read from file: vacuum_censo.xyz
***************************************


Your calculation utilizes the geometrical counterpoise correction gCP
Please cite in your paper:
H.Kruse, S. Grimme J.Chem.Phys., 136, (2012), 154101 
   

Your calculation utilizes the atom-pairwise dispersion correction
based on EEQ partial charges (D4)


================================================================================

----- Orbital basis set information -----
Your calculation utilizes the basis: def2-TZVP
   F. Weigend and R. Ahlrichs, Phys. Chem. Chem. Phys. 7, 3297 (2005).

----- AuxJ basis set information -----
Your calculation utilizes the basis: def2-mTZVPP/J
   Stefan Grimme, Andreas Hansen, Sebastian Ehlert, and Jan-Michael Mewes 
   J. Chem. Phys. 154, 000000 (2021). DOI: 10.1063/5.0040021

================================================================================
                                        WARNINGS
                       Please study these warnings very carefully!
================================================================================

Using LibXC functional ID 497 : Re-regularized SCAN exchange by Furness et al
[ 1]  J. W. Furness, A. D. Kaplan, J. Ning, J. P. Perdew, and J. Sun.,  J. Phys. Chem. Lett. 11, 8208-8215 (2020)
[ 2]  J. W. Furness, A. D. Kaplan, J. Ning, J. P. Perdew, and J. Sun.,  J. Phys. Chem. Lett. 11, 9248-9248 (2020)
Using LibXC functional ID 498 : Re-regularized SCAN correlation by Furness et al
[ 1]  J. W. Furness, A. D. Kaplan, J. Ning, J. P. Perdew, and J. Sun.,  J. Phys. Chem. Lett. 11, 8208-8215 (2020)
[ 2]  J. W. Furness, A. D. Kaplan, J. Ning, J. P. Perdew, and J. Sun.,  J. Phys. Chem. Lett. 11, 9248-9248 (2020)
Using LibXC functional ID 497 : Re-regularized SCAN exchange by Furness et al
[ 1]  J. W. Furness, A. D. Kaplan, J. Ning, J. P. Perdew, and J. Sun.,  J. Phys. Chem. Lett. 11, 8208-8215 (2020)
[ 2]  J. W. Furness, A. D. Kaplan, J. Ning, J. P. Perdew, and J. Sun.,  J. Phys. Chem. Lett. 11, 9248-9248 (2020)
Using LibXC functional ID 498 : Re-regularized SCAN correlation by Furness et al
[ 1]  J. W. Furness, A. D. Kaplan, J. Ning, J. P. Perdew, and J. Sun.,  J. Phys. Chem. Lett. 11, 8208-8215 (2020)
[ 2]  J. W. Furness, A. D. Kaplan, J. Ning, J. P. Perdew, and J. Sun.,  J. Phys. Chem. Lett. 11, 9248-9248 (2020)

================================================================================
                                       INPUT FILE
================================================================================
NAME = vacuum_censo.inp
|  1> ! r2SCAN-3c DEF2-TZVP FREQ
|  2> * xyzfile 0 1 vacuum_censo.xyz
|  3> 
|  4>                          ****END OF INPUT****
================================================================================

                       ****************************
                       * Single Point Calculation *
                       ****************************

---------------------------------
CARTESIAN COORDINATES (ANGSTROEM)
---------------------------------
  C     -0.679398   -2.182096   -0.000005
  C      0.202189   -0.969391   -0.000019
  C      1.595380   -1.085774   -0.000032
  C      2.425788    0.029275   -0.000083
  C      1.872019    1.304860   -0.000104
  C      0.490124    1.458598   -0.000085
  C     -0.318157    0.328777   -0.000052
  Cl    -2.063098    0.555454   -0.000086
  H     -1.331809   -2.195600   -0.879220
  H     -0.077533   -3.093245    0.000373
  H     -1.332347   -2.195209    0.878811
  H      2.030225   -2.081191   -0.000009
  H      3.503054   -0.099297   -0.000103
  H      2.508548    2.183468   -0.000140
  H      0.038119    2.443673   -0.000104

----------------------------
CARTESIAN COORDINATES (A.U.)
----------------------------
  NO LB      ZA    FRAG     MASS         X           Y           Z
   0 C     6.0000    0    12.011   -1.283876   -4.123563   -0.000010
   1 C     6.0000    0    12.011    0.382082   -1.831883   -0.000035
   2 C     6.0000    0    12.011    3.014832   -2.051816   -0.000061
   3 C     6.0000    0    12.011    4.584076    0.055321   -0.000157
   4 C     6.0000    0    12.011    3.537604    2.465828   -0.000196
   5 C     6.0000    0    12.011    0.926200    2.756352   -0.000160
   6 C     6.0000    0    12.011   -0.601229    0.621299   -0.000098
   7 Cl   17.0000    0    35.453   -3.898690    1.049655   -0.000163
   8 H     1.0000    0     1.008   -2.516755   -4.149082   -1.661485
   9 H     1.0000    0     1.008   -0.146515   -5.845385    0.000704
  10 H     1.0000    0     1.008   -2.517771   -4.148343    1.660712
  11 H     1.0000    0     1.008    3.836569   -3.932881   -0.000017
  12 H     1.0000    0     1.008    6.619813   -0.187644   -0.000194
  13 H     1.0000    0     1.008    4.740468    4.126156   -0.000264
  14 H     1.0000    0     1.008    0.072035    4.617873   -0.000196

--------------------------------
INTERNAL COORDINATES (ANGSTROEM)
--------------------------------
 C      0   0   0     0.000000000000     0.00000000     0.00000000
 C      1   0   0     1.499282615511     0.00000000     0.00000000
 C      2   1   0     1.398044070618   121.24037887     0.00000000
 C      3   2   1     1.390291577348   121.90084530   179.99814536
 C      4   3   2     1.390603760602   119.85684180     0.00000000
 C      5   4   3     1.390420816393   119.81522574     0.00000000
 C      6   5   4     1.389177425011   119.23199214     0.00000000
 Cl     7   6   5     1.759603090899   118.17858632   180.00212000
 H      1   2   3     1.094916221630   111.12076192   239.41003304
 H      1   2   3     1.091986252448   110.53737964     0.00000000
 H      1   2   3     1.094912324164   111.12173132   120.63430587
 H      3   2   1     1.086252397526   118.37317289     0.00000000
 H      4   3   2     1.084911307127   119.87002972   180.00066729
 H      5   4   3     1.084951580088   120.61057968   179.99978803
 H      6   5   4     1.083826662270   120.99631870   180.00022541

---------------------------
INTERNAL COORDINATES (A.U.)
---------------------------
 C      0   0   0     0.000000000000     0.00000000     0.00000000
 C      1   0   0     2.833233540665     0.00000000     0.00000000
 C      2   1   0     2.641920416620   121.24037887     0.00000000
 C      3   2   1     2.627270327485   121.90084530   179.99814536
 C      4   3   2     2.627860268338   119.85684180     0.00000000
 C      5   4   3     2.627514553886   119.81522574     0.00000000
 C      6   5   4     2.625164884696   119.23199214     0.00000000
 Cl     7   6   5     3.325167946200   118.17858632   180.00212000
 H      1   2   3     2.069091798469   111.12076192   239.41003304
 H      1   2   3     2.063554959134   110.53737964     0.00000000
 H      1   2   3     2.069084433326   111.12173132   120.63430587
 H      3   2   1     2.052719543640   118.37317289     0.00000000
 H      4   3   2     2.050185250065   119.87002972   180.00066729
 H      5   4   3     2.050261354932   120.61057968   179.99978803
 H      6   5   4     2.048135568332   120.99631870   180.00022541

---------------------
BASIS SET INFORMATION
---------------------
There are 3 groups of distinct atoms

 Group   1 Type C   : 11s6p2d1f contracted to 5s3p2d1f pattern {62111/411/11/1}
 Group   2 Type Cl  : 14s9p3d1f contracted to 5s5p2d1f pattern {73211/51111/21/1}
 Group   3 Type H   : 5s1p contracted to 3s1p pattern {311/1}

Atom   0C    basis set group =>   1
Atom   1C    basis set group =>   1
Atom   2C    basis set group =>   1
Atom   3C    basis set group =>   1
Atom   4C    basis set group =>   1
Atom   5C    basis set group =>   1
Atom   6C    basis set group =>   1
Atom   7Cl   basis set group =>   2
Atom   8H    basis set group =>   3
Atom   9H    basis set group =>   3
Atom  10H    basis set group =>   3
Atom  11H    basis set group =>   3
Atom  12H    basis set group =>   3
Atom  13H    basis set group =>   3
Atom  14H    basis set group =>   3
---------------------------------
AUXILIARY/J BASIS SET INFORMATION
---------------------------------
There are 3 groups of distinct atoms

 Group   1 Type C   : 8s3p3d contracted to 6s3p3d pattern {311111/111/111}
 Group   2 Type Cl  : 14s5p5d2f contracted to 8s4p3d1f pattern {71111111/2111/311/2}
 Group   3 Type H   : 5s2p1d contracted to 3s1p1d pattern {311/2/1}

Atom   0C    basis set group =>   1
Atom   1C    basis set group =>   1
Atom   2C    basis set group =>   1
Atom   3C    basis set group =>   1
Atom   4C    basis set group =>   1
Atom   5C    basis set group =>   1
Atom   6C    basis set group =>   1
Atom   7Cl   basis set group =>   2
Atom   8H    basis set group =>   3
Atom   9H    basis set group =>   3
Atom  10H    basis set group =>   3
Atom  11H    basis set group =>   3
Atom  12H    basis set group =>   3
Atom  13H    basis set group =>   3
Atom  14H    basis set group =>   3
------------------------------------------------------------------------------
                             ORCA STARTUP CALCULATIONS
                           -- RI-GTO INTEGRALS CHOSEN --
------------------------------------------------------------------------------
------------------------------------------------------------------------------
                   ___                                                        
                  /   \      - P O W E R E D   B Y -                         
                 /     \                                                     
                 |  |  |   _    _      __       _____    __    __             
                 |  |  |  | |  | |    /  \     |  _  \  |  |  /  |          
                  \  \/   | |  | |   /    \    | | | |  |  | /  /          
                 / \  \   | |__| |  /  /\  \   | |_| |  |  |/  /          
                |  |  |   |  __  | /  /__\  \  |    /   |      \           
                |  |  |   | |  | | |   __   |  |    \   |  |\   \          
                \     /   | |  | | |  |  |  |  | |\  \  |  | \   \       
                 \___/    |_|  |_| |__|  |__|  |_| \__\ |__|  \__/        
                                                                              
                      - O R C A' S   B I G   F R I E N D -                    
                                      &                                       
                       - I N T E G R A L  F E E D E R -                       
                                                                              
 v1 FN, 2020, v2 2021, v3 2022-2024                                           
------------------------------------------------------------------------------


----------------------
SHARK INTEGRAL PACKAGE
----------------------

Number of atoms                             ...     15
Number of basis functions                   ...    296
Number of shells                            ...    118
Maximum angular momentum                    ...      3
Integral batch strategy                     ... SHARK/LIBINT Hybrid
RI-J (if used) integral strategy            ... SPLIT-RIJ (Revised 2003 algorithm where possible)
Printlevel                                  ...      1
Contraction scheme used                     ... SEGMENTED contraction
Prescreening option                         ... SCHWARTZ
   Thresh                                   ... 1.000e-10
   Tcut                                     ... 1.000e-11
   Tpresel                                  ... 1.000e-11 
Coulomb Range Separation                    ... NOT USED
Exchange Range Separation                   ... NOT USED
Multipole approximations                    ... NOT USED
Finite Nucleus Model                        ... NOT USED
CABS basis                                  ... NOT available
Auxiliary Coulomb fitting basis             ... AVAILABLE
   # of basis functions in Aux-J            ...    329
   # of shells in Aux-J                     ...    135
   Maximum angular momentum in Aux-J        ...      3
Auxiliary J/K fitting basis                 ... NOT available
Auxiliary Correlation fitting basis         ... NOT available
Auxiliary 'external' fitting basis          ... NOT available

Checking pre-screening integrals            ... done (  0.0 sec) Dimension = 118
Check shell pair data                       ... done (  0.0 sec)
Shell pair information
Shell pair cut-off parameter TPreSel        ...   1.0e-11
Total number of shell pairs                 ...      7021
Shell pairs after pre-screening             ...      6410
Total number of primitive shell pairs       ...     22156
Primitive shell pairs kept                  ...     15033
          la=0 lb=0:   1632 shell pairs
          la=1 lb=0:   1828 shell pairs
          la=1 lb=1:    525 shell pairs
          la=2 lb=0:    921 shell pairs
          la=2 lb=1:    504 shell pairs
          la=2 lb=2:    134 shell pairs
          la=3 lb=0:    449 shell pairs
          la=3 lb=1:    253 shell pairs
          la=3 lb=2:    128 shell pairs
          la=3 lb=3:     36 shell pairs

Calculating one electron integrals          ... done (  0.0 sec)
Calculating RI/J V-Matrix + Cholesky decomp.... done (  0.0 sec)
Calculating Nuclear repulsion               ... done (  0.0 sec) ENN=    402.254749886275 Eh

Diagonalization of the overlap matrix:
Smallest eigenvalue                        ... 8.563e-06
Time for diagonalization                   ...    0.009 sec
Threshold for overlap eigenvalues          ... 1.000e-07
Number of eigenvalues below threshold      ... 0
Time for construction of square roots      ...    0.016 sec
Total time needed                          ...    0.032 sec

-------------------
DFT GRID GENERATION
-------------------

General Integration Accuracy     IntAcc      ... 4.388
Radial Grid Type                 RadialGrid  ... OptM3 with GC (2021)
Angular Grid (max. ang.)         AngularGrid ... 4 (Lebedev-302)
Angular grid pruning method      GridPruning ... 4 (adaptive)
Weight generation scheme         WeightScheme... mBecke (2022)
Basis function cutoff            BFCut       ... 1.0000e-10
Integration weight cutoff        WCut        ... 1.0000e-14
Partially contracted basis set               ... off
Rotationally invariant grid construction     ... off
Angular grids for H and He will be reduced by one unit

Total number of grid points                  ...    71896
Total number of batches                      ...     1131
Average number of points per batch           ...       63
Average number of grid points per atom       ...     4793
Initializing property integral containers    ... done (  0.0 sec)

SHARK setup successfully completed in   1.1 seconds

Maximum memory used throughout the entire STARTUP-calculation: 42.8 MB
-------------------------------------------------------------------------------
                                 ORCA GUESS
                   Start orbitals & Density for SCF / CASSCF
-------------------------------------------------------------------------------

------------
SCF SETTINGS
------------
Hamiltonian:
 Density Functional     Method          .... DFT(GTOs)
  Functional kind                       .... Exchange
  Functional name                       .... Re-regularized SCAN exchange by Furness et al
  Functional family                     .... MGGA
  Functional refs                              
    [ 0] J. W. Furness, A. D. Kaplan, J. Ning, J. P. Perdew, and J. Sun.,  J. Phys. Chem. Lett. 11, 8208-8215 (2020), doi: 10.1021/acs.jpclett.0c02405
    [ 1] J. W. Furness, A. D. Kaplan, J. Ning, J. P. Perdew, and J. Sun.,  J. Phys. Chem. Lett. 11, 9248-9248 (2020), doi: 10.1021/acs.jpclett.0c03077
  Functional external parameters        .... 6
    Parameter  0 _c1        =  6.670000e-01 : c1 parameter        
    Parameter  1 _c2        =  8.000000e-01 : c2 parameter        
    Parameter  2 _d         =  1.240000e+00 : d parameter         
    Parameter  3 _k1        =  6.500000e-02 : k1 parameter        
    Parameter  4 _eta       =  1.000000e-03 : eta parameter       
    Parameter  5 _dp2       =  3.610000e-01 : dp2 parameter       
  Functional kind                       .... Correlation
  Functional name                       .... Re-regularized SCAN correlation by Furness et al
  Functional family                     .... MGGA
  Functional refs                              
    [ 0] J. W. Furness, A. D. Kaplan, J. Ning, J. P. Perdew, and J. Sun.,  J. Phys. Chem. Lett. 11, 8208-8215 (2020), doi: 10.1021/acs.jpclett.0c02405
    [ 1] J. W. Furness, A. D. Kaplan, J. Ning, J. P. Perdew, and J. Sun.,  J. Phys. Chem. Lett. 11, 9248-9248 (2020), doi: 10.1021/acs.jpclett.0c03077
  Functional external parameters        .... 1
    Parameter  0 _eta       =  1.000000e-03 : Regularization parameter
 Gradients option       PostSCFGGA      .... off
 RI-approximation to the Coulomb term is turned on
   Number of AuxJ basis functions       .... 329


General Settings:
 Integral files         IntName         .... vacuum_censo
 Hartree-Fock type      HFTyp           .... RHF
 Total Charge           Charge          ....    0
 Multiplicity           Mult            ....    1
 Number of Electrons    NEL             ....   66
 Basis Dimension        Dim             ....  296
 Nuclear Repulsion      ENuc            ....    402.2547498863 Eh

Convergence Acceleration:
 AO-DIIS                CNVDIIS         .... on
   Start iteration      DIISMaxIt       ....    12
   Startup error        DIISStart       ....  0.200000
   # of expansion vecs  DIISMaxEq       ....     5
   Bias factor          DIISBfac        ....   1.050
   Max. coefficient     DIISMaxC        ....  10.000
 MO-DIIS                CNVKDIIS        .... off
 Trust-Rad. Augm. Hess. CNVTRAH         .... auto
   Auto Start mean grad. ratio tolernc. ....  1.125000
   Auto Start start iteration           ....    50
   Auto Start num. interpolation iter.  ....    10
   Max. Number of Micro iterations      ....    24
   Max. Number of Macro iterations      .... Maxiter - #DIIS iter
   Number of Davidson start vectors     ....     2
   Converg. threshold    (grad. norm)   ....   5.000e-05
   Grad. Scal. Fac. for Micro threshold ....   0.100
   Minimum threshold for Micro iter.    ....   1.000e-02
   NR start threshold (gradient norm)   ....   1.000e-04
   Initial trust radius                 ....   0.400
   Minimum AH scaling param. (alpha)    ....   1.000
   Maximum AH scaling param. (alpha)    .... 1000.000
   Quad. conv. algorithm                .... NR
   White noise on init. David. guess    .... on
   Maximum white noise                  ....   0.010
   Pseudo random numbers                .... off
   Inactive MOs                         .... canonical
   Orbital update algorithm             .... Taylor
   Preconditioner                       .... Diag
   Full preconditioner red. dimension   ....   250
   COSX micro iterations for RIJONX calc.... off
 SOSCF                  CNVSOSCF        .... on
   Start iteration      SOSCFMaxIt      ....   150
   Startup grad/error   SOSCFStart      ....  0.003300
   Hessian update       SOSCFHessUp     .... L-BFGS
 Level Shifting         CNVShift        .... on
   Level shift para.    LevelShift      ....    0.2500
   Turn off err/grad.   ShiftErr        ....    0.0010
 Zerner damping         CNVZerner       .... off
 Static damping         CNVDamp         .... on
   Fraction old density DampFac         ....    0.7000
   Max. Damping (<1)    DampMax         ....    0.9800
   Min. Damping (>=0)   DampMin         ....    0.0000
   Turn off err/grad.   DampErr         ....    0.1000

SCF Procedure:
 Maximum # iterations   MaxIter         ....   125
 SCF integral mode      SCFMode         .... Direct
   Integral package                     .... SHARK and LIBINT hybrid scheme
 Reset frequency        DirectResetFreq ....    20
 Integral Threshold     Thresh          ....  1.000e-10 Eh
 Primitive CutOff       TCut            ....  1.000e-11 Eh

Convergence Tolerance:
 Convergence Check Mode ConvCheckMode   .... Total+1el-Energy
 Convergence forced     ConvForced      .... 0
 Energy Change          TolE            ....  1.000e-06 Eh
 1-El. energy change                    ....  1.000e-03 Eh
 Orbital Gradient       TolG            ....  5.000e-05
 Orbital Rotation angle TolX            ....  5.000e-05
 DIIS Error             TolErr          ....  1.000e-06

------------------------------
INITIAL GUESS: MODEL POTENTIAL
------------------------------
Loading Hartree-Fock densities                     ... done
Calculating cut-offs                               ... done
Initializing the effective Hamiltonian             ... done
Setting up the integral package (SHARK)            ... done
Starting the Coulomb interaction                   ... done (   0.3 sec)
Making the grid                                    ... done (   0.2 sec)
Mapping shells                                     ... done
Starting the XC term evaluation                    ... done (   0.4 sec)
  promolecular density results
     # of electrons  =     65.997201094
     EX              =    -65.246436282
     EC              =     -2.282864562
     EX+EC           =    -67.529300843
Transforming the Hamiltonian                       ... done (   0.0 sec)
Diagonalizing the Hamiltonian                      ... done (   0.0 sec)
Back transforming the eigenvectors                 ... done (   0.0 sec)
Now organizing SCF variables                       ... done
                      ------------------
                      INITIAL GUESS DONE (   1.0 sec)
                      ------------------
             **** ENERGY FILE WAS UPDATED (vacuum_censo.en.tmp) ****
Finished Guess after   1.2 sec
Maximum memory used throughout the entire GUESS-calculation: 28.0 MB

-------------------------------------------------------------------------------------------
                                      ORCA LEAN-SCF
                              memory conserving SCF solver
-------------------------------------------------------------------------------------------

----------------------------------------D-I-I-S--------------------------------------------
Iteration    Energy (Eh)           Delta-E    RMSDP     MaxDP     DIISErr   Damp  Time(sec)
-------------------------------------------------------------------------------------------
               ***  Starting incremental Fock matrix formation  ***
    1    -730.9093171792374051     0.00e+00  1.45e-03  3.31e-02  1.78e-01  0.700   3.6
    2    -730.9960612954391763    -8.67e-02  1.08e-03  2.57e-02  9.21e-02  0.700   3.3
                               ***Turning on AO-DIIS***
    3    -731.0296423518361735    -3.36e-02  6.52e-04  2.34e-02  3.39e-02  0.700   3.2
    4    -731.0490487146610121    -1.94e-02  1.69e-03  6.81e-02  1.71e-02  0.000   3.0
    5    -731.0921080973830612    -4.31e-02  2.01e-04  7.86e-03  7.39e-03  0.000   3.1
                              *** Initializing SOSCF ***
---------------------------------------S-O-S-C-F--------------------------------------
Iteration    Energy (Eh)           Delta-E    RMSDP     MaxDP     MaxGrad    Time(sec)
--------------------------------------------------------------------------------------
    6    -731.0924655074793463    -3.57e-04  9.42e-05  3.00e-03  1.30e-03     2.9
               *** Restarting incremental Fock matrix formation ***
    7    -731.0924894957540801    -2.40e-05  6.91e-05  2.66e-03  2.02e-04     3.5
    8    -731.0924897002009857    -2.04e-07  1.94e-05  6.24e-04  3.64e-04     2.8
                 **** Energy Check signals convergence ****

               *****************************************************
               *                     SUCCESS                       *
               *           SCF CONVERGED AFTER   8 CYCLES          *
               *****************************************************

             **** ENERGY FILE WAS UPDATED (vacuum_censo.en.tmp) ****

----------------
TOTAL SCF ENERGY
----------------

Total Energy       :       -731.09248970020099 Eh          -19894.03804 eV

Components:
Nuclear Repulsion  :        402.25474988627485 Eh           10945.90822 eV
Electronic Energy  :      -1133.34723958647555 Eh          -30839.94626 eV
One Electron Energy:      -1798.06183542708891 Eh          -48927.74998 eV
Two Electron Energy:        664.71459584061324 Eh           18087.80372 eV

Virial components:
Potential Energy   :      -1460.19704080410611 Eh          -39733.98152 eV
Kinetic Energy     :        729.10455110390501 Eh           19839.94348 eV
Virial Ratio       :          2.00272654805581

DFT components:
N(Alpha)           :       32.999985450549 electrons
N(Beta)            :       32.999985450549 electrons
N(Total)           :       65.999970901099 electrons
E(X)               :      -66.493017055456 Eh       
E(C)               :       -2.227852353786 Eh       
E(XC)              :      -68.720869409241 Eh       

---------------
SCF CONVERGENCE
---------------

  Last Energy change         ...    2.0445e-07  Tolerance :   1.0000e-06
  Last MAX-Density change    ...    6.2375e-04  Tolerance :   1.0000e-05
  Last RMS-Density change    ...    1.9356e-05  Tolerance :   1.0000e-06
  Last DIIS Error            ...    1.2992e-03  Tolerance :   1.0000e-06
  Last Orbital Gradient      ...    3.6425e-04  Tolerance :   5.0000e-05
  Last Orbital Rotation      ...    8.3520e-04  Tolerance :   5.0000e-05


----------------
ORBITAL ENERGIES
----------------

  NO   OCC          E(Eh)            E(eV) 
   0   2.0000    -101.188879     -2753.4894 
   1   2.0000     -10.098056      -274.7821 
   2   2.0000     -10.059784      -273.7406 
   3   2.0000     -10.047090      -273.3952 
   4   2.0000     -10.045946      -273.3641 
   5   2.0000     -10.045876      -273.3622 
   6   2.0000     -10.044317      -273.3198 
   7   2.0000     -10.034622      -273.0559 
   8   2.0000      -9.365006      -254.8348 
   9   2.0000      -7.109783      -193.4670 
  10   2.0000      -7.100126      -193.2043 
  11   2.0000      -7.099462      -193.1862 
  12   2.0000      -0.857775       -23.3412 
  13   2.0000      -0.800287       -21.7769 
  14   2.0000      -0.750212       -20.4143 
  15   2.0000      -0.704790       -19.1783 
  16   2.0000      -0.660290       -17.9674 
  17   2.0000      -0.581656       -15.8277 
  18   2.0000      -0.559378       -15.2214 
  19   2.0000      -0.484245       -13.1770 
  20   2.0000      -0.449132       -12.2215 
  21   2.0000      -0.431605       -11.7446 
  22   2.0000      -0.403314       -10.9747 
  23   2.0000      -0.400354       -10.8942 
  24   2.0000      -0.389661       -10.6032 
  25   2.0000      -0.365074        -9.9342 
  26   2.0000      -0.352603        -9.5948 
  27   2.0000      -0.330587        -8.9957 
  28   2.0000      -0.325781        -8.8649 
  29   2.0000      -0.310596        -8.4518 
  30   2.0000      -0.283042        -7.7020 
  31   2.0000      -0.241142        -6.5618 
  32   2.0000      -0.226976        -6.1763 
  33   0.0000      -0.043867        -1.1937 
  34   0.0000      -0.040618        -1.1053 
  35   0.0000       0.003470         0.0944 
  36   0.0000       0.060553         1.6477 
  37   0.0000       0.073345         1.9958 
  38   0.0000       0.088876         2.4184 
  39   0.0000       0.099085         2.6962 
  40   0.0000       0.116654         3.1743 
  41   0.0000       0.125062         3.4031 
  42   0.0000       0.136812         3.7228 
  43   0.0000       0.137816         3.7502 
*Only the first 10 virtual orbitals were printed.

                    ********************************
                    * MULLIKEN POPULATION ANALYSIS *
                    ********************************

-----------------------
MULLIKEN ATOMIC CHARGES
-----------------------
   0 C :   -0.316184
   1 C :    0.094971
   2 C :   -0.167838
   3 C :   -0.106171
   4 C :   -0.112203
   5 C :   -0.175618
   6 C :    0.097509
   7 Cl:   -0.122959
   8 H :    0.124610
   9 H :    0.107468
  10 H :    0.124608
  11 H :    0.104819
  12 H :    0.111997
  13 H :    0.112919
  14 H :    0.122072
Sum of atomic charges:   -0.0000000

--------------------------------
MULLIKEN REDUCED ORBITAL CHARGES
--------------------------------
  0 C s       :     3.274984  s :     3.274984
      pz      :     1.056702  p :     2.991622
      px      :     1.008646
      py      :     0.926275
      dz2     :     0.002115  d :     0.045768
      dxz     :     0.013513
      dyz     :     0.009409
      dx2y2   :     0.014292
      dxy     :     0.006439
      f0      :     0.000319  f :     0.003810
      f+1     :     0.001268
      f-1     :    -0.000088
      f+2     :    -0.000041
      f-2     :     0.000419
      f+3     :     0.001116
      f-3     :     0.000818

  1 C s       :     3.230087  s :     3.230087
      pz      :     0.919597  p :     2.521887
      px      :     0.838930
      py      :     0.763360
      dz2     :     0.005208  d :     0.141248
      dxz     :     0.027432
      dyz     :     0.022930
      dx2y2   :     0.041144
      dxy     :     0.044534
      f0      :     0.001940  f :     0.011807
      f+1     :     0.000764
      f-1     :     0.000766
      f+2     :     0.001198
      f-2     :     0.001099
      f+3     :     0.002381
      f-3     :     0.003660

  2 C s       :     3.244812  s :     3.244812
      pz      :     0.981913  p :     2.834776
      px      :     0.895075
      py      :     0.957787
      dz2     :     0.003599  d :     0.079438
      dxz     :     0.020907
      dyz     :     0.007345
      dx2y2   :     0.025499
      dxy     :     0.022089
      f0      :     0.001756  f :     0.008812
      f+1     :     0.000624
      f-1     :     0.000653
      f+2     :     0.000768
      f-2     :     0.000670
      f+3     :     0.001828
      f-3     :     0.002513

  3 C s       :     3.207195  s :     3.207195
      pz      :     0.967919  p :     2.813247
      px      :     0.936392
      py      :     0.908936
      dz2     :     0.003735  d :     0.077017
      dxz     :     0.005238
      dyz     :     0.022980
      dx2y2   :     0.024369
      dxy     :     0.020695
      f0      :     0.001782  f :     0.008712
      f+1     :     0.000683
      f-1     :     0.000634
      f+2     :     0.000242
      f-2     :     0.001184
      f+3     :     0.001784
      f-3     :     0.002403

  4 C s       :     3.220126  s :     3.220126
      pz      :     0.968510  p :     2.807485
      px      :     0.910169
      py      :     0.928805
      dz2     :     0.003892  d :     0.075868
      dxz     :     0.017391
      dyz     :     0.011035
      dx2y2   :     0.021483
      dxy     :     0.022066
      f0      :     0.001791  f :     0.008725
      f+1     :     0.000649
      f-1     :     0.000666
      f+2     :     0.001155
      f-2     :     0.000274
      f+3     :     0.001816
      f-3     :     0.002373

  5 C s       :     3.247253  s :     3.247253
      pz      :     0.975574  p :     2.838575
      px      :     0.947138
      py      :     0.915863
      dz2     :     0.004273  d :     0.080911
      dxz     :     0.020597
      dyz     :     0.008621
      dx2y2   :     0.018308
      dxy     :     0.029111
      f0      :     0.001816  f :     0.008878
      f+1     :     0.000708
      f-1     :     0.000689
      f+2     :     0.000799
      f-2     :     0.000697
      f+3     :     0.001857
      f-3     :     0.002313

  6 C s       :     3.179518  s :     3.179518
      pz      :     1.004237  p :     2.552424
      px      :     0.724707
      py      :     0.823480
      dz2     :     0.005319  d :     0.158414
      dxz     :     0.026997
      dyz     :     0.025781
      dx2y2   :     0.050601
      dxy     :     0.049716
      f0      :     0.002065  f :     0.012135
      f+1     :     0.001021
      f-1     :     0.000686
      f+2     :     0.001074
      f-2     :     0.001180
      f+3     :     0.002451
      f-3     :     0.003658

  7 Cls       :     5.909486  s :     5.909486
      pz      :     3.914605  p :    11.147963
      px      :     3.285414
      py      :     3.947944
      dz2     :     0.006792  d :     0.060246
      dxz     :     0.020189
      dyz     :     0.000714
      dx2y2   :     0.020332
      dxy     :     0.012219
      f0      :     0.000538  f :     0.005263
      f+1     :     0.000970
      f-1     :     0.000094
      f+2     :     0.000789
      f-2     :     0.000073
      f+3     :     0.001637
      f-3     :     0.001162

  8 H s       :     0.852182  s :     0.852182
      pz      :     0.009952  p :     0.023207
      px      :     0.008212
      py      :     0.005044

  9 H s       :     0.869156  s :     0.869156
      pz      :     0.005274  p :     0.023375
      px      :     0.007062
      py      :     0.011040

 10 H s       :     0.852184  s :     0.852184
      pz      :     0.009948  p :     0.023208
      px      :     0.008216
      py      :     0.005044

 11 H s       :     0.871515  s :     0.871515
      pz      :     0.005608  p :     0.023666
      px      :     0.005892
      py      :     0.012166

 12 H s       :     0.864462  s :     0.864462
      pz      :     0.005642  p :     0.023542
      px      :     0.013355
      py      :     0.004545

 13 H s       :     0.863512  s :     0.863512
      pz      :     0.005632  p :     0.023570
      px      :     0.007558
      py      :     0.010380

 14 H s       :     0.854277  s :     0.854277
      pz      :     0.005498  p :     0.023651
      px      :     0.006051
      py      :     0.012102



                     *******************************
                     * LOEWDIN POPULATION ANALYSIS *
                     *******************************

----------------------
LOEWDIN ATOMIC CHARGES
----------------------
   0 C :   -0.259487
   1 C :   -0.176384
   2 C :   -0.113010
   3 C :   -0.142479
   4 C :   -0.140206
   5 C :   -0.144618
   6 C :   -0.380481
   7 Cl:    0.379983
   8 H :    0.132415
   9 H :    0.126649
  10 H :    0.132408
  11 H :    0.147142
  12 H :    0.144536
  13 H :    0.145352
  14 H :    0.148180

-------------------------------
LOEWDIN REDUCED ORBITAL CHARGES
-------------------------------
  0 C s       :     2.824849  s :     2.824849
      pz      :     1.071232  p :     3.157700
      px      :     1.052421
      py      :     1.034047
      dz2     :     0.033257  d :     0.251921
      dxz     :     0.070895
      dyz     :     0.025757
      dx2y2   :     0.057002
      dxy     :     0.065010
      f0      :     0.001975  f :     0.025017
      f+1     :     0.003829
      f-1     :     0.002842
      f+2     :     0.003421
      f-2     :     0.002506
      f+3     :     0.005459
      f-3     :     0.004985

  1 C s       :     2.721397  s :     2.721397
      pz      :     0.836807  p :     2.865950
      px      :     1.028641
      py      :     1.000502
      dz2     :     0.034217  d :     0.530377
      dxz     :     0.078634
      dyz     :     0.076112
      dx2y2   :     0.165477
      dxy     :     0.175936
      f0      :     0.004324  f :     0.058660
      f+1     :     0.004270
      f-1     :     0.004361
      f+2     :     0.007694
      f-2     :     0.006664
      f+3     :     0.010691
      f-3     :     0.020656

  2 C s       :     2.763858  s :     2.763858
      pz      :     0.891515  p :     2.916580
      px      :     1.026444
      py      :     0.998621
      dz2     :     0.026424  d :     0.389443
      dxz     :     0.068418
      dyz     :     0.022336
      dx2y2   :     0.134568
      dxy     :     0.137697
      f0      :     0.003161  f :     0.043129
      f+1     :     0.004210
      f-1     :     0.003403
      f+2     :     0.004761
      f-2     :     0.004214
      f+3     :     0.008809
      f-3     :     0.014572

  3 C s       :     2.769347  s :     2.769347
      pz      :     0.887172  p :     2.938799
      px      :     0.987353
      py      :     1.064274
      dz2     :     0.025639  d :     0.390336
      dxz     :     0.013265
      dyz     :     0.079505
      dx2y2   :     0.163652
      dxy     :     0.108275
      f0      :     0.003278  f :     0.043997
      f+1     :     0.003295
      f-1     :     0.004451
      f+2     :     0.001618
      f-2     :     0.007562
      f+3     :     0.009047
      f-3     :     0.014746

  4 C s       :     2.769462  s :     2.769462
      pz      :     0.886876  p :     2.934618
      px      :     1.032414
      py      :     1.015328
      dz2     :     0.025814  d :     0.391939
      dxz     :     0.057849
      dyz     :     0.035845
      dx2y2   :     0.111294
      dxy     :     0.161137
      f0      :     0.003270  f :     0.044187
      f+1     :     0.004049
      f-1     :     0.003701
      f+2     :     0.007449
      f-2     :     0.001841
      f+3     :     0.009030
      f-3     :     0.014847

  5 C s       :     2.771436  s :     2.771436
      pz      :     0.891186  p :     2.941606
      px      :     1.057500
      py      :     0.992920
      dz2     :     0.026861  d :     0.387489
      dxz     :     0.069905
      dyz     :     0.025332
      dx2y2   :     0.121813
      dxy     :     0.143578
      f0      :     0.003452  f :     0.044087
      f+1     :     0.004354
      f-1     :     0.003612
      f+2     :     0.005064
      f-2     :     0.004778
      f+3     :     0.009182
      f-3     :     0.013645

  6 C s       :     2.781958  s :     2.781958
      pz      :     0.927868  p :     2.930297
      px      :     0.921311
      py      :     1.081117
      dz2     :     0.042935  d :     0.605911
      dxz     :     0.085562
      dyz     :     0.080007
      dx2y2   :     0.220970
      dxy     :     0.176437
      f0      :     0.004192  f :     0.062315
      f+1     :     0.005193
      f-1     :     0.004598
      f+2     :     0.006524
      f-2     :     0.007404
      f+3     :     0.012734
      f-3     :     0.021669

  7 Cls       :     5.556399  s :     5.556399
      pz      :     3.841907  p :    10.954404
      px      :     3.274895
      py      :     3.837603
      dz2     :     0.011531  d :     0.098047
      dxz     :     0.030138
      dyz     :     0.000619
      dx2y2   :     0.034729
      dxy     :     0.021030
      f0      :     0.001155  f :     0.011167
      f+1     :     0.001841
      f-1     :     0.000202
      f+2     :     0.001833
      f-2     :     0.000128
      f+3     :     0.003212
      f-3     :     0.002795

  8 H s       :     0.804531  s :     0.804531
      pz      :     0.028623  p :     0.063053
      px      :     0.021475
      py      :     0.012955

  9 H s       :     0.811132  s :     0.811132
      pz      :     0.014187  p :     0.062218
      px      :     0.020316
      py      :     0.027715

 10 H s       :     0.804538  s :     0.804538
      pz      :     0.028611  p :     0.063054
      px      :     0.021488
      py      :     0.012955

 11 H s       :     0.792502  s :     0.792502
      pz      :     0.014512  p :     0.060356
      px      :     0.014789
      py      :     0.031055

 12 H s       :     0.795003  s :     0.795003
      pz      :     0.014351  p :     0.060461
      px      :     0.034467
      py      :     0.011643

 13 H s       :     0.794192  s :     0.794192
      pz      :     0.014287  p :     0.060456
      px      :     0.019345
      py      :     0.026824

 14 H s       :     0.790523  s :     0.790523
      pz      :     0.014398  p :     0.061297
      px      :     0.015374
      py      :     0.031525



                      *****************************
                      * MAYER POPULATION ANALYSIS *
                      *****************************

  NA   - Mulliken gross atomic population
  ZA   - Total nuclear charge
  QA   - Mulliken gross atomic charge
  VA   - Mayer's total valence
  BVA  - Mayer's bonded valence
  FA   - Mayer's free valence

  ATOM       NA         ZA         QA         VA         BVA        FA
  0 C      6.3162     6.0000    -0.3162     3.8636     3.8636     0.0000
  1 C      5.9050     6.0000     0.0950     3.6081     3.6081     0.0000
  2 C      6.1678     6.0000    -0.1678     3.8952     3.8952    -0.0000
  3 C      6.1062     6.0000    -0.1062     3.8984     3.8984    -0.0000
  4 C      6.1122     6.0000    -0.1122     3.8890     3.8890    -0.0000
  5 C      6.1756     6.0000    -0.1756     3.9165     3.9165    -0.0000
  6 C      5.9025     6.0000     0.0975     3.8008     3.8008     0.0000
  7 Cl    17.1230    17.0000    -0.1230     1.2264     1.2264     0.0000
  8 H      0.8754     1.0000     0.1246     0.9793     0.9793     0.0000
  9 H      0.8925     1.0000     0.1075     0.9815     0.9815    -0.0000
 10 H      0.8754     1.0000     0.1246     0.9793     0.9793     0.0000
 11 H      0.8952     1.0000     0.1048     0.9766     0.9766    -0.0000
 12 H      0.8880     1.0000     0.1120     0.9762     0.9762    -0.0000
 13 H      0.8871     1.0000     0.1129     0.9756     0.9756    -0.0000
 14 H      0.8779     1.0000     0.1221     0.9838     0.9838    -0.0000

  Mayer bond orders larger than 0.100000
B(  0-C ,  1-C ) :   0.9478 B(  0-C ,  8-H ) :   0.9587 B(  0-C ,  9-H ) :   0.9777 
B(  0-C , 10-H ) :   0.9587 B(  1-C ,  2-C ) :   1.3463 B(  1-C ,  6-C ) :   1.2670 
B(  2-C ,  3-C ) :   1.4108 B(  2-C , 11-H ) :   0.9683 B(  3-C ,  4-C ) :   1.3870 
B(  3-C , 12-H ) :   0.9719 B(  4-C ,  5-C ) :   1.3845 B(  4-C , 13-H ) :   0.9697 
B(  5-C ,  6-C ) :   1.3813 B(  5-C , 14-H ) :   0.9690 B(  6-C ,  7-Cl) :   1.0426 


-------
TIMINGS
-------

Total SCF time: 0 days 0 hours 0 min 25 sec 

Total time                  ....      25.730 sec
Sum of individual times     ....      25.312 sec  ( 98.4%)

SCF preparation             ....       0.195 sec  (  0.8%)
Fock matrix formation       ....      24.243 sec  ( 94.2%)
  Startup                   ....       0.052 sec  (  0.2% of F)
  Split-RI-J                ....       3.103 sec  ( 12.8% of F)
  XC integration            ....      20.625 sec  ( 85.1% of F)
    Basis function eval.    ....       3.005 sec  ( 14.6% of XC)
    Density eval.           ....       6.151 sec  ( 29.8% of XC)
    XC-Functional eval.     ....       1.515 sec  (  7.3% of XC)
    XC-Potential eval.      ....       9.103 sec  ( 44.1% of XC)
Diagonalization             ....       0.000 sec  (  0.0%)
Density matrix formation    ....       0.192 sec  (  0.7%)
Total Energy calculation    ....       0.027 sec  (  0.1%)
Population analysis         ....       0.034 sec  (  0.1%)
Orbital Transformation      ....       0.079 sec  (  0.3%)
Orbital Orthonormalization  ....       0.000 sec  (  0.0%)
DIIS solution               ....       0.426 sec  (  1.7%)
SOSCF solution              ....       0.117 sec  (  0.5%)
Finished LeanSCF after  25.8 sec

Maximum memory used throughout the entire LEANSCF-calculation: 33.3 MB

------------------------------------------------------------------------------
                         ORCA PROPERTY INTEGRAL CALCULATIONS
------------------------------------------------------------------------------

GBWName                                   ... vacuum_censo.gbw
Number of atoms                           ...     15
Number of basis functions                 ...    296
Max core memory                           ...   1024 MB

Dipole integrals                          ... YES
Quadrupole integrals                      ...  NO
Linear momentum integrals                 ...  NO
Angular momentum integrals                ...  NO
Higher moments length integrals           ...  NO
Higher moments velocity integrals         ...  NO
Kinetic energy integrals                  ...  NO
GIAO right hand sides                     ...  NO
GIAO dipole derivative integrals          ...  NO
SOC integrals                             ...  NO
EPR diamagnetic integrals (GIAO)          ...  NO
EPR gauge integrals                       ...  NO
Field gradient integrals                  ...  NO (   0 nuclei)
Spin-dipole/Fermi contact integrals       ...  NO (   0 nuclei)
Contact density integrals                 ...  NO (   0 nuclei)
Nucleus-orbit integrals                   ...  NO (   0 nuclei)
Geometric perturbations                   ... YES (  15 nuclei)

Choice of electric origin   ... Center of mass
Position of electric origin ... ( -0.0096,  0.0181, -0.0001) 
Choice of magnetic origin   ... GIAO
Position of magnetic origin ... (  0.0000,  0.0000,  0.0000) 

Calculating integrals                     ... Electric Dipole (Length)     done (  0.0 sec)
Calculating integrals                     ... Geometrical perturbation right hand sides

-----------------------
GEOMETRIC PERTURBATIONS (15 nuclei)
-----------------------

MaxCore                            ...   1024 MB
Number of batches                  ...      1

BATCH   0: Atoms    0 -   14 ( 45 perturbations)
   => H(core) and overlap derivative integrals     ... done (     0.5 sec)
   => Making and storing internal U-coefficients   ... done (     0.4 sec)
   => RI-J derivative integrals                    ... done (     4.7 sec)
   => RI-J response operators                      ... done (     1.3 sec)
   => XC derivative integrals                      ... done (   272.5 sec)
   => XC response operators                        ... done (    75.9 sec)
   => Completing and storing right hand sides      ... done (     0.2 sec)
   => Total time for right hand sides = 357.9 sec

  geometrical perturbations done (357.9 sec)

Property integrals calculated in 358.0 sec

Maximum memory used throughout the entire PROPINT-calculation: 154.4 MB


-------------------------------------------------------------------------------
                          DFT DISPERSION CORRECTION                            
                                                                               
                                DFTD4 V3.4.0                                   
-------------------------------------------------------------------------------
The R2SCAN3C composite method is recognized
Using three-body term ABC
Active option DFTDOPT                   ...         5   

-------------------------   ----------------
Dispersion correction           -0.005256794
-------------------------   ----------------

------------------   -----------------
gCP correction             0.005474811
------------------   -----------------

-------------------------   --------------------
FINAL SINGLE POINT ENERGY      -731.092271683142
-------------------------   --------------------

------------------------------------------------------------------------------
                            ORCA SCF RESPONSE CALCULATION
------------------------------------------------------------------------------

GBWName                                 ... vacuum_censo.gbw
Number of atoms                         ...     15
Number of basis functions               ...    296
Max core memory                         ...   1024 MB

Electric field perturbation             ...  NO
Quadrupolar field perturbation          ...  NO
Magnetic field perturbation (no GIAO)   ...  NO
Magnetic field perturbation (with GIAO) ...  NO
Linear momentum (velocity) perturbation ...  NO
Spin-orbit coupling perturbation        ...  NO
Choice of electric origin               ... Center of mass
Position of electric origin             ...    -0.009632     0.018116    -0.000120
Choice of magnetic origin               ... GIAO
Position of magnetic origin             ...     0.000000     0.000000     0.000000
Nuclear geometric perturbations         ... YES (  45 perturbations)
Nucleus-orbit perturbations             ...  NO (   0 perturbations)
Spin-dipole/Fermi contact perturbations ...  NO (   0 perturbations)

Total number of real perturbations      ...     45
Total number of imaginary perturbations ...      0
Total number of triplet perturbations   ...      0
Total number of SOC perturbations       ...      0


                                **********************
                                * REAL PERTURBATIONS *
                                **********************



-------------------
SHARK CP-SCF DRIVER
-------------------

Dimension of the orbital basis          ...    296
Dimension of the CPSCF-problem          ...   8679
Number of operators                     ...      1
Max. number of iterations               ...    128
Convergence Tolerance                   ... 1.0e-03
Number of perturbations                 ...     45
Perturbation type                       ... REAL

----------------------------
POPLE LINEAR EQUATION SOLVER
----------------------------

  ITERATION   0:   ||err||_max =   4.1077e-01 (  23.8 sec   0/ 45 done)
  ITERATION   1:   ||err||_max =   5.1006e-02 (  25.3 sec   0/ 45 done)
  ITERATION   2:   ||err||_max =   1.5373e-02 (  25.6 sec  12/ 45 done)
  ITERATION   3:   ||err||_max =   3.5435e-03 (  19.9 sec  18/ 45 done)
  ITERATION   4:   ||err||_max =   1.5573e-03 (  16.7 sec  32/ 45 done)
  ITERATION   5:   ||err||_max =   5.8085e-04 (   8.8 sec  45/ 45 done)

CP-SCF equations solved in 121.7 sec
Response densities calculated in   0.2 sec

Maximum memory used throughout the entire SCFRESP-calculation: 99.6 MB

------------------------------------------------------------------------------
                              ORCA PROPERTY CALCULATIONS
------------------------------------------------------------------------------

GBWName                                 ... vacuum_censo.gbw
Number of atoms                         ...     15
Number of basis functions               ...    296
Max core memory                         ...   1024 MB

Electric properties:
Dipole moment                           ... YES
Quadrupole moment                       ...  NO
Static polarizability (Dipole/Dipole)   ...  NO
Static polarizability (Dipole/Quad.)    ...  NO
Static polarizability (Quad./Quad.)     ...  NO
Static polarizability (Velocity)        ...  NO

Atomic electric properties:
Dipole moment                           ...  NO
Quadrupole moment                       ...  NO
Static polarizability                   ...  NO

Choice of electric origin               ... Center of mass
Position of electric origin             ...    -0.009632     0.018116    -0.000120

General magnetic properties:
Magnetizability                         ...  NO

EPR properties:
g-Tensor (aka g-matrix)                 ...  NO
Zero-Field splitting spin-orbit         ...  NO
Zero-field splitting spin-spin          ...  NO
Hyperfine couplings                     ...  NO (   0 nuclei)
Quadrupole couplings                    ...  NO (   0 nuclei)
Contact density                         ...  NO (   0 nuclei)

NMR properties:
Chemical shifts                         ...  NO (   0 nuclei)
Spin-rotation constants                 ...  NO (   0 nuclei)
Spin-spin couplings                     ...  NO (   0 nuclei,    0 pairs)

Choice of magnetic origin               ... GIAO
Position of magnetic origin             ...     0.000000     0.000000     0.000000

Properties with geometric perturbations:
SCF Hessian                             ... YES
IR spectrum                             ... YES
VCD spectrum                            ...  NO
X-ray spectroscopy properties:
SCF XES/XAS/RIXS spectra                ...  NO


-------------
DIPOLE MOMENT
-------------

Method             : SCF
Type of density    : Electron Density
Multiplicity       :   1
Irrep              :   0
Energy             :  -731.0924897002009857 Eh
Relativity type    : 
Basis              : AO
                                X                 Y                 Z
Electronic contribution:     -7.268203472       5.284700003      -0.000096577
Nuclear contribution   :      7.803965004      -5.521593279       0.000078717
                        -----------------------------------------
Total Dipole Moment    :      0.535761531      -0.236893276      -0.000017860
                        -----------------------------------------
Magnitude (a.u.)       :      0.585797613
Magnitude (Debye)      :      1.488979200



--------------------
Rotational spectrum 
--------------------
 
Rotational constants in cm-1:             0.095248             0.050716             0.033298 
Rotational constants in MHz :          2855.475453          1520.413363           998.247304 

Dipole components along the rotational axes: 
x,y,z [a.u.] :     0.537738    -0.232371    -0.000024 
x,y,z [Debye]:     1.366822    -0.590640    -0.000061 

 

Dipole moment calculation done in   0.0 sec 

-----------
SCF HESSIAN
-----------

Occupied/Occupied contributions to the Hessian:
   => Occupied/Occupied contributions              ... done (  0.0 sec)
Perturbed density contributions to the Hessian:
   => Perturbed density contributions              ... done (  0.0 sec)
Explicit contributions to the Hessian:
   => Nuclear repulsion Hessian                    ... done (  0.0 sec)
   => HCore and overlap Hessian                    ... done ( 12.9 sec)
   => RI-J Hessian                                 ... done ( 12.3 sec)
   => XC-Hessian                                   ... done ( 79.6 sec)
   => Van der Waals-Hessian                        ... done (  2.8 sec)
   => GCP-Hessian                                  ... done (  0.1 sec)
   => Explicit contributions done
Dipole derivatives                                 ... done (  0.1 sec)
Mass weighting the Hessian           ... done
Calculating normal modes             ... done
Scaling frequencies                  ... done

-----------------------
VIBRATIONAL FREQUENCIES
-----------------------

Scaling factor for frequencies =  1.000000000  (already applied!)

     0:       0.00 cm**-1
     1:       0.00 cm**-1
     2:       0.00 cm**-1
     3:       0.00 cm**-1
     4:       0.00 cm**-1
     5:       0.00 cm**-1
     6:     154.41 cm**-1
     7:     178.49 cm**-1
     8:     243.85 cm**-1
     9:     255.26 cm**-1
    10:     371.20 cm**-1
    11:     442.31 cm**-1
    12:     446.19 cm**-1
    13:     519.25 cm**-1
    14:     557.84 cm**-1
    15:     687.68 cm**-1
    16:     709.51 cm**-1
    17:     753.31 cm**-1
    18:     815.58 cm**-1
    19:     862.88 cm**-1
    20:     935.27 cm**-1
    21:     962.61 cm**-1
    22:    1008.61 cm**-1
    23:    1052.24 cm**-1
    24:    1055.58 cm**-1
    25:    1066.44 cm**-1
    26:    1150.88 cm**-1
    27:    1183.11 cm**-1
    28:    1228.11 cm**-1
    29:    1297.62 cm**-1
    30:    1335.54 cm**-1
    31:    1406.18 cm**-1
    32:    1453.36 cm**-1
    33:    1474.27 cm**-1
    34:    1490.81 cm**-1
    35:    1501.71 cm**-1
    36:    1600.35 cm**-1
    37:    1625.48 cm**-1
    38:    3014.59 cm**-1
    39:    3077.68 cm**-1
    40:    3110.65 cm**-1
    41:    3155.60 cm**-1
    42:    3168.77 cm**-1
    43:    3182.29 cm**-1
    44:    3193.96 cm**-1


------------
NORMAL MODES
------------

These modes are the Cartesian displacements weighted by the diagonal matrix
M(i,i)=1/sqrt(m[i]) where m[i] is the mass of the displaced atom
Thus, these vectors are normalized but *not* orthogonal

                  0          1          2          3          4          5    
      0       0.000000   0.000000   0.000000   0.000000   0.000000   0.000000
      1       0.000000   0.000000   0.000000   0.000000   0.000000   0.000000
      2       0.000000   0.000000   0.000000   0.000000   0.000000   0.000000
      3       0.000000   0.000000   0.000000   0.000000   0.000000   0.000000
      4       0.000000   0.000000   0.000000   0.000000   0.000000   0.000000
      5       0.000000   0.000000   0.000000   0.000000   0.000000   0.000000
      6       0.000000   0.000000   0.000000   0.000000   0.000000   0.000000
      7       0.000000   0.000000   0.000000   0.000000   0.000000   0.000000
      8       0.000000   0.000000   0.000000   0.000000   0.000000   0.000000
      9       0.000000   0.000000   0.000000   0.000000   0.000000   0.000000
     10       0.000000   0.000000   0.000000   0.000000   0.000000   0.000000
     11       0.000000   0.000000   0.000000   0.000000   0.000000   0.000000
     12       0.000000   0.000000   0.000000   0.000000   0.000000   0.000000
     13       0.000000   0.000000   0.000000   0.000000   0.000000   0.000000
     14       0.000000   0.000000   0.000000   0.000000   0.000000   0.000000
     15       0.000000   0.000000   0.000000   0.000000   0.000000   0.000000
     16       0.000000   0.000000   0.000000   0.000000   0.000000   0.000000
     17       0.000000   0.000000   0.000000   0.000000   0.000000   0.000000
     18       0.000000   0.000000   0.000000   0.000000   0.000000   0.000000
     19       0.000000   0.000000   0.000000   0.000000   0.000000   0.000000
     20       0.000000   0.000000   0.000000   0.000000   0.000000   0.000000
     21       0.000000   0.000000   0.000000   0.000000   0.000000   0.000000
     22       0.000000   0.000000   0.000000   0.000000   0.000000   0.000000
     23       0.000000   0.000000   0.000000   0.000000   0.000000   0.000000
     24       0.000000   0.000000   0.000000   0.000000   0.000000   0.000000
     25       0.000000   0.000000   0.000000   0.000000   0.000000   0.000000
     26       0.000000   0.000000   0.000000   0.000000   0.000000   0.000000
     27       0.000000   0.000000   0.000000   0.000000   0.000000   0.000000
     28       0.000000   0.000000   0.000000   0.000000   0.000000   0.000000
     29       0.000000   0.000000   0.000000   0.000000   0.000000   0.000000
     30       0.000000   0.000000   0.000000   0.000000   0.000000   0.000000
     31       0.000000   0.000000   0.000000   0.000000   0.000000   0.000000
     32       0.000000   0.000000   0.000000   0.000000   0.000000   0.000000
     33       0.000000   0.000000   0.000000   0.000000   0.000000   0.000000
     34       0.000000   0.000000   0.000000   0.000000   0.000000   0.000000
     35       0.000000   0.000000   0.000000   0.000000   0.000000   0.000000
     36       0.000000   0.000000   0.000000   0.000000   0.000000   0.000000
     37       0.000000   0.000000   0.000000   0.000000   0.000000   0.000000
     38       0.000000   0.000000   0.000000   0.000000   0.000000   0.000000
     39       0.000000   0.000000   0.000000   0.000000   0.000000   0.000000
     40       0.000000   0.000000   0.000000   0.000000   0.000000   0.000000
     41       0.000000   0.000000   0.000000   0.000000   0.000000   0.000000
     42       0.000000   0.000000   0.000000   0.000000   0.000000   0.000000
     43       0.000000   0.000000   0.000000   0.000000   0.000000   0.000000
     44       0.000000   0.000000   0.000000   0.000000   0.000000   0.000000
                  6          7          8          9         10         11    
      0       0.000017  -0.000078  -0.000219  -0.234065  -0.222706   0.000007
      1      -0.000021   0.000091   0.000270   0.283805  -0.026494  -0.000004
      2      -0.230351   0.017720  -0.133527   0.000133  -0.000001  -0.005642
      3      -0.000001   0.000008   0.000002  -0.002194   0.012770  -0.000002
      4      -0.000006   0.000021   0.000100   0.105249  -0.166313   0.000005
      5      -0.016074  -0.026774   0.213166  -0.000255  -0.000005   0.197421
      6       0.000003   0.000002  -0.000018  -0.021849   0.031218  -0.000009
      7       0.000004  -0.000001   0.000002   0.000061  -0.005002  -0.000007
      8       0.194953   0.001176   0.153486  -0.000202  -0.000001  -0.211041
      9       0.000004   0.000007   0.000008   0.015495  -0.123610  -0.000006
     10       0.000003   0.000002  -0.000023  -0.021354   0.142346   0.000001
     11       0.184242   0.037261  -0.131183   0.000143   0.000004   0.082999
     12      -0.000002   0.000017   0.000060   0.072969  -0.178305  -0.000002
     13      -0.000005   0.000005   0.000003   0.008535   0.122316   0.000003
     14      -0.126583   0.014939  -0.161095   0.000194  -0.000011   0.099331
     15      -0.000004   0.000014   0.000063   0.071565  -0.154810  -0.000005
     16      -0.000011   0.000022   0.000094   0.101104  -0.052643  -0.000003
     17      -0.237870  -0.027697   0.122492  -0.000152   0.000001  -0.206070
     18      -0.000004   0.000019   0.000054   0.057793   0.050474  -0.000001
     19      -0.000007   0.000023   0.000104   0.110953  -0.162718   0.000005
     20      -0.085398  -0.030414   0.230568  -0.000282   0.000002   0.191544
     21      -0.000007   0.000013   0.000037   0.034436   0.237972   0.000006
     22       0.000017  -0.000067  -0.000214  -0.228648   0.037666   0.000001
     23       0.130578  -0.001178  -0.063647   0.000105   0.000004  -0.014629
     24       0.132383  -0.424306  -0.010841  -0.239981  -0.230422   0.098813
     25       0.092962   0.256222   0.326090   0.433447   0.143125   0.143063
     26      -0.330837   0.333663  -0.130414   0.002980   0.002741  -0.083866
     27      -0.000019   0.000005  -0.000405  -0.437677  -0.446035  -0.000026
     28      -0.000049  -0.000076   0.000002   0.149140  -0.175055  -0.000061
     29      -0.239862  -0.523546  -0.485182   0.001382   0.000117  -0.090719
     30      -0.132285   0.423931   0.010378  -0.241161  -0.230470  -0.098753
     31      -0.092990  -0.255768  -0.325104   0.435144   0.143379  -0.143010
     32      -0.330875   0.334023  -0.130273  -0.003658  -0.002856  -0.083863
     33       0.000006  -0.000005  -0.000061  -0.070820   0.206347  -0.000015
     34       0.000009  -0.000003  -0.000017  -0.021229   0.069728  -0.000019
     35       0.340787   0.004668   0.139954  -0.000184   0.000003  -0.600013
     36       0.000007   0.000008   0.000001   0.011285  -0.111106  -0.000007
     37       0.000006  -0.000002  -0.000060  -0.057977   0.246740   0.000000
     38       0.361535   0.070949  -0.347907   0.000406   0.000010   0.078861
     39      -0.000005   0.000028   0.000104   0.127720  -0.235384   0.000001
     40      -0.000007  -0.000002  -0.000038  -0.030734   0.162465   0.000002
     41      -0.227122   0.029643  -0.407422   0.000507  -0.000021   0.121359
     42      -0.000006   0.000021   0.000104   0.119507  -0.352491  -0.000011
     43      -0.000015   0.000025   0.000113   0.123519  -0.145580  -0.000012
     44      -0.388037  -0.043650   0.097685  -0.000112   0.000005  -0.597191
                 12         13         14         15         16         17    
      0       0.087036   0.000015  -0.230865   0.038702   0.000005  -0.000001
      1      -0.138271   0.000019  -0.268992   0.127696   0.000003   0.000002
      2       0.000001  -0.012286  -0.000002  -0.000001   0.039615   0.004771
      3      -0.186220   0.000008  -0.134698  -0.141252  -0.000001  -0.000001
      4       0.082673   0.000010  -0.136178   0.131040  -0.000002  -0.000003
      5      -0.000013   0.207980   0.000033  -0.000003   0.249279  -0.000450
      6      -0.244934   0.000002  -0.058436  -0.135967  -0.000010  -0.000001
      7       0.024476  -0.000008   0.187460   0.313726  -0.000007  -0.000001
      8       0.000009   0.116922   0.000013  -0.000014  -0.172606  -0.032425
      9      -0.178940  -0.000014   0.091485   0.221770  -0.000010  -0.000005
     10      -0.050371  -0.000013   0.153830   0.032473   0.000007  -0.000002
     11       0.000004  -0.245284  -0.000033   0.000001   0.159862  -0.085005
     12       0.005657  -0.000017   0.274771   0.021402   0.000004   0.000001
     13       0.028501  -0.000006   0.220483  -0.104913   0.000007   0.000001
     14      -0.000004   0.236908   0.000019  -0.000004  -0.194884  -0.048691
     15       0.028305  -0.000018   0.218419  -0.004680   0.000009   0.000002
     16       0.150086  -0.000007  -0.032135  -0.377778   0.000001  -0.000002
     17       0.000000  -0.107330  -0.000014   0.000012   0.126126  -0.063656
     18      -0.005299  -0.000005   0.075320  -0.272392   0.000009   0.000002
     19       0.144393  -0.000009  -0.033606  -0.092245  -0.000014  -0.000000
     20      -0.000011  -0.252925  -0.000012   0.000001  -0.255995   0.086572
     21       0.157425   0.000010  -0.074722   0.096809  -0.000003  -0.000001
     22      -0.059041   0.000003  -0.018139  -0.015281   0.000001  -0.000000
     23       0.000003   0.025615   0.000001   0.000002   0.005074  -0.005395
     24       0.103687   0.129436  -0.225366   0.038327   0.177162   0.023458
     25      -0.406871   0.225153  -0.255115   0.059791   0.258626   0.034820
     26      -0.007939  -0.113278  -0.003083  -0.000792  -0.099328  -0.014644
     27       0.439953  -0.000022  -0.231798   0.125677  -0.000052   0.000001
     28       0.093737  -0.000073  -0.273433   0.188887  -0.000107  -0.000015
     29      -0.000094  -0.179632  -0.000027   0.000002  -0.140418  -0.037312
     30       0.103687  -0.129353  -0.225367   0.038279  -0.177080  -0.023447
     31      -0.407142  -0.225012  -0.255159   0.059738  -0.258485  -0.034803
     32       0.008073  -0.113259   0.003082   0.000783  -0.099327  -0.014642
     33      -0.287648  -0.000003   0.090360  -0.325405  -0.000001   0.000011
     34       0.008109  -0.000011   0.247795   0.233145  -0.000004   0.000015
     35       0.000022   0.132748  -0.000003   0.000004  -0.235487   0.418095
     36      -0.196273  -0.000017   0.063484   0.195547  -0.000008   0.000009
     37      -0.184937  -0.000005  -0.098431  -0.165339  -0.000001   0.000015
     38       0.000015  -0.482681  -0.000071   0.000020   0.323711   0.592384
     39       0.136462  -0.000010   0.220195  -0.320788   0.000015   0.000015
     40      -0.066599   0.000001   0.262078   0.140500   0.000009   0.000016
     41      -0.000006   0.553356   0.000031   0.000005   0.049066   0.593565
     42       0.054311  -0.000017   0.124546   0.089462  -0.000003   0.000002
     43       0.162802  -0.000006  -0.072439  -0.336732   0.000005   0.000005
     44       0.000006  -0.030702  -0.000024   0.000017   0.602453   0.307191
                 18         19         20         21         22         23    
      0       0.183264  -0.000007  -0.000002   0.000000  -0.105782   0.067356
      1       0.202973  -0.000003  -0.000000   0.000002   0.093304  -0.050951
      2       0.000009   0.020287   0.016589  -0.003255   0.000002   0.000238
      3       0.007515  -0.000001  -0.000001  -0.000000  -0.040999   0.012297
      4      -0.077029   0.000000  -0.000000  -0.000001   0.036100   0.043630
      5      -0.000026   0.018851  -0.005995  -0.010043  -0.000005  -0.000214
      6      -0.151514   0.000002  -0.000000  -0.000001   0.060743   0.083158
      7      -0.027912  -0.000003  -0.000004  -0.000001  -0.102355  -0.303648
      8       0.000002  -0.102013  -0.091769  -0.036963   0.000005   0.000069
      9      -0.299430   0.000007   0.000004   0.000000   0.022084   0.016857
     10       0.020906  -0.000001   0.000002   0.000003   0.007965  -0.013313
     11      -0.000002  -0.045178   0.074178   0.082570   0.000002   0.000005
     12       0.126517  -0.000001   0.000001  -0.000002   0.003737   0.190282
     13       0.172146  -0.000003   0.000002  -0.000002   0.068079   0.286762
     14       0.000010   0.054431   0.063468  -0.093759  -0.000003  -0.000025
     15       0.113465  -0.000002  -0.000003   0.000001   0.011919  -0.028670
     16      -0.177375   0.000007  -0.000000   0.000001  -0.051662  -0.028852
     17       0.000006   0.097162  -0.106929   0.052222  -0.000000   0.000010
     18       0.122711  -0.000002  -0.000002   0.000002   0.025048  -0.448023
     19      -0.163270   0.000003   0.000002  -0.000000  -0.024333   0.087205
     20       0.000013  -0.036947   0.037365   0.008031   0.000002   0.000033
     21      -0.037455   0.000000   0.000001  -0.000000  -0.004273   0.045171
     22       0.006355   0.000000  -0.000000   0.000000   0.000409  -0.005592
     23      -0.000000   0.002387  -0.002437   0.000815  -0.000000  -0.000001
     24       0.167271   0.072205   0.054016  -0.006644   0.008516  -0.021789
     25       0.325991   0.085607   0.060977  -0.012705  -0.431375   0.183637
     26       0.011377  -0.037356  -0.026967   0.001877  -0.070915   0.052276
     27       0.086093  -0.000009  -0.000007   0.000006   0.504624  -0.308970
     28       0.146286  -0.000041  -0.000032   0.000005   0.485603  -0.293950
     29      -0.000000  -0.068210  -0.050602  -0.002216  -0.000086  -0.000466
     30       0.167277  -0.072184  -0.053999   0.006644   0.008189  -0.022871
     31       0.326051  -0.085592  -0.060954   0.012699  -0.431693   0.182439
     32      -0.011431  -0.037362  -0.026976   0.001877   0.070999  -0.052853
     33      -0.007924   0.000016   0.000013   0.000007   0.062063  -0.071629
     34       0.042982   0.000019   0.000017   0.000011  -0.108021  -0.382824
     35       0.000048   0.614980   0.566780   0.316842  -0.000024  -0.000251
     36      -0.337370   0.000015  -0.000007  -0.000014   0.039924   0.026098
     37      -0.269015   0.000018  -0.000012  -0.000017   0.116450  -0.093760
     38       0.000005   0.309398  -0.462030  -0.572431  -0.000007  -0.000046
     39       0.202464  -0.000012  -0.000006   0.000013  -0.090772   0.116429
     40       0.111034  -0.000012  -0.000008   0.000015   0.138579   0.359744
     41      -0.000081  -0.369433  -0.319539   0.631155   0.000000   0.000071
     42      -0.182142  -0.000003   0.000006  -0.000004  -0.105220  -0.034093
     43      -0.316314  -0.000006   0.000016  -0.000011  -0.106804  -0.006847
     44      -0.000057  -0.574527   0.561072  -0.391505   0.000003  -0.000077
                 24         25         26         27         28         29    
      0      -0.000028   0.033442   0.031867   0.002252  -0.062806  -0.052405
      1       0.000012   0.016834  -0.040141  -0.004296  -0.108674   0.007979
      2       0.157046  -0.000011  -0.000001  -0.000000  -0.000000  -0.000001
      3      -0.000009  -0.031999  -0.021773  -0.008702   0.154565   0.146662
      4      -0.000022  -0.035561   0.040670   0.013848   0.248922   0.013811
      5      -0.140933   0.000009  -0.000001  -0.000000  -0.000006  -0.000002
      6      -0.000036  -0.086828  -0.051868  -0.021965   0.054824   0.010719
      7       0.000121  -0.008856  -0.083043  -0.010531   0.035065   0.052722
      8       0.041244  -0.000001   0.000002   0.000001  -0.000003  -0.000002
      9       0.000009   0.186777   0.022789   0.006768  -0.093544  -0.035091
[...]
     21      -0.004115   0.001963   0.000122   0.000000   0.000097   0.000034
     22      -0.001395  -0.003630   0.000012   0.000000   0.000016  -0.000008
     23       0.000000   0.000000  -0.000000  -0.000026  -0.000000   0.000000
     24      -0.152981   0.060183   0.362788  -0.429474   0.179627  -0.004179
     25      -0.027794   0.003819  -0.000596  -0.003120   0.013950   0.000504
     26       0.096305  -0.038737   0.508071  -0.557771   0.268820  -0.006492
     27       0.194585  -0.009641  -0.265534  -0.000283   0.490822  -0.018000
     28       0.145648   0.011059   0.384526   0.000418  -0.734288   0.031782
     29       0.000084   0.000055  -0.000170   0.018548   0.000313  -0.000012
     30      -0.152953   0.060171   0.362848   0.429900   0.180136  -0.004188
     31      -0.027985   0.003736  -0.000823   0.002859   0.013831   0.000507
     32      -0.096398   0.038772  -0.507522  -0.557608  -0.269161   0.006495
     33       0.241365  -0.421600   0.002102   0.000005  -0.013665  -0.352292
     34       0.235425  -0.080900  -0.007591  -0.000012   0.037018   0.804277
     35      -0.000011   0.000007   0.000000   0.000121  -0.000002  -0.000019
     36       0.195678  -0.042150   0.000071  -0.000001   0.006190   0.427663
     37       0.221140   0.403499  -0.000484  -0.000000  -0.000677  -0.053622
     38      -0.000010  -0.000012   0.000000  -0.000111  -0.000000  -0.000007
     39       0.431668   0.080993   0.000588   0.000000   0.000778  -0.104946
     40      -0.281450   0.153049   0.000831   0.000001   0.000546  -0.144404
     41      -0.000003  -0.000004   0.000000  -0.000008  -0.000000   0.000006
     42      -0.012402   0.358730  -0.000796  -0.000001  -0.000536  -0.021860
     43      -0.174511   0.087312   0.000220   0.000001   0.001398   0.048169
     44       0.000003  -0.000005   0.000000   0.000057  -0.000000  -0.000001
                 42         43         44    
      0      -0.000863   0.000393  -0.000108
      1       0.000849  -0.000484  -0.000018
      2      -0.000000   0.000000   0.000000
      3       0.001280  -0.001478   0.000095
      4       0.000439   0.000125  -0.000502
      5      -0.000000  -0.000000   0.000000
      6      -0.013259   0.007424   0.001870
      7       0.031348  -0.022507  -0.006671
      8      -0.000001   0.000001   0.000000
      9      -0.037417   0.066242   0.020589
     10       0.001823  -0.008014  -0.004084
     11       0.000001  -0.000001  -0.000000
     12       0.039015   0.019143   0.025128
     13       0.052667   0.031825   0.031963
     14      -0.000002  -0.000001  -0.000001
     15       0.006986   0.013690  -0.032140
     16      -0.019079  -0.034475   0.068808
     17       0.000000   0.000001  -0.000001
     18       0.000637   0.001061  -0.002965
     19      -0.000451   0.000808  -0.002008
     20       0.000000  -0.000000   0.000000
     21      -0.000013  -0.000052   0.000161
     22       0.000020   0.000011   0.000001
     23      -0.000000  -0.000000  -0.000000
     24       0.001264   0.000057   0.000781
     25      -0.000739   0.000332   0.000300
     26       0.002115  -0.000519   0.000880
     27       0.006074  -0.003324   0.000041
     28      -0.011275   0.005519   0.000931
     29       0.000004  -0.000002  -0.000001
     30       0.001267   0.000057   0.000783
     31      -0.000741   0.000333   0.000300
     32      -0.002115   0.000519  -0.000882
     33       0.152728  -0.099400  -0.027556
     34      -0.351491   0.235687   0.066752
     35       0.000008  -0.000006  -0.000002
     36       0.435919  -0.745287  -0.224184
     37      -0.048330   0.089066   0.028914
     38      -0.000008   0.000013   0.000004
     39      -0.452292  -0.240796  -0.261202
     40      -0.621651  -0.339434  -0.357119
     41       0.000024   0.000013   0.000014
     42      -0.101374  -0.178185   0.357114
     43       0.228079   0.398022  -0.782607
     44      -0.000004  -0.000008   0.000015


-----------
IR SPECTRUM
-----------

 Mode   freq       eps      Int      T**2         TX        TY        TZ
       cm**-1   L/(mol*cm) km/mol    a.u.
----------------------------------------------------------------------------
  6:    154.41   0.000073    0.37  0.000148  ( 0.000001 -0.000004 -0.012183)
  7:    178.49   0.000085    0.43  0.000149  (-0.000012  0.000031  0.012189)
  8:    243.85   0.000545    2.75  0.000697  (-0.000009  0.000022 -0.026400)
  9:    255.26   0.000158    0.80  0.000193  (-0.008596  0.010924  0.000022)
 10:    371.20   0.000645    3.26  0.000542  (-0.023258  0.001122  0.000000)
 11:    442.31   0.000914    4.62  0.000645  (-0.000009  0.000005 -0.025390)
 12:    446.19   0.000321    1.62  0.000225  (-0.014984 -0.000528  0.000001)
 13:    519.25   0.000000    0.00  0.000000  ( 0.000002 -0.000011  0.000524)
 14:    557.84   0.000589    2.97  0.000329  ( 0.014477 -0.010939 -0.000001)
 15:    687.68   0.003533   17.86  0.001603  (-0.039621  0.005785  0.000000)
 16:    709.51   0.000601    3.04  0.000264  (-0.000004  0.000002  0.016259)
 17:    753.31   0.011506   58.15  0.004767  (-0.000002 -0.000002  0.069041)
 18:    815.58   0.000871    4.40  0.000333  ( 0.015569 -0.009524 -0.000003)
 19:    862.88   0.000019    0.09  0.000007  (-0.000002  0.000002 -0.002587)
 20:    935.27   0.000224    1.13  0.000075  (-0.000000 -0.000001  0.008642)
 21:    962.61   0.000001    0.00  0.000000  ( 0.000001 -0.000001 -0.000424)
 22:   1008.61   0.000810    4.09  0.000251  ( 0.013677  0.007976 -0.000001)
 23:   1052.24   0.012600   63.67  0.003737  (-0.060684  0.007361 -0.000009)
 24:   1055.58   0.000415    2.10  0.000123  ( 0.000043 -0.000013 -0.011081)
 25:   1066.44   0.001013    5.12  0.000296  ( 0.010104 -0.013941  0.000001)
 26:   1150.88   0.000502    2.54  0.000136  ( 0.009331  0.007001  0.000001)
 27:   1183.11   0.000003    0.01  0.000001  (-0.000838 -0.000078  0.000000)
 28:   1228.11   0.000327    1.65  0.000083  ( 0.009104  0.000527  0.000002)
 29:   1297.62   0.000172    0.87  0.000041  ( 0.000945  0.006365  0.000001)
 30:   1335.54   0.000211    1.07  0.000049  ( 0.004332 -0.005528  0.000000)
 31:   1406.18   0.000554    2.80  0.000123  ( 0.007616  0.008057  0.000003)
 32:   1453.36   0.001096    5.54  0.000235  (-0.015030  0.003052 -0.000004)
 33:   1474.27   0.001875    9.47  0.000397  (-0.000010 -0.000003  0.019920)
 34:   1490.81   0.002763   13.96  0.000578  ( 0.002276 -0.023942  0.000008)
 35:   1501.71   0.007689   38.86  0.001598  ( 0.039974  0.000123  0.000002)
 36:   1600.35   0.001704    8.61  0.000332  (-0.015872  0.008967 -0.000000)
 37:   1625.48   0.000437    2.21  0.000084  ( 0.006852 -0.006074  0.000001)
 38:   3014.59   0.003601   18.20  0.000373  (-0.009269 -0.016938 -0.000005)
 39:   3077.68   0.001820    9.20  0.000185  (-0.000000 -0.000007  0.013585)
 40:   3110.65   0.002997   15.14  0.000301  (-0.009383  0.014580 -0.000001)
 41:   3155.60   0.001068    5.40  0.000106  ( 0.001014 -0.010226  0.000001)
 42:   3168.77   0.001530    7.73  0.000151  (-0.001493  0.012184 -0.000000)
 43:   3182.29   0.002547   12.87  0.000250  ( 0.015671 -0.002050 -0.000000)
 44:   3193.96   0.000927    4.69  0.000091  ( 0.005248  0.007940 -0.000000)

* The epsilon (eps) is given for a Dirac delta lineshape.
** The dipole moment derivative (T) already includes vibrational overlap.

The first frequency considered to be a vibration is 6
The total number of vibrations considered is 39


--------------------------
THERMOCHEMISTRY AT 298.15K
--------------------------

Temperature         ...   298.15 K
Pressure            ...     1.00 atm
Total Mass          ...   126.59 AMU
Quasi RRHO          ...     True
Cut-Off Frequency   ...     1.00 cm^-1

Throughout the following assumptions are being made:
  (1) The electronic state is orbitally nondegenerate
  (2) There are no thermally accessible electronically excited states
  (3) Hindered rotations indicated by low frequency modes are not
      treated as such but are treated as vibrations and this may
      cause some error
  (4) All equations used are the standard statistical mechanics
      equations for an ideal gas
  (5) All vibrations are strictly harmonic

freq.     154.41  E(vib)   ...       0.40 
freq.     178.49  E(vib)   ...       0.37 
freq.     243.85  E(vib)   ...       0.31 
freq.     255.26  E(vib)   ...       0.30 
freq.     371.20  E(vib)   ...       0.21 
freq.     442.31  E(vib)   ...       0.17 
freq.     446.19  E(vib)   ...       0.17 
freq.     519.25  E(vib)   ...       0.13 
freq.     557.84  E(vib)   ...       0.12 
freq.     687.68  E(vib)   ...       0.07 
freq.     709.51  E(vib)   ...       0.07 
freq.     753.31  E(vib)   ...       0.06 
freq.     815.58  E(vib)   ...       0.05 
freq.     862.88  E(vib)   ...       0.04 
freq.     935.27  E(vib)   ...       0.03 
freq.     962.61  E(vib)   ...       0.03 
freq.    1008.61  E(vib)   ...       0.02 
freq.    1052.24  E(vib)   ...       0.02 
freq.    1055.58  E(vib)   ...       0.02 
freq.    1066.44  E(vib)   ...       0.02 
freq.    1150.88  E(vib)   ...       0.01 
freq.    1183.11  E(vib)   ...       0.01 
freq.    1228.11  E(vib)   ...       0.01 
freq.    1297.62  E(vib)   ...       0.01 
freq.    1335.54  E(vib)   ...       0.01 
freq.    1406.18  E(vib)   ...       0.00 
freq.    1453.36  E(vib)   ...       0.00 
freq.    1474.27  E(vib)   ...       0.00 
freq.    1490.81  E(vib)   ...       0.00 
freq.    1501.71  E(vib)   ...       0.00 
freq.    1600.35  E(vib)   ...       0.00 
freq.    1625.48  E(vib)   ...       0.00 
freq.    3014.59  E(vib)   ...       0.00 
freq.    3077.68  E(vib)   ...       0.00 
freq.    3110.65  E(vib)   ...       0.00 
freq.    3155.60  E(vib)   ...       0.00 
freq.    3168.77  E(vib)   ...       0.00 
freq.    3182.29  E(vib)   ...       0.00 
freq.    3193.96  E(vib)   ...       0.00 

------------
INNER ENERGY
------------

The inner energy is: U= E(el) + E(ZPE) + E(vib) + E(rot) + E(trans)
    E(el)   - is the total energy from the electronic structure calculation
              = E(kin-el) + E(nuc-el) + E(el-el) + E(nuc-nuc)
    E(ZPE)  - the the zero temperature vibrational energy from the frequency calculation
    E(vib)  - the the finite temperature correction to E(ZPE) due to population
              of excited vibrational states
    E(rot)  - is the rotational thermal energy
    E(trans)- is the translational thermal energy

Summary of contributions to the inner energy U:
Electronic energy                ...   -731.09227168 Eh
Zero point energy                ...      0.11784846 Eh      73.95 kcal/mol
Thermal vibrational correction   ...      0.00425479 Eh       2.67 kcal/mol
Thermal rotational correction    ...      0.00141627 Eh       0.89 kcal/mol
Thermal translational correction ...      0.00141627 Eh       0.89 kcal/mol
-----------------------------------------------------------------------
Total thermal energy                   -730.96733590 Eh


Summary of corrections to the electronic energy:
(perhaps to be used in another calculation)
Total thermal correction                  0.00708733 Eh       4.45 kcal/mol
Non-thermal (ZPE) correction              0.11784846 Eh      73.95 kcal/mol
-----------------------------------------------------------------------
Total correction                          0.12493579 Eh      78.40 kcal/mol


--------
ENTHALPY
--------

The enthalpy is H = U + kB*T
                kB is Boltzmann's constant
Total thermal energy              ...   -730.96733590 Eh 
Thermal Enthalpy correction       ...      0.00094421 Eh       0.59 kcal/mol
-----------------------------------------------------------------------
Total Enthalpy                    ...   -730.96639169 Eh


Note: Only C1 symmetry has been detected, increase convergence thresholds 
      if your molecule has a higher symmetry. Symmetry factor of 1.0 is   
      used for the rotational entropy correction. 
 

Note: Rotational entropy computed according to Herzberg 
Infrared and Raman Spectra, Chapter V,1, Van Nostrand Reinhold, 1945 
Point Group:  C1, Symmetry Number:   1  
Rotational constants in cm-1:     0.095248     0.050716     0.033298 

Vibrational entropy computed according to the QRRHO of S. Grimme
Chem.Eur.J. 2012 18 9955 using a reference frequency of 100.0 cm-1


-------
ENTROPY
-------

The entropy contributions are T*S = T*(S(el)+S(vib)+S(rot)+S(trans))
     S(el)   - electronic entropy
     S(vib)  - vibrational entropy
     S(rot)  - rotational entropy
     S(trans)- translational entropy
The entropies will be listed as multiplied by the temperature to get
units of energy

Electronic entropy                ...      0.00000000 Eh      0.00 kcal/mol
Vibrational entropy               ...      0.00678778 Eh      4.26 kcal/mol
Rotational entropy                ...      0.01363454 Eh      8.56 kcal/mol
Translational entropy             ...      0.01920513 Eh     12.05 kcal/mol
-----------------------------------------------------------------------
Final entropy term                ...      0.03962745 Eh     24.87 kcal/mol

In case the symmetry of your molecule has not been determined correctly
or in case you have a reason to use a different symmetry number we print 
out the resulting rotational entropy values for sn=1,12:

 non-linear molecules -----------------------------------
|  sn= 1 | S(rot)=       0.01363454 Eh      8.56 kcal/mol|
|  sn= 2 | S(rot)=       0.01298009 Eh      8.15 kcal/mol|
|  sn= 3 | S(rot)=       0.01259726 Eh      7.90 kcal/mol|
|  sn= 4 | S(rot)=       0.01232563 Eh      7.73 kcal/mol|
|  sn= 5 | S(rot)=       0.01211494 Eh      7.60 kcal/mol|
|  sn= 6 | S(rot)=       0.01194280 Eh      7.49 kcal/mol|
|  sn= 7 | S(rot)=       0.01179725 Eh      7.40 kcal/mol|
|  sn= 8 | S(rot)=       0.01167117 Eh      7.32 kcal/mol|
|  sn= 9 | S(rot)=       0.01155997 Eh      7.25 kcal/mol|
|  sn=10 | S(rot)=       0.01146049 Eh      7.19 kcal/mol|
|  sn=11 | S(rot)=       0.01137050 Eh      7.14 kcal/mol|
|  sn=12 | S(rot)=       0.01128834 Eh      7.08 kcal/mol|
 linear molecules ---------------------------------------
|  Dinfh | S(rot)=       0.00853816 Eh      5.36 kcal/mol|
|  Cinfv | S(rot)=       0.00919261 Eh      5.77 kcal/mol|
 --------------------------------------------------------


-------------------
GIBBS FREE ENERGY
-------------------

The Gibbs free energy is G = H - T*S

Total enthalpy                    ...   -730.96639169 Eh 
Total entropy correction          ...     -0.03962745 Eh    -24.87 kcal/mol
-----------------------------------------------------------------------
Final Gibbs free energy         ...   -731.00601914 Eh

For completeness - the Gibbs free energy minus the electronic energy
G-E(el)                           ...      0.08625255 Eh     54.12 kcal/mol


Maximum memory used throughout the entire PROP-calculation: 61.6 MB

--------------------------------
SUGGESTED CITATIONS FOR THIS RUN
--------------------------------

Below you find a list of papers that are relevant to this ORCA run
We neither can nor want to force you to cite these papers, but we appreciate if you do
You receive ORCA, which is the product of decades of hard work by many enthusiastic individuals, for free
The only thing we kindly ask in return is that you cite our papers,
We deeply appreciate it, if you show your appreciation for ORCA by not just citing the generic ORCA reference.

Please note that relegating all ORCA citations to the supporting information does *not* help us.
SI sections are not indexed - citations you put there will not count into any citation statistics
But we need these citations in order to attract the funding resources that allow us to do what we are doing

Therefore, if you are a happy ORCA user, please consider citing a few of the papers listed below in the main body of your paper

In addition to the list printed below, the program has created the file vacuum_censo.bibtex that contains the list in bibtex format
You can import this file easily into all common literature databanks and citation aid programs


List of essential papers. We consider these as the minimum necessary citations

  1. Neese,F.
     Software update: the ORCA program system, version 5.0
     WIRES Comput. Molec. Sci., 2022 12(1)e1606
     doi.org/10.1002/wcms.1606
  2. Grimme,S.; Hansen,A.; Ehlert,S.; Mewes,J.
     r2SCAN-3c: A 'Swiss army knife' composite electronic-structure method
     J. Chem. Phys., 2021 154 064103
     doi.org/10.1063/5.0040021

List of papers to cite with high priority. The work reported in these papers was absolutely
necessary for this run to complete.
Our perspective: the developers of density functionals and basis sets usually get cited in chemistry papers
Good! But without the algorithms to do something with them, the functionals or basis sets would not do anything.
Hence, in our opinion, the algorithm design and method developments papers are equally worthy of getting cited

  1. Neese,F.
     An improvement of the resolution of the identity approximation for the formation of the Coulomb matrix
     J. Comp. Chem., 2003 24(14)1740-1747
     doi.org/10.1002/jcc.10318
  2. Bykov,D.; Petrenko,T.; Izsak,R.; Kossmann,S.; Becker,U.; Valeev,E.; Neese,F.
     Efficient implementation of the analytic second derivatives of Hartree-Fock and hybrid DFT energies: a detailed analysis of different approximations
     Molec. Phys., 2015 113 1961-1977
     doi.org/10.1080/00268976.2015.1025114
  3. Neese,F.
     The SHARK Integral Generation and Digestion System
     J. Comp. Chem., 2022  1-16
     doi.org/10.1002/jcc.26942
  4. Lehtola,S.; Steigemann,C.; Oliveira,M.; Marques,M.
     Recent developments in Libxc - A comprehensive library of functionals for density functional theory
     Software X, 2018 7 
     doi.org/10.1016/j.softx.2017.11.002
  5. Caldeweyher,E.; Bannwarth,C.; Grimme,S.
     Extension of the D3 dispersion coefficient model
     J. Chem. Phys., 2017 147 034112-XXXX
     doi.org/10.1063/1.4993215
  6. Caldeweyher,E.; Ehlert,S.; Hansen,A.; Neugebauer,H.; Spicher,S.; Bannwarth,C.; Grimme,S.
     A generally applicable atomic-charge dependent London dispersion correction
     J. Chem. Phys., 2019 150 154122-XXXX
     doi.org/10.1063/1.5090222
  7. Caldeweyher,E.; Mewes,J.; Ehlert,S.; Grimme,S.
     Extension and evaluation of the D4 London-dispersion model for periodic systems
     Phys. Chem. Chem. Phys., 2020 22(16)8499-8512
     doi.org/10.1039/D0CP00502A

List of suggested additional citations. These are papers that are important in the 'surrounding' of 
of this run, or papers that preceded the highly important papers. If you like your results we are grateful for a citation.

  1. Neese,F.
     The ORCA program system
     WIRES Comput. Molec. Sci., 2012 2(1)73-78
     doi.org/10.1002/wcms.81
  2. Neese,F.
     Software update: the ORCA program system, version 4.0
     WIRES Comput. Molec. Sci., 2018 8(1)1-6
     doi.org/10.1002/wcms.1327
  3. Neese,F.; Wennmohs,F.; Becker,U.; Riplinger,C.
     The ORCA quantum chemistry program package
     J. Chem. Phys., 2020 152 Art. No. L224108
     doi.org/10.1063/5.0004608

List of optional additional citations

  1. Neese,F.
     Approximate second-order SCF convergence for spin unrestricted wavefunctions
     Chem. Phys. Lett., 2000 325(1-3)93-98
     doi.org/10.1016/s0009-2614(00)00662-x

Timings for individual modules:

Sum of individual times          ...      617.026 sec (=  10.284 min)
Startup calculation              ...        1.147 sec (=   0.019 min)   0.2 %
SCF iterations                   ...       27.052 sec (=   0.451 min)   4.4 %
Property integrals               ...      358.060 sec (=   5.968 min)  58.0 %
SCF Response                     ...      122.826 sec (=   2.047 min)  19.9 %
Property calculations            ...      107.942 sec (=   1.799 min)  17.5 %
                             ****ORCA TERMINATED NORMALLY****
TOTAL RUN TIME: 0 days 0 hours 10 minutes 17 seconds 833 msec
