
                                 *****************
                                 * O   R   C   A *
                                 *****************

                                            #,                                       
                                            ###                                      
                                            ####                                     
                                            #####                                    
                                            ######                                   
                                           ########,                                 
                                     ,,################,,,,,                         
                               ,,#################################,,                 
                          ,,##########################################,,             
                       ,#########################################, ''#####,          
                    ,#############################################,,   '####,        
                  ,##################################################,,,,####,       
                ,###########''''           ''''###############################       
              ,#####''   ,,,,##########,,,,          '''####'''          '####       
            ,##' ,,,,###########################,,,                        '##       
           ' ,,###''''                  '''############,,,                           
         ,,##''                                '''############,,,,        ,,,,,,###''
      ,#''                                            '''#######################'''  
     '                                                          ''''####''''         
             ,#######,   #######,   ,#######,      ##                                
            ,#'     '#,  ##    ##  ,#'     '#,    #''#        ,####,   ,####,        
            ##       ##  ##   ,#'  ##            #'  '#       #'       #'  '#        
            ##       ##  #######   ##           ,######,      #####,   #    #        
            '#,     ,#'  ##    ##  '#,     ,#' ,#      #,     #,   #   #,  ,#        
             '#######'   ##     ##  '#######'  #'      '#     '####' # '####'        



                #########################################################
                #                        -***-                          #
                #          Department of theory and spectroscopy        #
                #                                                       #
                #                      Frank Neese                      #
                #                                                       #
                #     Directorship, Architecture, Infrastructure        #
                #                    SHARK, DRIVERS                     #
                #        Core code/Algorithms in most modules           #
                #                                                       #
                #        Max Planck Institute fuer Kohlenforschung      #
                #                Kaiser Wilhelm Platz 1                 #
                #                 D-45470 Muelheim/Ruhr                 #
                #                      Germany                          #
                #                                                       #
                #                  All rights reserved                  #
                #                        -***-                          #
                #########################################################


                         Program Version 6.0.1  -  RELEASE   -


 With contributions from (in alphabetic order):
[Max-Planck-Institut fuer Kohlenforschung]                               
  Daniel Aravena         : Magnetic Suceptibility                        
  Michael Atanasov       : Ab Initio Ligand Field Theory (pilot matlab implementation)
  Alexander A. Auer      : GIAO ZORA, VPT2 properties, NMR spectrum      
  Ute Becker             : All parallelization in ORCA, NUMFREQ, NUMCALC 
  Giovanni Bistoni       : ED, misc. LED, open-shell LED, HFLD           
  Martin Brehm           : Molecular dynamics                            
  Dmytro Bykov           : pre 5.0 version of the SCF Hessian            
  Marcos Casanova-Páez   : Triplet and SCS-CIS(D). UHF-(DLPNO)-IP/EA/STEOM-CCSD. UHF-CVS-IP/STEOM-CCSD   
  Vijay G. Chilkuri      : MRCI spin determinant printing, contributions to CSF-ICE 
  Pauline Colinet        : FMM embedding                                 
  Dipayan Datta          : RHF DLPNO-CCSD density                        
  Achintya Kumar Dutta   : EOM-CC, STEOM-CC                              
  Nicolas Foglia         : Exact transition moments, OPA infrastructure, MCD improvements    
  Dmitry Ganyushin       : Spin-Orbit,Spin-Spin,Magnetic field MRCI      
  Miquel Garcia-Rates    : C-PCM and meta-GGA Hessian, CCSD/C-PCM, Gaussian charge scheme 
  Tiago L. C. Gouveia    : GS-ROHF, GS-ROCIS                             
  Yang Guo               : DLPNO-NEVPT2, F12-NEVPT2, CIM, IAO-localization        
  Andreas Hansen         : Spin unrestricted coupled pair/coupled cluster methods 
  Ingolf Harden          : AUTO-CI MPn and infrastructure                
  Benjamin Helmich-Paris : MC-RPA, TRAH-(SCF,CASSCF), AVAS, COSX integrals, SCF dyn. polar. 
  Lee Huntington         : MR-EOM, pCC                                   
  Robert Izsak           : Overlap fitted RIJCOSX, COSX-SCS-MP3, EOM     
  Riya Kayal             : Wick's Theorem for AUTO-CI, AUTO-CI UHF-CCSDT 
  Emily Kempfer          : AUTO-CI, RHF CISDT and CCSDT                  
  Christian Kollmar      : KDIIS, OOCD, Brueckner-CCSD(T), CCSD density, CASPT2, CASPT2-K, improved NEVPT2 
  Axel Koslowski         : Symmetry handling                             
  Simone Kossmann        : meta-GGA functionals, TD-DFT gradient, OOMP2, (MP2 Hessian; deprecated post 5.0) 
  Lucas Lang             : DCDCAS                                        
  Marvin Lechner         : AUTO-CI (C++ implementation), FIC-MRCC        
  Spencer Leger          : CASSCF response                               
  Dagmar Lenk            : GEPOL surface, SMD, ORCA-2-JSON               
  Dimitrios Liakos       : Extrapolation schemes; Compound Job, initial MDCI parallelization 
  Dimitrios Manganas     : Further ROCIS development; embedding schemes. LFT, Crystal Embedding 
  Dimitrios Pantazis     : SARC Basis sets                               
  Anastasios Papadopoulos: AUTO-CI, single reference methods and gradients 
  Taras Petrenko         : pre 6.0 DFT Hessian and TD-DFT gradient, (ASA, deprecated), ECA, 1-Electron XAS/XES, NRVS 
  Peter Pinski           : DLPNO-MP2, DLPNO-MP2 Gradient                 
  Christoph Reimann      : Effective Core Potentials                     
  Marius Retegan         : Local ZFS, SOC                                
  Christoph Riplinger    : Optimizer, TS searches, QM/MM, DLPNO-CCSD(T), (RO)-DLPNO pert. Triples 
  Michael Roemelt        : Original ROCIS implementation                 
  Masaaki Saitow         : Open-shell DLPNO-CCSD energy and density      
  Barbara Sandhoefer     : DKH picture change effects                    
  Kantharuban Sivalingam : CASSCF convergence/infrastructure, NEVPT2 and variants, FIC-MRCI 
  Bernardo de Souza      : ESD, SOC TD-DFT                               
  Georgi L. Stoychev     : AutoAux, RI-MP2 NMR, DLPNO-MP2 response, X2C  
  Van Anh Tran           : RI-MP2 g-tensors                              
  Willem Van den Heuvel  : Paramagnetic NMR                              
  Zikuan Wang            : NOTCH, Electric field optimization            
  Frank Wennmohs         : Technical directorship and infrastructure     
  Hang Xu                : AUTO-CI-Response properties                   
                                                                         
[FACCTs GmbH]                                                            
  Markus Bursch, Miquel Garcia-Rates, Christoph Riplinger, Bernardo de Souza, Georgi L. Stoychev 
                                                                 
  APM, Basis sets (HGBS, AHGBS, def-TZVP (Ac-Lr), def2-XVPD (La-Lu)), CI-OPT, improved COSX, DLPNO-Multilevel,           
  DOCKER, DRACO, updates on ESD, GOAT, IRC, LR-CPCM, MBIS, meta-GGA TD-DFT gradient, ML-optimized integration grids, 
  MM, NACMEs, nearIR, NEB, NEB-TS, NL-DFT gradient (VV10), 2- and 3-layer-ONIOM, interface openCOSMO-RS, QMMM,   
  Crystal-QMMM, SF, symmetry and pop. for TD-DFT, r2SCAN hybrids, SOLVATOR                                   
                                                                         
[Other institutions]                                                     
  V. Asgeirsson          : NEB                                           
  Christoph Bannwarth    : sTDA-DFT, sTD-DFT, PBEh-3c, B97-3c, D3        
  Sebastian Ehlert       : rSCAN, r2SCAN, r2SCAN-3c, D4, dhf basis sets  
  Marvin Friede          : D4 for Fr, Ra, Ac-Lr                          
  Lars Goerigk           : TD-DFT with DH, B97 family of functionals     
  Stefan Grimme          : VdW corrections, initial TS optimization, DFT functionals, gCP, sTDA/sTD-DF 
  Waldemar Hujo          : DFT-NL                                        
  H. Jonsson             : NEB                                           
  Holger Kruse           : gCP                                           
  Marcel Mueller         : wB97X-3c, vDZP basis set                      
  Hagen Neugebauer       : wr2SCAN                                       
  Tobias Risthaus        : range-separated hybrid DFT                    
  Lukas Wittmann         : regularized MP2, r2SCAN double-hybrids, wr2SCAN        
                                                                         
We gratefully acknowledge several colleagues who have allowed us to      
interface, adapt or use parts of their codes:                            
  Ed Valeev, F. Pavosevic, A. Kumar             : LibInt (2-el integral package), F12 methods 
  Garnet Chan, S. Sharma, J. Yang, R. Olivares  : DMRG                   
  Ulf Ekstrom                                   : XCFun DFT Library      
  Mihaly Kallay                                 : mrcc  (arbitrary order and MRCC methods)
  Frank Weinhold                                : gennbo (NPA and NBO analysis)           
  Simon Mueller                                 : openCOSMO-RS                            
  Christopher J. Cramer and Donald G. Truhlar   : smd solvation model                     
  S Lehtola, MJT Oliveira, MAL Marques          : LibXC Library                           
  Liviu Ungur et al                             : ANISO software                          


 Your calculation uses the libint2 library for the computation of 2-el integrals
 For citations please refer to: http://libint.valeyev.net

 Your ORCA version has been built with support for libXC version: 6.2.2
 For citations please refer to: https://libxc.gitlab.io

 This ORCA versions uses:
   CBLAS   interface :  Fast vector & matrix operations
   LAPACKE interface :  Fast linear algebra routines
   SCALAPACK package :  Parallel linear algebra routines
   Shared memory     :  Shared parallel matrices
   BLAS/LAPACK       :  OpenBLAS 0.3.27  USE64BITINT DYNAMIC_ARCH NO_AFFINITY Zen SINGLE_THREADED
        Core in use  :  Zen
   Copyright (c) 2011-2014, The OpenBLAS Project


Your calculation utilizes the geometrical counterpoise correction gCP
Please cite in your paper:
H.Kruse, S. Grimme J.Chem.Phys., 136, (2012), 154101 
   

Your calculation utilizes the atom-pairwise dispersion correction
based on EEQ partial charges (D4)


================================================================================

----- Orbital basis set information -----
Your calculation utilizes the basis: def2-SV(P)
   F. Weigend and R. Ahlrichs, Phys. Chem. Chem. Phys. 7, 3297 (2005).

----- AuxJ basis set information -----
Your calculation utilizes the auxiliary basis: def2/J
   F. Weigend, Phys. Chem. Chem. Phys. 8, 1057 (2006).

================================================================================
                                        WARNINGS
                       Please study these warnings very carefully!
================================================================================


================================================================================
                                       INPUT FILE
================================================================================
NAME = sp.inp
|  1> ! pbe def2-sv(p) def2/J RI DEFGRID1 loosescf d4 GCP(DFT/SV(P)) printgap
|  2> %output
|  3>     printlevel normal
|  4> end
|  5> * xyz 0 1
|  6> C -0.6497700121 0.8876134865 0.4175274891
|  7> C 0.3969806458 0.1257751545 -0.3679681761
|  8> Cl 0.3852644957 -1.5964123383 0.0661782473
|  9> Cl 1.99877008 0.8190664446 -0.0123010353
| 10> Cl -2.2732447502 0.3528119116 -0.0777771923
| 11> H -0.5473631233 0.7042888203 1.4874117116
| 12> H -0.5746836729 1.955491325 0.2086271486
| 13> H 0.237456459 0.1968448172 -1.4459455047
| 14> *
| 15> 
| 16>                          ****END OF INPUT****
================================================================================

                       ****************************
                       * Single Point Calculation *
                       ****************************

---------------------------------
CARTESIAN COORDINATES (ANGSTROEM)
---------------------------------
  C     -0.649770    0.887613    0.417527
  C      0.396981    0.125775   -0.367968
  Cl     0.385264   -1.596412    0.066178
  Cl     1.998770    0.819066   -0.012301
  Cl    -2.273245    0.352812   -0.077777
  H     -0.547363    0.704289    1.487412
  H     -0.574684    1.955491    0.208627
  H      0.237456    0.196845   -1.445946

----------------------------
CARTESIAN COORDINATES (A.U.)
----------------------------
  NO LB      ZA    FRAG     MASS         X           Y           Z
   0 C     6.0000    0    12.011   -1.227887    1.677346    0.789013
   1 C     6.0000    0    12.011    0.750185    0.237681   -0.695359
   2 Cl   17.0000    0    35.453    0.728044   -3.016782    0.125059
   3 Cl   17.0000    0    35.453    3.777128    1.547811   -0.023246
   4 Cl   17.0000    0    35.453   -4.295810    0.666718   -0.146978
   5 H     1.0000    0     1.008   -1.034366    1.330913    2.810801
   6 H     1.0000    0     1.008   -1.085995    3.695343    0.394248
   7 H     1.0000    0     1.008    0.448728    0.371983   -2.732441

--------------------------------
INTERNAL COORDINATES (ANGSTROEM)
--------------------------------
 C      0   0   0     0.000000000000     0.00000000     0.00000000
 C      1   0   0     1.514294563144     0.00000000     0.00000000
 Cl     2   1   0     1.776105330627   110.88360372     0.00000000
 Cl     2   1   3     1.781258352819   108.79685740   239.46411772
 Cl     1   2   3     1.779609417030   109.57491904   293.34315007
 H      1   2   3     1.090296910784   111.06895890    52.52646601
 H      1   2   3     1.090706371374   110.22037794   175.01637101
 H      2   1   3     1.092032043534   112.22999196   120.44953703

---------------------------
INTERNAL COORDINATES (A.U.)
---------------------------
 C      0   0   0     0.000000000000     0.00000000     0.00000000
 C      1   0   0     2.861602010428     0.00000000     0.00000000
 Cl     2   1   0     3.356352659882   110.88360372     0.00000000
 Cl     2   1   3     3.366090460588   108.79685740   239.46411772
 Cl     1   2   3     3.362974423534   109.57491904   293.34315007
 H      1   2   3     2.060362566042   111.06895890    52.52646601
 H      1   2   3     2.061136334419   110.22037794   175.01637101
 H      2   1   3     2.063641491747   112.22999196   120.44953703

---------------------
BASIS SET INFORMATION
---------------------
There are 3 groups of distinct atoms

 Group   1 Type C   : 7s4p1d contracted to 3s2p1d pattern {511/31/1}
 Group   2 Type Cl  : 10s7p1d contracted to 4s3p1d pattern {5311/511/1}
 Group   3 Type H   : 4s contracted to 2s pattern {31}

Atom   0C    basis set group =>   1
Atom   1C    basis set group =>   1
Atom   2Cl   basis set group =>   2
Atom   3Cl   basis set group =>   2
Atom   4Cl   basis set group =>   2
Atom   5H    basis set group =>   3
Atom   6H    basis set group =>   3
Atom   7H    basis set group =>   3
---------------------------------
AUXILIARY/J BASIS SET INFORMATION
---------------------------------
There are 3 groups of distinct atoms

 Group   1 Type C   : 12s5p4d2f1g contracted to 6s4p3d1f1g pattern {711111/2111/211/2/1}
 Group   2 Type Cl  : 14s5p5d2f1g contracted to 8s4p3d1f1g pattern {71111111/2111/311/2/1}
 Group   3 Type H   : 5s2p1d contracted to 3s1p1d pattern {311/2/1}

Atom   0C    basis set group =>   1
Atom   1C    basis set group =>   1
Atom   2Cl   basis set group =>   2
Atom   3Cl   basis set group =>   2
Atom   4Cl   basis set group =>   2
Atom   5H    basis set group =>   3
Atom   6H    basis set group =>   3
Atom   7H    basis set group =>   3
------------------------------------------------------------------------------
                             ORCA STARTUP CALCULATIONS
                           -- RI-GTO INTEGRALS CHOSEN --
------------------------------------------------------------------------------
------------------------------------------------------------------------------
                   ___                                                        
                  /   \      - P O W E R E D   B Y -                         
                 /     \                                                     
                 |  |  |   _    _      __       _____    __    __             
                 |  |  |  | |  | |    /  \     |  _  \  |  |  /  |          
                  \  \/   | |  | |   /    \    | | | |  |  | /  /          
                 / \  \   | |__| |  /  /\  \   | |_| |  |  |/  /          
                |  |  |   |  __  | /  /__\  \  |    /   |      \           
                |  |  |   | |  | | |   __   |  |    \   |  |\   \          
                \     /   | |  | | |  |  |  |  | |\  \  |  | \   \       
                 \___/    |_|  |_| |__|  |__|  |_| \__\ |__|  \__/        
                                                                              
                      - O R C A' S   B I G   F R I E N D -                    
                                      &                                       
                       - I N T E G R A L  F E E D E R -                       
                                                                              
 v1 FN, 2020, v2 2021, v3 2022-2024                                           
------------------------------------------------------------------------------


----------------------
SHARK INTEGRAL PACKAGE
----------------------

Number of atoms                             ...      8
Number of basis functions                   ...     88
Number of shells                            ...     42
Maximum angular momentum                    ...      2
Integral batch strategy                     ... SHARK/LIBINT Hybrid
RI-J (if used) integral strategy            ... SPLIT-RIJ (Revised 2003 algorithm where possible)
Printlevel                                  ...      1
Contraction scheme used                     ... SEGMENTED contraction
Prescreening option                         ... SCHWARTZ
   Thresh                                   ... 1.000e-09
   Tcut                                     ... 1.000e-10
   Tpresel                                  ... 1.000e-10 
Coulomb Range Separation                    ... NOT USED
Exchange Range Separation                   ... NOT USED
Multipole approximations                    ... NOT USED
Finite Nucleus Model                        ... NOT USED
CABS basis                                  ... NOT available
Auxiliary Coulomb fitting basis             ... AVAILABLE
   # of basis functions in Aux-J            ...    284
   # of shells in Aux-J                     ...     96
   Maximum angular momentum in Aux-J        ...      4
Auxiliary J/K fitting basis                 ... NOT available
Auxiliary Correlation fitting basis         ... NOT available
Auxiliary 'external' fitting basis          ... NOT available

Checking pre-screening integrals            ... done (  0.0 sec) Dimension = 42
Check shell pair data                       ... done (  0.0 sec)
Shell pair information
Shell pair cut-off parameter TPreSel        ...   1.0e-10
Total number of shell pairs                 ...       903
Shell pairs after pre-screening             ...       843
Total number of primitive shell pairs       ...      4199
Primitive shell pairs kept                  ...      2790
          la=0 lb=0:    274 shell pairs
          la=1 lb=0:    289 shell pairs
          la=1 lb=1:     86 shell pairs
          la=2 lb=0:    116 shell pairs
          la=2 lb=1:     63 shell pairs
          la=2 lb=2:     15 shell pairs

Calculating one electron integrals          ... done (  0.0 sec)
Calculating RI/J V-Matrix + Cholesky decomp.... done (  0.0 sec)
Calculating Nuclear repulsion               ... done (  0.0 sec) ENN=    342.245132935342 Eh

Diagonalization of the overlap matrix:
Smallest eigenvalue                        ... 3.057e-03
Time for diagonalization                   ...    0.003 sec
Threshold for overlap eigenvalues          ... 1.000e-07
Number of eigenvalues below threshold      ... 0
Time for construction of square roots      ...    0.004 sec
Total time needed                          ...    0.007 sec

-------------------
DFT GRID GENERATION
-------------------

General Integration Accuracy     IntAcc      ... 4.159
Radial Grid Type                 RadialGrid  ... OptM3 with GC (2021)
Angular Grid (max. ang.)         AngularGrid ... 3 (Lebedev-194)
Angular grid pruning method      GridPruning ... 4 (adaptive)
Weight generation scheme         WeightScheme... mBecke (2022)
Basis function cutoff            BFCut       ... 1.0000e-10
Integration weight cutoff        WCut        ... 1.0000e-14
Partially contracted basis set               ... off
Rotationally invariant grid construction     ... off
Angular grids for H and He will be reduced by one unit

Total number of grid points                  ...    23582
Total number of batches                      ...      372
Average number of points per batch           ...       63
Average number of grid points per atom       ...     2948
Initializing property integral containers    ... done (  0.0 sec)

SHARK setup successfully completed in   0.3 seconds

Maximum memory used throughout the entire STARTUP-calculation: 12.5 MB
-------------------------------------------------------------------------------
                                 ORCA GUESS
                   Start orbitals & Density for SCF / CASSCF
-------------------------------------------------------------------------------

------------
SCF SETTINGS
------------
Hamiltonian:
 Density Functional     Method          .... DFT(GTOs)
 Exchange Functional    Exchange        .... PBE
   PBE kappa parameter   XKappa         ....  0.804000
   PBE mue parameter    XMuePBE         ....  0.219520
 Correlation Functional Correlation     .... PBE
   PBE beta parameter  CBetaPBE         ....  0.066725
 LDA part of GGA corr.  LDAOpt          .... PW91-LDA
 Gradients option       PostSCFGGA      .... off
   NL short-range parameter             ....  6.400000
 RI-approximation to the Coulomb term is turned on
   Number of AuxJ basis functions       .... 284


General Settings:
 Integral files         IntName         .... sp
 Hartree-Fock type      HFTyp           .... RHF
 Total Charge           Charge          ....    0
 Multiplicity           Mult            ....    1
 Number of Electrons    NEL             ....   66
 Basis Dimension        Dim             ....   88
 Nuclear Repulsion      ENuc            ....    342.2451329353 Eh

Convergence Acceleration:
 AO-DIIS                CNVDIIS         .... on
   Start iteration      DIISMaxIt       ....    12
   Startup error        DIISStart       ....  0.200000
   # of expansion vecs  DIISMaxEq       ....     5
   Bias factor          DIISBfac        ....   1.050
   Max. coefficient     DIISMaxC        ....  10.000
 MO-DIIS                CNVKDIIS        .... off
 Trust-Rad. Augm. Hess. CNVTRAH         .... auto
   Auto Start mean grad. ratio tolernc. ....  1.125000
   Auto Start start iteration           ....    50
   Auto Start num. interpolation iter.  ....    10
   Max. Number of Micro iterations      ....    24
   Max. Number of Macro iterations      .... Maxiter - #DIIS iter
   Number of Davidson start vectors     ....     2
   Converg. threshold    (grad. norm)   ....   1.000e-04
   Grad. Scal. Fac. for Micro threshold ....   0.100
   Minimum threshold for Micro iter.    ....   1.000e-02
   NR start threshold (gradient norm)   ....   1.000e-04
   Initial trust radius                 ....   0.400
   Minimum AH scaling param. (alpha)    ....   1.000
   Maximum AH scaling param. (alpha)    .... 1000.000
   Quad. conv. algorithm                .... NR
   White noise on init. David. guess    .... on
   Maximum white noise                  ....   0.010
   Pseudo random numbers                .... off
   Inactive MOs                         .... canonical
   Orbital update algorithm             .... Taylor
   Preconditioner                       .... Diag
   Full preconditioner red. dimension   ....   250
 SOSCF                  CNVSOSCF        .... on
   Start iteration      SOSCFMaxIt      ....   150
   Startup grad/error   SOSCFStart      ....  0.003300
   Hessian update       SOSCFHessUp     .... L-BFGS
 Level Shifting         CNVShift        .... on
   Level shift para.    LevelShift      ....    0.2500
   Turn off err/grad.   ShiftErr        ....    0.0010
 Zerner damping         CNVZerner       .... off
 Static damping         CNVDamp         .... on
   Fraction old density DampFac         ....    0.7000
   Max. Damping (<1)    DampMax         ....    0.9800
   Min. Damping (>=0)   DampMin         ....    0.0000
   Turn off err/grad.   DampErr         ....    0.1000

SCF Procedure:
 Maximum # iterations   MaxIter         ....   125
 SCF integral mode      SCFMode         .... Direct
   Integral package                     .... SHARK and LIBINT hybrid scheme
 Reset frequency        DirectResetFreq ....    20
 Integral Threshold     Thresh          ....  1.000e-09 Eh
 Primitive CutOff       TCut            ....  1.000e-10 Eh

Convergence Tolerance:
 Convergence Check Mode ConvCheckMode   .... Total+1el-Energy
 Convergence forced     ConvForced      .... 0
 Energy Change          TolE            ....  1.000e-05 Eh
 1-El. energy change                    ....  1.000e-02 Eh
 Orbital Gradient       TolG            ....  1.000e-04
 Orbital Rotation angle TolX            ....  1.000e-04
 DIIS Error             TolErr          ....  5.000e-04

------------------------------
INITIAL GUESS: MODEL POTENTIAL
------------------------------
Loading Hartree-Fock densities                     ... done
Calculating cut-offs                               ... done
Initializing the effective Hamiltonian             ... done
Setting up the integral package (SHARK)            ... done
Starting the Coulomb interaction                   ... done (   0.0 sec)
Making the grid                                    ... done (   0.1 sec)
Mapping shells                                     ... done
Starting the XC term evaluation                    ... done (   0.0 sec)
  promolecular density results
     # of electrons  =     66.000219032
     EX              =    -93.272918299
     EC              =     -2.503367473
     EX+EC           =    -95.776285772
Transforming the Hamiltonian                       ... done (   0.0 sec)
Diagonalizing the Hamiltonian                      ... done (   0.0 sec)
Back transforming the eigenvectors                 ... done (   0.0 sec)
Now organizing SCF variables                       ... done
                      ------------------
                      INITIAL GUESS DONE (   0.1 sec)
                      ------------------
             **** ENERGY FILE WAS UPDATED (sp.en.tmp) ****
Finished Guess after   0.2 sec
Maximum memory used throughout the entire GUESS-calculation: 9.5 MB

-------------------------------------------------------------------------------------------
                                      ORCA LEAN-SCF
                              memory conserving SCF solver
-------------------------------------------------------------------------------------------

----------------------------------------D-I-I-S--------------------------------------------
Iteration    Energy (Eh)           Delta-E    RMSDP     MaxDP     DIISErr   Damp  Time(sec)
-------------------------------------------------------------------------------------------
               ***  Starting incremental Fock matrix formation  ***
    1    -1457.4237759406018995     0.00e+00  1.98e-03  4.52e-02  7.26e-02  0.700   0.2
    2    -1457.4324062214095648    -8.63e-03  1.45e-03  2.58e-02  3.49e-02  0.700   0.1
                               ***Turning on AO-DIIS***
    3    -1457.4361762333953720    -3.77e-03  7.49e-04  9.17e-03  1.23e-02  0.700   0.1
    4    -1457.4384810908802592    -2.30e-03  1.40e-03  1.36e-02  7.72e-03  0.000   0.1
                              *** Initializing SOSCF ***
---------------------------------------S-O-S-C-F--------------------------------------
Iteration    Energy (Eh)           Delta-E    RMSDP     MaxDP     MaxGrad    Time(sec)
--------------------------------------------------------------------------------------
    5    -1457.4434129634767032    -4.93e-03  1.70e-04  2.47e-03  1.78e-03     0.1
               *** Restarting incremental Fock matrix formation ***
    6    -1457.4434349274824854    -2.20e-05  5.50e-05  6.76e-04  8.39e-05     0.1
    7    -1457.4434353167225709    -3.89e-07  1.76e-05  2.25e-04  5.79e-05     0.1
                 **** Energy Check signals convergence ****

               *****************************************************
               *                     SUCCESS                       *
               *           SCF CONVERGED AFTER   7 CYCLES          *
               *****************************************************

             **** ENERGY FILE WAS UPDATED (sp.en.tmp) ****

----------------
TOTAL SCF ENERGY
----------------

Total Energy       :      -1457.44343531672257 Eh          -39659.05210 eV

Components:
Nuclear Repulsion  :        342.24513293534238 Eh            9312.96353 eV
Electronic Energy  :      -1799.68856825206490 Eh          -48972.01563 eV
One Electron Energy:      -2691.71135077477038 Eh          -73245.18957 eV
Two Electron Energy:        892.02278252270548 Eh           24273.17394 eV

Virial components:
Potential Energy   :      -2911.63989013615947 Eh          -79229.74937 eV
Kinetic Energy     :       1454.19645481943689 Eh           39570.69727 eV
Virial Ratio       :          2.00223283483227

DFT components:
N(Alpha)           :       33.000048878509 electrons
N(Beta)            :       33.000048878509 electrons
N(Total)           :       66.000097757018 electrons
E(X)               :      -93.532392585076 Eh       
E(C)               :       -2.506362063169 Eh       
E(XC)              :      -96.038754648245 Eh       

---------------
SCF CONVERGENCE
---------------

  Last Energy change         ...    3.8924e-07  Tolerance :   1.0000e-05
  Last MAX-Density change    ...    2.2491e-04  Tolerance :   1.0000e-03
  Last RMS-Density change    ...    1.7562e-05  Tolerance :   1.0000e-04
  Last DIIS Error            ...    1.7844e-03  Tolerance :   5.0000e-04
  Last Orbital Gradient      ...    5.7891e-05  Tolerance :   1.0000e-04
  Last Orbital Rotation      ...    1.0842e-04  Tolerance :   1.0000e-04


----------------
ORBITAL ENERGIES
----------------

  NO   OCC          E(Eh)            E(eV) 
   0   2.0000    -100.649987     -2738.8254 
   1   2.0000    -100.644350     -2738.6720 
   2   2.0000    -100.639361     -2738.5362 
   3   2.0000     -10.017906      -272.6011 
   4   2.0000      -9.968710      -271.2624 
   5   2.0000      -9.186251      -249.9706 
   6   2.0000      -9.180662      -249.8185 
   7   2.0000      -9.175248      -249.6712 
   8   2.0000      -7.017961      -190.9684 
   9   2.0000      -7.012538      -190.8209 
  10   2.0000      -7.007130      -190.6737 
  11   2.0000      -7.005893      -190.6401 
  12   2.0000      -7.005606      -190.6322 
  13   2.0000      -7.000173      -190.4844 
  14   2.0000      -6.999967      -190.4788 
  15   2.0000      -6.994910      -190.3412 
  16   2.0000      -6.994475      -190.3293 
  17   2.0000      -0.847894       -23.0724 
  18   2.0000      -0.785572       -21.3765 
  19   2.0000      -0.753621       -20.5071 
  20   2.0000      -0.651335       -17.7237 
  21   2.0000      -0.561231       -15.2719 
  22   2.0000      -0.465064       -12.6550 
  23   2.0000      -0.439387       -11.9563 
  24   2.0000      -0.426044       -11.5933 
  25   2.0000      -0.386364       -10.5135 
  26   2.0000      -0.375230       -10.2105 
  27   2.0000      -0.295363        -8.0372 
  28   2.0000      -0.283428        -7.7125 
  29   2.0000      -0.277883        -7.5616 
  30   2.0000      -0.266603        -7.2546 
  31   2.0000      -0.263712        -7.1760 
  32   2.0000      -0.257735        -7.0133 
  33   0.0000      -0.028723        -0.7816 
  34   0.0000      -0.018630        -0.5070 
  35   0.0000       0.013827         0.3763 
  36   0.0000       0.057388         1.5616 
  37   0.0000       0.063373         1.7245 
  38   0.0000       0.092633         2.5207 
  39   0.0000       0.123203         3.3525 
  40   0.0000       0.344178         9.3656 
  41   0.0000       0.357229         9.7207 
  42   0.0000       0.364364         9.9148 
  43   0.0000       0.373632        10.1670 
*Only the first 10 virtual orbitals were printed.

                    ********************************
                    * MULLIKEN POPULATION ANALYSIS *
                    ********************************

-----------------------
MULLIKEN ATOMIC CHARGES
-----------------------
   0 C :   -0.110975
   1 C :   -0.121323
   2 Cl:   -0.066322
   3 Cl:   -0.072508
   4 Cl:   -0.118182
   5 H :    0.156460
   6 H :    0.156280
   7 H :    0.176570
Sum of atomic charges:    0.0000000

--------------------------------
MULLIKEN REDUCED ORBITAL CHARGES
--------------------------------
  0 C s       :     3.112270  s :     3.112270
      pz      :     1.091691  p :     2.955266
      px      :     0.800649
      py      :     1.062925
      dz2     :     0.011641  d :     0.043439
      dxz     :     0.007975
      dyz     :     0.003479
      dx2y2   :     0.012512
      dxy     :     0.007832

  1 C s       :     3.176162  s :     3.176162
      pz      :     1.140817  p :     2.884501
      px      :     0.881206
      py      :     0.862477
      dz2     :     0.014964  d :     0.060659
      dxz     :     0.008007
      dyz     :     0.008214
      dx2y2   :     0.015682
      dxy     :     0.013792

  2 Cls       :     5.954535  s :     5.954535
      pz      :     3.896761  p :    11.078758
      px      :     3.928377
      py      :     3.253620
      dz2     :     0.004752  d :     0.033028
      dxz     :     0.000395
      dyz     :     0.008254
      dx2y2   :     0.013727
      dxy     :     0.005901

  3 Cls       :     5.955006  s :     5.955006
      pz      :     3.913851  p :    11.084930
      px      :     3.363627
      py      :     3.807452
      dz2     :     0.004875  d :     0.032572
      dxz     :     0.006579
      dyz     :     0.001333
      dx2y2   :     0.009909
      dxy     :     0.009875

  4 Cls       :     5.959453  s :     5.959453
      pz      :     3.887721  p :    11.125705
      px      :     3.352703
      py      :     3.885280
      dz2     :     0.004664  d :     0.033025
      dxz     :     0.008005
      dyz     :     0.001083
      dx2y2   :     0.010658
      dxy     :     0.008615

  5 H s       :     0.843540  s :     0.843540

  6 H s       :     0.843720  s :     0.843720

  7 H s       :     0.823430  s :     0.823430


------------------------
MULLIKEN OVERLAP CHARGES
------------------------
B(  0-C ,  1-C ) :   0.5480 B(  0-C ,  2-Cl) :  -0.1444 B(  0-C ,  3-Cl) :  -0.1105 
B(  0-C ,  4-Cl) :   0.5174 B(  0-C ,  5-H ) :   0.6704 B(  0-C ,  6-H ) :   0.6859 
B(  0-C ,  7-H ) :  -0.0731 B(  1-C ,  2-Cl) :   0.5326 B(  1-C ,  3-Cl) :   0.4840 
B(  1-C ,  4-Cl) :  -0.1324 B(  1-C ,  7-H ) :   0.7333 B(  2-Cl,  3-Cl) :  -0.1208 
B(  2-Cl,  7-H ) :  -0.0727 B(  3-Cl,  7-H ) :  -0.0550 B(  4-Cl,  5-H ) :  -0.0556 



                     *******************************
                     * LOEWDIN POPULATION ANALYSIS *
                     *******************************

----------------------
LOEWDIN ATOMIC CHARGES
----------------------
   0 C :   -0.318114
   1 C :   -0.296658
   2 Cl:    0.077763
   3 Cl:    0.075795
   4 Cl:    0.056431
   5 H :    0.135626
   6 H :    0.135858
   7 H :    0.133300

-------------------------------
LOEWDIN REDUCED ORBITAL CHARGES
-------------------------------
  0 C s       :     3.001872  s :     3.001872
      pz      :     1.135263  p :     3.214884
      px      :     0.950926
      py      :     1.128695
      dz2     :     0.026563  d :     0.101358
      dxz     :     0.019471
      dyz     :     0.007705
      dx2y2   :     0.027941
      dxy     :     0.019678

  1 C s       :     3.029440  s :     3.029440
      pz      :     1.159497  p :     3.134325
      px      :     1.001855
      py      :     0.972973
      dz2     :     0.032797  d :     0.132893
      dxz     :     0.018641
      dyz     :     0.017607
      dx2y2   :     0.032860
      dxy     :     0.030988

  2 Cls       :     5.791469  s :     5.791469
      pz      :     3.891043  p :    11.091603
      px      :     3.915619
      py      :     3.284941
      dz2     :     0.005816  d :     0.039165
      dxz     :     0.000470
      dyz     :     0.009148
      dx2y2   :     0.017475
      dxy     :     0.006257

  3 Cls       :     5.792957  s :     5.792957
      pz      :     3.906083  p :    11.092851
      px      :     3.374604
      py      :     3.812165
      dz2     :     0.005991  d :     0.038397
      dxz     :     0.007183
      dyz     :     0.001477
      dx2y2   :     0.011495
      dxy     :     0.012250

  4 Cls       :     5.788764  s :     5.788764
      pz      :     3.881229  p :    11.117259
      px      :     3.358264
      py      :     3.877766
      dz2     :     0.005336  d :     0.037546
      dxz     :     0.008806
      dyz     :     0.001205
      dx2y2   :     0.012597
      dxy     :     0.009603

  5 H s       :     0.864374  s :     0.864374

  6 H s       :     0.864142  s :     0.864142

  7 H s       :     0.866700  s :     0.866700


---------------------------------
LOEWDIN BOND ORDERS (THRESH 0.050000)
---------------------------------
B(  0-C ,  1-C ) :   1.1294 B(  0-C ,  2-Cl) :   0.0776 B(  0-C ,  3-Cl) :   0.0917 
B(  0-C ,  4-Cl) :   1.2066 B(  0-C ,  5-H ) :   0.9144 B(  0-C ,  6-H ) :   0.9087 
B(  1-C ,  2-Cl) :   1.2200 B(  1-C ,  3-Cl) :   1.1982 B(  1-C ,  4-Cl) :   0.0884 
B(  1-C ,  7-H ) :   0.9052 B(  2-Cl,  3-Cl) :   0.1027 

------------------------------------------
LOEWDIN REDUCED ORBITAL POPULATIONS PER MO
-------------------------------------------
THRESHOLD FOR PRINTING IS 0.1%%
                      0         1         2         3         4         5   
                 -100.64999 -100.64435 -100.63936 -10.01791  -9.96871  -9.18625
                   2.00000   2.00000   2.00000   2.00000   2.00000   2.00000
                  --------  --------  --------  --------  --------  --------
 0 C  s               0.0       0.0       0.0       0.0      99.7       0.0
 1 C  s               0.0       0.0       0.0      99.7       0.0       0.0
 2 Cl s               0.0     100.0       0.0       0.0       0.0       0.0
 3 Cl s             100.0       0.0       0.0       0.0       0.0      99.9
 4 Cl s               0.0       0.0     100.0       0.0       0.0       0.0

                      6         7         8         9        10        11   
                  -9.18066  -9.17525  -7.01796  -7.01254  -7.00713  -7.00589
                   2.00000   2.00000   2.00000   2.00000   2.00000   2.00000
                  --------  --------  --------  --------  --------  --------
 0 C  px              0.0       0.1       0.0       0.0       0.0       0.0
 1 C  py              0.1       0.0       0.0       0.0       0.0       0.0
 2 Cl s              99.9       0.0       0.0       0.0       0.0       0.0
 2 Cl pz              0.0       0.0       0.0       6.6       0.0       0.0
 2 Cl py              0.0       0.0       0.0      93.4       0.0       0.0
 3 Cl pz              0.0       0.0       4.0       0.0       0.0       0.0
 3 Cl px              0.0       0.0      80.9       0.0       0.0      15.5
 3 Cl py              0.0       0.0      15.1       0.0       0.0      84.5
 4 Cl s               0.0      99.9       0.0       0.0       0.0       0.0
 4 Cl pz              0.0       0.0       0.0       0.0       7.9       0.0
 4 Cl px              0.0       0.0       0.0       0.0      83.1       0.0
 4 Cl py              0.0       0.0       0.0       0.0       8.9       0.0

                     12        13        14        15        16        17   
                  -7.00561  -7.00017  -6.99997  -6.99491  -6.99447  -0.84789
                   2.00000   2.00000   2.00000   2.00000   2.00000   2.00000
                  --------  --------  --------  --------  --------  --------
 0 C  s               0.0       0.0       0.0       0.0       0.0      11.0
 0 C  pz              0.0       0.0       0.0       0.0       0.0       1.1
 0 C  px              0.0       0.0       0.0       0.0       0.0       0.4
 0 C  py              0.0       0.0       0.0       0.0       0.0       1.5
 1 C  s               0.0       0.0       0.0       0.0       0.0      27.1
 1 C  pz              0.0       0.0       0.0       0.0       0.0       1.2
 1 C  px              0.0       0.0       0.0       0.0       0.0       0.4
 1 C  py              0.0       0.0       0.0       0.0       0.0       0.2
 2 Cl s               0.0       0.0       0.0       0.0       0.0      17.9
 2 Cl pz              0.0      10.0      83.4       0.0       0.0       0.1
 2 Cl px              0.0      89.4      10.6       0.0       0.0       0.0
 2 Cl py              0.0       0.6       6.0       0.0       0.0       2.2
 2 Cl dx2y2           0.0       0.0       0.0       0.0       0.0       0.1
 3 Cl s               0.0       0.0       0.0       0.0       0.0      18.9
 3 Cl pz             96.0       0.0       0.0       0.0       0.0       0.1
 3 Cl px              3.5       0.0       0.0       0.0       0.0       1.9
 3 Cl py              0.5       0.0       0.0       0.0       0.0       0.4
 4 Cl s               0.0       0.0       0.0       0.0       0.0       6.1
 4 Cl pz              0.0       0.0       0.0      56.2      35.9       0.0
 4 Cl px              0.0       0.0       0.0      16.3       0.6       0.8
 4 Cl py              0.0       0.0       0.0      27.5      63.5       0.0
 5 H  s               0.0       0.0       0.0       0.0       0.0       1.9
 6 H  s               0.0       0.0       0.0       0.0       0.0       1.8
 7 H  s               0.0       0.0       0.0       0.0       0.0       4.3

                     18        19        20        21        22        23   
                  -0.78557  -0.75362  -0.65134  -0.56123  -0.46506  -0.43939
                   2.00000   2.00000   2.00000   2.00000   2.00000   2.00000
                  --------  --------  --------  --------  --------  --------
 0 C  s              11.3       0.5      16.3       8.6       0.2       0.1
 0 C  pz              0.2       0.0       0.0       7.9       8.4       2.2
 0 C  px              8.6       0.0       7.6       0.3       1.9       2.0
 0 C  py              0.2       0.3       0.1       3.1      18.6      12.3
 0 C  dxz             0.1       0.0       0.2       0.0       0.0       0.0
 0 C  dyz             0.0       0.0       0.0       0.1       0.0       0.1
 0 C  dxy             0.1       0.0       0.1       0.0       0.1       0.0
 1 C  s               1.0       0.0       7.6      13.8       0.5       0.1
 1 C  pz              0.0       0.0       0.2      11.6      21.1       1.1
 1 C  px              7.0       3.5       6.4       0.0       0.2      18.6
 1 C  py              0.5      14.1       3.9       0.2       3.0       2.2
 1 C  dz2             0.0       0.0       0.1       0.1       0.0       0.0
 1 C  dxz             0.1       0.0       0.1       0.0       0.0       0.1
 1 C  dyz             0.0       0.1       0.1       0.0       0.0       0.0
 1 C  dx2y2           0.0       0.6       0.0       0.0       0.0       0.0
 1 C  dxy             0.1       0.1       0.2       0.0       0.0       0.0
 2 Cl s               3.2      45.4       7.1       7.3       4.3       0.4
 2 Cl pz              0.0       0.0       0.0       1.4       0.6       0.3
 2 Cl px              0.1       0.0       0.1       0.0       0.0       3.6
 2 Cl py              0.1       0.4       0.9       4.2      11.9       0.8
 2 Cl dz2             0.0       0.0       0.0       0.0       0.1       0.0
 2 Cl dyz             0.0       0.0       0.0       0.1       0.0       0.0
 2 Cl dx2y2           0.0       0.1       0.0       0.1       0.2       0.0
 2 Cl dxy             0.0       0.0       0.0       0.0       0.0       0.2
 3 Cl s              13.0      33.0      11.7       4.9       0.3       6.8
 3 Cl pz              0.0       0.0       0.0       1.2       1.5       0.5
 3 Cl px              0.2       0.2       1.4       2.9       1.0      23.5
 3 Cl py              0.1       0.0       0.0       0.9       1.5       4.2
 3 Cl dz2             0.0       0.0       0.0       0.0       0.0       0.1
 3 Cl dx2y2           0.0       0.0       0.0       0.0       0.0       0.1
 3 Cl dxy             0.0       0.0       0.0       0.1       0.1       0.2
 4 Cl s              48.1       1.1      23.3       3.2       0.6       3.0
 4 Cl pz              0.1       0.0       0.1       1.0       0.4       0.1
 4 Cl px              1.6       0.0       1.9       1.3       0.8      12.2
 4 Cl py              0.2       0.0       0.2       0.5       2.5       0.2
 4 Cl dx2y2           0.1       0.0       0.0       0.0       0.0       0.2
 4 Cl dxy             0.1       0.0       0.0       0.0       0.1       0.0
 5 H  s               1.7       0.1       3.8       7.4       3.4       0.3
 6 H  s               1.8       0.3       4.5       4.8       9.9       3.7
 7 H  s               0.1       0.0       1.7      12.6       6.2       0.7

                     24        25        26        27        28        29   
                  -0.42604  -0.38636  -0.37523  -0.29536  -0.28343  -0.27788
                   2.00000   2.00000   2.00000   2.00000   2.00000   2.00000
                  --------  --------  --------  --------  --------  --------
 0 C  s               0.3       0.0       0.1       0.6       0.1       0.3
 0 C  pz             14.9      15.2       3.2       0.1       0.1       0.1
 0 C  px             13.3       0.9       9.1       1.2       0.2       0.3
 0 C  py              1.5       7.4       6.8       0.7       0.3       0.2
 0 C  dz2             0.1       0.5       0.1       0.2       0.0       0.0
 0 C  dxz             0.1       0.1       0.0       0.0       0.0       0.1
 0 C  dx2y2           0.0       0.1       0.5       0.0       0.1       0.1
 0 C  dxy             0.1       0.0       0.1       0.0       0.0       0.1
 1 C  s               0.0       0.0       0.0       0.0       0.0       0.7
 1 C  pz              9.1       8.1       0.8       0.3       0.3       0.5
 1 C  px              6.7       0.1       4.0       0.9       0.0       0.9
 1 C  py             12.9       6.3       3.4       0.6       0.0       0.4
 1 C  dz2             0.0       0.4       0.1       0.2       0.0       0.3
 1 C  dxz             0.0       0.0       0.0       0.0       0.3       0.0
 1 C  dyz             0.0       0.0       0.0       0.0       0.2       0.2
 1 C  dx2y2           0.0       0.1       0.5       0.2       0.0       0.0
 1 C  dxy             0.0       0.1       0.0       0.8       0.0       0.0
 2 Cl s               1.9       1.5       0.5       0.1       0.0       0.0
 2 Cl pz              4.0       0.1       2.9       2.6      20.7      30.9
 2 Cl px              1.4       1.4       1.0      28.5       3.9       2.5
 2 Cl py              6.9      19.0       5.3       3.8       3.1       1.7
 2 Cl dyz             0.2       0.0       0.1       0.0       0.0       0.0
 2 Cl dx2y2           0.1       0.2       0.0       0.0       0.0       0.0
 3 Cl s               0.0       0.0       0.9       0.0       0.0       0.0
 3 Cl pz              1.7       2.9       1.3       1.9      60.2       2.1
 3 Cl px              0.6       0.4      11.4      16.3       4.7       0.4
 3 Cl py              3.3       2.3       4.4      32.7       1.8       5.2
 4 Cl s               1.3       0.2       2.6       0.0       0.0       0.0
 4 Cl pz              5.1       2.0       2.7       5.3       0.9      16.0
 4 Cl px              2.4       1.7      28.9       0.3       0.2       7.4
 4 Cl py              2.1       5.0       1.7       0.1       1.4      26.3
 4 Cl dxz             0.2       0.0       0.1       0.0       0.0       0.0
 4 Cl dx2y2           0.0       0.0       0.2       0.0       0.0       0.0
 4 Cl dxy             0.1       0.1       0.1       0.0       0.0       0.0
 5 H  s               6.3      11.2       1.9       0.8       0.0       0.2
 6 H  s               0.2       6.1       4.3       0.5       0.8       0.6
 7 H  s               2.7       6.1       1.0       1.3       0.6       2.2

                     30        31        32        33        34        35   
                  -0.26660  -0.26371  -0.25773  -0.02872  -0.01863   0.01383
                   2.00000   2.00000   2.00000   0.00000   0.00000   0.00000
                  --------  --------  --------  --------  --------  --------
 0 C  s               0.4       0.3       0.1       0.7       3.5       9.7
 0 C  pz              0.0       3.2       0.0       1.4       0.0       1.2
 0 C  px              0.6       0.6       0.5       5.9       8.3      10.5
 0 C  py              2.7       0.0       0.7       1.5       0.4       0.4
 0 C  dz2             0.0       0.3       0.0       0.5       0.1       0.5
 0 C  dxz             0.0       0.4       0.0       0.1       0.0       0.5
 0 C  dyz             0.0       0.0       0.0       0.0       0.1       0.1
 0 C  dx2y2           0.1       0.0       0.1       0.8       0.8       0.1
 0 C  dxy             0.1       0.0       0.3       0.0       0.6       0.0
 1 C  s               0.0       0.2       0.3       9.3       9.7       0.8
 1 C  pz              1.9       0.8       1.0       2.2       0.5       2.1
 1 C  px              0.4       0.7       0.3      19.1       0.0       6.1
 1 C  py              0.1       0.3       0.4       0.1      20.6      13.6
 1 C  dz2             0.1       0.1       0.0       0.8       0.0       0.4
 1 C  dxz             0.2       0.1       0.0       0.1       0.0       0.2
 1 C  dyz             0.0       0.0       0.1       0.0       0.2       0.3
 1 C  dx2y2           0.1       0.0       0.1       0.4       1.4       0.4
 1 C  dxy             0.1       0.2       0.0       0.4       0.0       0.3
 2 Cl s               0.1       0.0       0.0       0.2       2.7       1.7
 2 Cl pz             13.8       6.9      10.2       0.0       1.8       0.5
 2 Cl px             26.9       2.9      23.6       1.3       0.0       0.5
 2 Cl py              0.0       0.3       3.7       2.8      21.4       6.3
 2 Cl dz2             0.0       0.0       0.0       0.1       1.0       0.2
 2 Cl dyz             0.0       0.0       0.0       0.0       1.2       0.1
 2 Cl dx2y2           0.0       0.0       0.0       0.8       3.7       0.9
 2 Cl dxy             0.0       0.0       0.0       0.7       0.0       0.3
 3 Cl s               0.0       0.0       0.1       3.5       0.2       0.5
 3 Cl pz             19.2       1.8       0.8       0.5       0.0       1.5
 3 Cl px              0.1       2.4       1.2      21.6       0.3       2.9
 3 Cl py             15.6       1.5      16.6       4.2       1.6       0.7
 3 Cl dz2             0.0       0.0       0.0       1.1       0.0       0.2
 3 Cl dxz             0.0       0.0       0.0       0.2       0.0       1.4
 3 Cl dyz             0.0       0.0       0.0       0.1       0.1       0.1
 3 Cl dx2y2           0.0       0.0       0.0       1.7       0.2       0.8
 3 Cl dxy             0.0       0.0       0.0       2.4       1.0       0.4
 4 Cl s               0.0       0.0       0.0       1.9       1.0       1.1
 4 Cl pz              2.7      57.4       0.2       0.2       1.0       1.9
 4 Cl px              0.3       2.5       5.8      10.6       6.5       6.8
 4 Cl py             10.3      11.1      32.2       0.3       1.1       1.4
 4 Cl dz2             0.0       0.0       0.0       0.3       0.4       0.4
 4 Cl dxz             0.0       0.0       0.0       0.1       0.5       1.2
 4 Cl dyz             0.0       0.0       0.0       0.0       0.1       0.1
 4 Cl dx2y2           0.0       0.0       0.0       1.0       0.6       1.1
 4 Cl dxy             0.0       0.0       0.0       0.1       0.4       1.6
 5 H  s               0.4       3.8       0.1       0.7       3.2       1.1
 6 H  s               1.8       0.9       1.0       0.2       0.8      11.2
 7 H  s               1.9       1.3       0.5       0.1       3.0       6.0

                     36        37        38        39        40        41   
                   0.05739   0.06337   0.09263   0.12320   0.34418   0.35723
                   0.00000   0.00000   0.00000   0.00000   0.00000   0.00000
                  --------  --------  --------  --------  --------  --------
 0 C  s               0.0      12.7       0.0       6.3       1.6       1.1
 0 C  pz              0.4       7.1      11.1       8.5      16.0       0.5
 0 C  px              5.1       2.3       0.3      14.3       8.9      18.1
 0 C  py              7.5       3.3      10.3       8.0       6.1       4.7
 0 C  dz2             0.2       0.4       0.5       0.1       2.8       0.3
 0 C  dxz             0.0       0.1       0.2       2.5       0.0       0.6
 0 C  dyz             0.9       0.2       0.0       1.8       2.6       0.0
 0 C  dx2y2           0.2       0.2       0.2       0.3       0.7       2.1
 0 C  dxy             0.1       0.0       0.3       2.6       0.0       0.3
 1 C  s               4.1       3.2       0.2       7.5       1.6       0.4
 1 C  pz             11.1       1.1       4.1       7.5       0.3       0.2
 1 C  px              6.1       0.7       0.1      11.7       1.0       1.6
 1 C  py              0.6       0.4       1.7       6.7      14.8      19.0
 1 C  dz2             0.8       0.3       0.0       0.1       0.9       0.0
 1 C  dxz             0.1       0.0       0.5       2.9       0.0       0.2
 1 C  dyz             0.3       0.3       0.0       1.4       1.4       0.4
 1 C  dx2y2           0.0       0.0       0.0       0.2       0.2       1.8
 1 C  dxy             0.1       0.0       0.3       2.1       0.0       0.0
 2 Cl s               0.1       0.2       0.5       0.3       1.4       9.2
 2 Cl pz              0.3       0.5       0.0       0.3       0.1       0.0
 2 Cl px              0.1       0.0       0.1       0.5       0.2       0.7
 2 Cl py              0.0       0.2       1.1       0.0       0.1       0.1
 2 Cl dz2             0.0       0.0       0.0       0.3       1.5       0.9
 2 Cl dxz             0.1       0.0       0.0       1.0       0.2       0.1
 2 Cl dyz             1.5       0.0       0.0       0.8       0.0       0.3
 2 Cl dx2y2           0.0       0.0       0.4       0.3       1.9       4.9
 2 Cl dxy             0.2       0.0       0.2       0.7       0.4       0.7
 3 Cl s               0.9       0.3       0.0       0.2      10.9       2.4
 3 Cl pz              0.4       0.0       0.3       0.2       0.9       0.1
 3 Cl px              1.5       1.1       0.0       0.2       0.1       0.1
 3 Cl py              0.4       0.1       0.5       0.3       0.1       1.1
 3 Cl dz2             0.0       0.1       0.0       0.3       0.0       0.1
 3 Cl dxz             0.0       0.4       0.7       0.1       2.8       0.9
 3 Cl dyz             0.1       0.0       0.1       1.4       0.1       0.3
 3 Cl dx2y2           0.0       0.1       0.1       1.7       0.3       0.3
 3 Cl dxy             0.4       0.2       0.5       0.0       0.0       4.8
 4 Cl s               1.4       0.5       0.1       0.2       0.6       8.4
 4 Cl pz              0.2       0.2       0.2       0.3       0.4       0.1
 4 Cl px              3.7       0.5       0.1       0.1       0.1       0.0
 4 Cl py              0.4       0.1       0.2       0.6       0.2       0.6
 4 Cl dz2             0.1       0.0       0.0       0.5       0.2       0.9
 4 Cl dxz             0.5       0.0       0.9       0.1       2.0       0.1
 4 Cl dyz             0.0       0.1       0.0       1.5       1.6       0.0
 4 Cl dx2y2           0.4       0.0       0.0       1.3       0.4       1.6
 4 Cl dxy             0.2       0.0       1.1       0.1       0.1       4.5
 5 H  s               0.7      34.6      26.8       0.5      12.2       0.9
 6 H  s              10.4      18.5      26.6       0.7       1.0       4.6
 7 H  s              38.2       9.8       9.5       0.6       1.5       0.2

                     42        43        44        45        46        47   
                   0.36436   0.37363   0.40407   0.44467   0.47829   0.52904
                   0.00000   0.00000   0.00000   0.00000   0.00000   0.00000
                  --------  --------  --------  --------  --------  --------
 0 C  s               1.0       0.2       3.0       0.0       2.1       9.1
 0 C  pz              0.4       2.0       1.9      13.1       3.1       0.9
 0 C  px              6.2      11.8       2.0       1.8       7.1       2.2
 0 C  py             16.1       0.2       7.3       2.0       0.6       1.2
 0 C  dz2             1.9       0.5       0.0       2.2       0.9       0.0
 0 C  dxz             0.2       1.7       0.6       0.7       0.0       0.0
 0 C  dyz             1.4       0.0       0.0       0.2       0.0       0.1
 0 C  dx2y2           1.2       0.0       0.0       0.4       0.1       0.4
 0 C  dxy             0.3       1.2       0.1       1.0       0.5       0.1
 1 C  s               0.9       0.1       1.5       4.3       2.0       1.7
 1 C  pz             11.6       0.2       1.3      12.2       2.9       0.7
 1 C  px              0.0      38.4       2.9       0.7       4.8       4.2
 1 C  py              1.1       0.8       5.2       0.9      15.2       4.4
 1 C  dz2             3.8       0.7       1.5       0.9       0.4       0.1
 1 C  dxz             0.6       1.7       0.2       1.3       0.3       0.0
 1 C  dyz             1.4       0.2       0.4       0.1       0.1       0.0
 1 C  dx2y2           0.0       0.1       0.8       0.2       0.3       0.5
 1 C  dxy             0.6       1.6       0.2       1.4       0.2       0.0
 2 Cl s               2.3       0.1      20.8       2.4       3.9      30.4
 2 Cl pz              2.2       0.2       0.1       0.1       0.2       0.2
 2 Cl px              0.1       0.6       0.0       1.1       0.6       0.1
 2 Cl py              0.2       0.0       0.4       0.0       0.3       5.3
 2 Cl dz2             0.7       0.1       0.2       0.5       1.4       0.9
 2 Cl dxz             0.1       1.8       0.2       0.4       0.1       2.4
 2 Cl dyz             9.8       0.6       0.3       3.2       0.3       0.1
 2 Cl dx2y2           0.1       0.2       0.2       0.4       1.5       0.1
 2 Cl dxy             1.0       3.7       0.3       6.1       0.2       0.1
 3 Cl s               0.1       0.9      23.5       3.3       0.0       7.4
 3 Cl pz              0.6       0.6       0.2       0.3       0.0       0.0
 3 Cl px              0.0       0.5       0.4       0.2       0.2       1.0
 3 Cl py              0.1       0.2       0.0       0.7       0.1       0.7
 3 Cl dz2             0.1       2.3       0.8       0.8       0.6       0.4
 3 Cl dxz             2.3       0.4       1.4       5.0       0.0       2.6
 3 Cl dyz             1.3       0.0       0.0       2.0       1.0       4.3
 3 Cl dx2y2           0.4       4.7       0.1       4.5       0.4       0.6
 3 Cl dxy             0.0       0.0       5.9       1.2       1.4       0.3
 4 Cl s               2.6       6.2       4.1       2.3      28.4       9.0
 4 Cl pz              0.3       1.6       0.0       0.5       0.2       0.0
 4 Cl px              0.0       0.7       0.0       0.1       2.5       0.9
 4 Cl py              0.5       0.5       0.5       0.5       0.0       0.2
 4 Cl dz2             0.0       1.6       0.5       1.7       1.8       0.2
 4 Cl dxz             1.7       4.4       0.2       6.1       0.5       0.3
 4 Cl dyz             0.6       0.0       0.1       0.0       0.3       2.8
 4 Cl dx2y2           1.3       3.1       0.1       2.5       0.7       0.2
 4 Cl dxy             1.0       1.2       0.3       2.7       1.0       0.2
 5 H  s               1.4       1.0       0.2       3.2       7.6       0.7
 6 H  s               9.7       0.1       1.1       3.3       1.9       3.0
 7 H  s              10.8       1.0       9.2       1.3       2.2       0.0

                     48        49        50        51        52        53   
                   0.53616   0.57884   0.59542   0.59817   0.64065   0.65759
                   0.00000   0.00000   0.00000   0.00000   0.00000   0.00000
                  --------  --------  --------  --------  --------  --------
 0 C  s               3.3       4.1      17.7       4.7       4.8       0.2
 0 C  pz              0.7       1.9       2.0      36.2       1.5       0.3
 0 C  px              6.6       0.1       0.1       0.5       3.6       1.5
 0 C  py              0.6       0.1      27.2       3.8       2.9       0.6
 0 C  dz2             0.0       0.5       0.0       1.6       0.4       0.0
 0 C  dxz             0.1       0.0       0.1       0.0       0.4       0.6
 0 C  dyz             0.0       0.0       0.3       0.0       0.1       0.5
 0 C  dx2y2           1.8       0.0       1.3       0.2       0.1       0.0
 0 C  dxy             0.0       0.0       0.0       0.0       0.6       0.1
 1 C  s               3.6      13.8       0.5       0.4       1.0       1.5
 1 C  pz              0.1      32.3       1.7       4.6       0.1       0.5
 1 C  px              3.3       0.3       0.0       0.4       1.8       0.3
 1 C  py              0.4       0.3       1.0       0.2       1.4       0.9
 1 C  dz2             0.2       1.4       0.1       0.0       0.2       0.0
 1 C  dxz             0.0       0.0       0.0       0.0       0.6       1.4
 1 C  dyz             0.2       0.1       0.0       0.0       0.1       1.9
 1 C  dx2y2           1.0       0.0       0.2       0.1       0.3       0.1
 1 C  dxy             0.1       0.0       0.0       0.0       1.0       0.1
 2 Cl s               4.0       0.7       1.1       0.1       0.2       0.1
 2 Cl pz              0.0       0.0       0.1       0.6       0.2       1.2
 2 Cl px              0.9       0.0       0.0       0.0       0.5       0.4
 2 Cl py              1.4       0.0       0.5       0.0       0.2       1.0
 2 Cl dz2             0.8       0.6       0.0       1.2       0.0       2.0
 2 Cl dxz             4.2       0.5       0.0       0.5       0.7       0.4
 2 Cl dyz             0.1       0.7       0.3       3.4       0.5      21.1
 2 Cl dx2y2           0.0       0.7       0.0       0.0       1.7       7.5
 2 Cl dxy             0.6       0.0       4.1       4.9      26.4       0.1
 3 Cl s              25.2       0.0       0.0       0.1       1.2       1.0
 3 Cl pz              0.1       0.0       0.1       0.3       0.5       0.5
 3 Cl px              6.2       0.3       0.0       0.0       1.3       2.0
 3 Cl py              0.1       0.3       1.4       0.3       0.9       0.1
 3 Cl dz2             1.6       0.3       0.0       0.2       0.0      11.3
 3 Cl dxz             2.6       1.1       1.8       1.7       0.2      13.1
 3 Cl dyz             2.5       0.7       0.1       0.2       3.8      12.8
 3 Cl dx2y2           2.2       0.1       4.6       0.0       0.2       0.0
 3 Cl dxy             1.3       1.8       2.2       0.0       0.1       0.0
 4 Cl s               9.8       0.1       0.0       0.3       2.1       0.4
 4 Cl pz              0.0       0.4       0.0       0.1       0.6       0.1
 4 Cl px              2.6       0.0       0.5       0.2       0.5       0.1
 4 Cl py              0.1       0.0       0.0       0.1       0.1       0.1
 4 Cl dz2             0.0       1.1       1.0       0.1       0.4       3.0
 4 Cl dxz             0.7       1.1       0.0       2.7       0.3       6.5
 4 Cl dyz             2.2       0.3       1.1       0.5       0.5       3.3
 4 Cl dx2y2           1.6       0.1       0.4       0.9       3.1       0.1
 4 Cl dxy             4.0       0.3       0.2       0.0      26.2       0.0
 5 H  s               0.2       4.1       1.9      20.8       5.2       0.1
 6 H  s               2.9       0.1      24.5       6.9       0.4       0.2
 7 H  s               0.0      29.4       1.7       0.9       0.9       1.2

                     54        55        56        57        58        59   
                   0.68476   0.68932   0.70226   0.70745   0.71443   0.71842
                   0.00000   0.00000   0.00000   0.00000   0.00000   0.00000
                  --------  --------  --------  --------  --------  --------
 0 C  s               0.0       5.5       0.8       0.6       0.6       0.0
 0 C  pz              0.0       2.3       0.1       0.0       0.1       1.0
 0 C  px              0.1       0.9       0.3       1.2       2.0       2.0
 0 C  py              0.8       0.3       0.4       0.1       0.0       0.3
 0 C  dz2             0.0       0.0       0.0       0.0       0.3       0.1
 0 C  dxz             0.2       0.3       0.0       0.0       0.4       0.1
 0 C  dyz             0.1       0.3       0.2       0.0       0.0       0.4
 0 C  dx2y2           0.0       0.0       0.3       0.4       0.1       0.2
 0 C  dxy             0.4       0.1       0.3       0.1       0.0       0.1
 1 C  s               6.7       3.8       2.0       0.2       0.2       5.9
 1 C  pz              0.1       0.7       0.1       0.0       0.1       0.3
 1 C  px              1.7       0.6       1.6       0.6       0.3       1.1
 1 C  py              0.1       0.3       0.1       3.2       0.5       2.5
 1 C  dz2             0.0       0.2       0.0       0.0       0.0       0.1
 1 C  dxz             0.0       0.1       0.0       0.0       0.1       0.2
 1 C  dyz             0.4       0.0       0.0       0.1       0.0       0.0
 1 C  dx2y2           0.1       0.0       0.0       1.5       0.3       0.5
 1 C  dxy             0.5       0.6       0.1       0.1       0.0       0.0
 2 Cl s               0.1       0.1       0.1       0.5       0.8       0.0
 2 Cl pz              0.4       0.0       0.0       1.2       0.3       0.0
 2 Cl px              1.7       0.7       4.8       1.9       0.0       0.5
 2 Cl py              0.2       0.2       0.3       8.4      11.1       0.4
 2 Cl dz2            11.7       0.1      19.7      11.5       1.3       2.5
 2 Cl dxz             6.5      20.3       2.7       0.4       7.8       5.1
 2 Cl dyz             2.8       0.0       0.4       8.0       0.0       0.3
 2 Cl dx2y2           5.1       1.3      11.1       0.1      12.2       4.6
 2 Cl dxy             0.5       0.3       4.9       4.9       0.2       0.2
 3 Cl s               0.2       0.6       0.1       0.1       0.8       0.9
 3 Cl pz              0.7       1.0       0.0       0.6       0.0       0.0
 3 Cl px              2.9       2.4       0.1       3.8       3.3       0.0
 3 Cl py              1.5       0.0       2.6       0.6       0.1       2.0
 3 Cl dz2             9.1       2.2       5.7      24.2       0.0       2.5
 3 Cl dxz             0.5       6.5       2.8       4.1       6.6       1.8
 3 Cl dyz             5.0       1.6       0.8       2.1      19.8       7.7
 3 Cl dx2y2          19.4       2.1       4.8       1.3       1.9       3.5
 3 Cl dxy             4.4       0.1       3.7       1.4       0.5      21.8
 4 Cl s               0.0       2.9       2.7       0.1       0.6       0.0
 4 Cl pz              0.5       0.4       1.1       0.1       0.9       1.6
 4 Cl px              0.0       1.7      10.0       5.9       1.2       2.1
 4 Cl py              0.2       2.8       0.0       0.0       6.0       1.3
 4 Cl dz2             9.2       2.8       5.2       0.1       1.2      16.4
 4 Cl dxz             1.3       1.8       1.1       0.2       0.2       1.8
 4 Cl dyz             1.5       7.9       0.5       0.3      12.5       5.3
 4 Cl dx2y2           2.6      11.9       3.3       8.0       0.0       0.5
 4 Cl dxy             0.0       2.8       2.2       1.7       3.2       1.5
 5 H  s               0.0       5.0       1.6       0.2       0.3       0.0
 6 H  s               0.3       2.5       1.4       0.4       0.7       0.5
 7 H  s               0.1       2.1       0.1       0.0       1.3       0.3

                     60        61        62        63        64        65   
                   0.72643   0.73049   0.74202   0.75119   0.76356   0.77207
                   0.00000   0.00000   0.00000   0.00000   0.00000   0.00000
                  --------  --------  --------  --------  --------  --------
 0 C  s               1.5       1.9       7.2       2.2       0.7       0.0
 0 C  pz              2.3       0.1       0.5       0.3       0.2       2.8
 0 C  px              0.0       0.7       4.0       1.4       1.7       0.0
 0 C  py              0.0       0.1       1.9       3.7       0.0       0.0
 0 C  dz2             0.2       0.1       0.0       0.1       0.1       0.1
 0 C  dxz             0.1       0.1       0.2       0.0       0.1       0.0
 0 C  dyz             0.5       0.0       1.4       0.4       0.0       0.3
 0 C  dx2y2           0.1       0.0       0.2       0.1       0.0       0.1
 0 C  dxy             0.0       0.2       0.6       0.2       0.2       0.0
 1 C  s               1.3       0.6       1.1       0.4      13.8       0.3
 1 C  pz              0.1       0.2       0.0       0.0       1.2       0.4
 1 C  px              0.3       1.6       1.3       1.6       4.5       1.1
 1 C  py              0.7       1.0       2.2       0.2       2.1       1.1
 1 C  dz2             0.1       0.6       0.1       0.4       0.0       0.0
 1 C  dxz             0.0       0.1       0.3       0.3       0.5       0.2
 1 C  dyz             0.1       0.0       0.1       0.6       0.1       0.1
 1 C  dx2y2           0.3       0.0       0.6       0.0       0.1       0.0
 1 C  dxy             0.1       0.3       0.0       0.1       0.4       0.0
 2 Cl s               0.3       0.1       0.0       0.2       2.1       0.1
 2 Cl pz              0.9       0.1       0.8       0.0       0.2       0.4
 2 Cl px              0.2       0.1       0.0       2.3       7.8       6.4
 2 Cl py              0.3      12.2       3.3       2.9       0.8       0.0
 2 Cl dz2             0.0      21.1       0.0       1.1       8.9       0.6
 2 Cl dxz             5.2       6.4       1.1       7.7       3.9       6.3
 2 Cl dyz             3.2       0.9       1.2       0.0       1.9       0.0
 2 Cl dx2y2           1.1       1.0       4.6       1.8       0.6       0.0
 2 Cl dxy             0.7       0.1       2.7       0.7       5.4       0.0
 3 Cl s               0.2       0.3       0.1       0.0       2.8       0.2
 3 Cl pz              0.2       0.1       0.7       4.1       0.2      16.2
 3 Cl px              3.7      14.6       1.1       1.2       0.8       0.5
 3 Cl py              0.6       1.1       0.3       9.6       6.2       9.0
 3 Cl dz2             1.2      16.9       0.0       0.2       4.5       4.4
 3 Cl dxz             0.8       1.3       1.0       4.4       3.1       2.3
 3 Cl dyz             2.7       1.0       0.3       5.4       3.7       0.1
 3 Cl dx2y2           8.1       1.9       4.5       5.0       3.0       1.2
 3 Cl dxy             0.0       0.4       3.8      10.1       0.1       1.6
 4 Cl s               0.2       0.2       0.5       0.1       0.0       0.0
 4 Cl pz              0.7       0.5       0.3       0.2       0.5      20.6
 4 Cl px              0.1       3.3       5.3       7.9       2.2       0.2
 4 Cl py              0.1       1.1       1.1       0.0       3.9       7.6
 4 Cl dz2            25.5       1.2      10.8       0.4       0.6       1.4
 4 Cl dxz            15.6       0.8       6.5       1.4       0.4       9.4
 4 Cl dyz             4.9       4.1       8.7      17.6       4.8       2.1
 4 Cl dx2y2          10.1       0.3      16.5       2.0       2.0       1.2
 4 Cl dxy             3.5       0.0       0.2       0.3       0.2       0.7
 5 H  s               0.9       0.4       0.5       0.5       1.3       0.3
 6 H  s               0.6       0.6       1.3       0.6       0.5       0.1
 7 H  s               0.8       0.4       0.7       0.1       1.7       0.5

                     66        67        68        69        70        71   
                   0.78657   0.79052   0.85939   0.87381   0.95427   0.99800
                   0.00000   0.00000   0.00000   0.00000   0.00000   0.00000
                  --------  --------  --------  --------  --------  --------
 0 C  s               3.8       0.5       2.5       0.2      14.0       1.4
 0 C  pz              1.4       1.0       2.4       0.1       1.5       0.1
 0 C  px              0.5       2.5       0.2       0.0       2.3       1.2
 0 C  py              3.7       2.3       0.7       0.2       0.4       1.5
 0 C  dz2             0.1       0.0       0.1       0.3       0.4       0.0
 0 C  dxz             0.2       0.0       0.0       1.0       0.0       0.0
 0 C  dyz             0.1       0.1       2.0       0.1       0.5       0.0
 0 C  dx2y2           0.0       0.1       0.2       0.1       0.2       0.4
 0 C  dxy             0.2       0.0       0.2       0.9       1.2       0.0
 1 C  s               0.3       4.6       1.0       0.1      13.1       0.9
 1 C  pz              5.2       0.7       0.0       0.1       4.4       0.5
 1 C  px              0.1       1.7       0.5       0.2       0.1       0.2
 1 C  py              1.1       5.6       1.3       0.3       1.0       2.0
 1 C  dz2             0.0       0.0       0.3       0.7       0.4       0.1
 1 C  dxz             0.0       0.0       0.0       1.0       0.0       0.1
 1 C  dyz             0.0       0.2       1.4       0.0       0.0       0.2
 1 C  dx2y2           0.1       0.1       0.3       0.1       0.3       0.2
 1 C  dxy             0.1       0.0       0.1       0.4       0.2       0.0
 2 Cl s               0.4       1.6       0.1       0.1       0.1       0.2
 2 Cl pz             25.6       7.1      21.3       9.5       5.5       2.2
 2 Cl px              4.4       9.0       4.4       6.1       0.4      37.2
 2 Cl py              0.8       0.3       1.6       0.1       0.4       0.0
 2 Cl dz2             0.1       0.0       0.4       0.2       0.1       0.3
 2 Cl dxz             1.6       0.1       3.7       0.5       4.1       0.2
 2 Cl dyz            10.7       0.4       0.0       0.0       5.0       1.3
 2 Cl dx2y2           0.8       7.4       0.7       2.1       1.8       0.2
 2 Cl dxy             4.3       1.3       0.0       0.0       0.0       6.7
 3 Cl s               0.0       0.3       0.0       0.0       0.2       0.2
 3 Cl pz             14.6       2.9       8.0      20.7       2.4       0.5
 3 Cl px              0.1       0.0       1.1       0.0       6.7       3.8
 3 Cl py              0.0       1.3      11.9       6.8       7.0      23.6
 3 Cl dz2             0.6       0.0       0.0       0.2       0.0       0.1
 3 Cl dxz             4.2       0.2       0.3       1.2       0.1       0.0
 3 Cl dyz             0.7       1.5       4.1       0.1       8.2       0.4
 3 Cl dx2y2           0.2       0.1       0.2       0.0       0.0       6.1
 3 Cl dxy             0.5       5.8       1.7       1.3       2.2       1.9
 4 Cl s               0.5       1.1       0.3       0.0       0.2       0.1
 4 Cl pz              1.6       6.3       5.2      24.6       2.4       0.1
 4 Cl px              0.2       2.2       0.2       0.1       2.2       1.2
 4 Cl py              0.3      10.4      14.9      18.7       0.0       4.3
 4 Cl dz2             0.2       1.1       0.4       0.1       0.1       0.2
 4 Cl dxz             1.8       6.0       0.2       0.6       0.6       0.0
 4 Cl dyz             0.8       0.9       5.6       0.0       5.5       0.3
 4 Cl dx2y2           2.5       1.0       0.2       0.5       0.0       0.0
 4 Cl dxy             3.5      11.1       0.0       0.0       0.5       0.1
 5 H  s               0.9       0.2       0.2       0.1       1.1       0.1
 6 H  s               0.9       0.4       0.0       0.2       2.4       0.0
 7 H  s               0.7       0.6       0.1       0.1       0.9       0.1

                     72        73        74        75        76        77   
                   1.01940   1.07613   1.12179   1.20759   1.28297   1.28661
                   0.00000   0.00000   0.00000   0.00000   0.00000   0.00000
                  --------  --------  --------  --------  --------  --------
 0 C  s               1.8       3.6       0.8       1.9       5.0       2.4
 0 C  pz              0.2       3.9       4.0       0.1       0.1       0.3
 0 C  px              2.2       0.2       0.3       2.1       1.7       0.5
 0 C  py              0.1       6.4       4.8       0.8       1.5       0.7
 0 C  dz2             0.0       2.5       0.2       0.2       0.1       0.8
 0 C  dxz             0.3       0.4       1.0       0.4       0.0       0.2
 0 C  dyz             0.3       0.0       0.4       0.0       0.1       0.0
 0 C  dx2y2           0.2       0.2       1.4       0.0       3.3       1.2
 0 C  dxy             0.2       0.0       1.6       0.1       1.7       0.0
 1 C  s               1.4       3.1       0.0       0.1       3.3      11.2
 1 C  pz              0.4       1.4      15.7       0.0       0.3       1.4
 1 C  px             10.7       1.0       0.8       2.8       2.0       0.4
 1 C  py              1.1       4.1       0.5       2.1       0.7       0.2
 1 C  dz2             0.3       0.2       4.2       0.0       0.0       1.0
 1 C  dxz             1.7       0.1       0.1       0.2       0.0       0.8
 1 C  dyz             0.0       0.6       0.2       0.7       0.0       0.2
 1 C  dx2y2           0.4       0.1       0.0       2.9       5.3       0.2
 1 C  dxy             0.2       0.1       0.0       1.1       0.0       0.8
 2 Cl s               0.2       0.3       0.9       4.6       6.5       2.9
 2 Cl pz              0.4      16.5       0.7       0.5       0.2       1.7
 2 Cl px              0.5       5.6       0.1       0.2       0.0       1.1
 2 Cl py              0.4       1.7       2.0      18.8      18.6       5.2
 2 Cl dz2             0.0       1.1       1.5       1.9       0.9       0.1
[...]
 3 Cl dxy             0.0       2.4       1.3       1.4       0.3       2.9
 4 Cl s               0.2       0.3       0.0       2.6       8.0       4.0
 4 Cl pz             21.6       3.4       1.3       0.5       0.3       1.0
 4 Cl px              2.2       3.3       1.3       9.7      20.9       8.6
 4 Cl py              9.6       0.8      11.8       0.2       1.6       0.5
 4 Cl dz2             0.9       1.3       1.4       0.8       1.3       0.9
 4 Cl dxz             8.0       3.7       1.4       0.8       0.3       0.7
 4 Cl dyz             0.0       0.3       0.0       0.1       0.1       0.0
 4 Cl dx2y2           1.5       0.1       1.9       1.4       5.8       1.0
 4 Cl dxy             4.9       2.1      10.0       1.0       0.3       1.1
 5 H  s               0.3       2.1       0.2       0.6       1.3       0.1
 6 H  s               0.1       0.4       1.4       0.6       1.0       0.5
 7 H  s               0.2       0.9       1.2       0.0       1.0       3.2

                     78        79        80        81        82        83   
                   1.46770   1.56180   1.76529   1.83636   1.84601   2.04340
                   0.00000   0.00000   0.00000   0.00000   0.00000   0.00000
                  --------  --------  --------  --------  --------  --------
 0 C  s               0.3       0.0       2.3       0.0       0.1       0.1
 0 C  pz              0.6       0.4       1.0       2.1       0.9       1.1
 0 C  px              0.4       0.0       1.4       0.0       1.3       0.0
 0 C  py              0.3       0.7       0.7       1.5       0.9       0.7
 0 C  dz2             0.9       6.0       0.9       1.4       0.2      23.0
 0 C  dxz            13.0       8.2      14.8      18.6       7.1       2.3
 0 C  dyz            16.3       4.1      10.8       0.1      32.5       0.2
 0 C  dx2y2          10.0       0.3       1.8       3.3       0.1       1.5
 0 C  dxy             1.1      16.4      13.2      22.5       4.5       3.8
 1 C  s               0.1       0.3       2.3       0.3       0.1       0.2
 1 C  pz              0.1       2.8       1.3       3.7       0.4       1.8
 1 C  px              0.6       1.6       1.6       0.0       1.3       0.1
 1 C  py              0.5       0.4       0.9       1.3       1.6       0.2
 1 C  dz2             0.0       2.4       0.8       0.8       0.5      36.2
 1 C  dxz             6.0      14.9      16.1      18.7       3.1       2.9
 1 C  dyz            25.3       2.1       8.2       0.8      26.3       0.0
 1 C  dx2y2           9.7       2.1       2.2       1.0       0.0       7.5
 1 C  dxy             0.0      20.7      13.0      14.9       7.5       1.9
 2 Cl s               0.5       0.5       0.3       0.9       0.4       1.0
 2 Cl pz              0.9       0.2       0.1       0.0       0.0       0.1
 2 Cl px              0.0       0.6       0.0       0.0       0.0       0.0
 2 Cl py              0.3       0.3       0.2       0.5       0.3       0.8
 2 Cl dz2             0.1       0.3       0.1       0.3       0.3       0.4
 2 Cl dxz             0.0       0.2       0.0       0.1       0.0       0.0
 2 Cl dyz             2.7       0.5       0.1       0.0       0.0       0.4
 2 Cl dx2y2           0.1       0.4       0.7       0.8       0.5       1.4
 2 Cl dxy             0.0       2.8       0.0       0.5       0.0       0.1
 3 Cl s               0.3       0.4       0.2       0.1       1.1       0.1
 3 Cl pz              0.6       0.3       0.1       0.0       0.0       0.0
 3 Cl px              0.0       0.0       0.1       0.1       0.8       0.1
 3 Cl py              0.4       0.8       0.0       0.0       0.0       0.0
 3 Cl dz2             0.0       0.3       0.1       0.0       0.6       0.0
 3 Cl dxz             1.4       1.1       0.1       0.1       0.0       0.1
 3 Cl dyz             0.2       0.0       0.0       0.0       0.0       0.0
 3 Cl dx2y2           0.1       0.5       0.3       0.2       1.5       0.3
 3 Cl dxy             0.6       2.3       0.2       0.0       0.3       0.0
 4 Cl s               0.7       0.1       0.2       0.0       1.0       0.1
 4 Cl pz              1.3       0.2       0.0       0.0       0.0       0.0
 4 Cl px              0.3       0.0       0.1       0.0       0.8       0.1
 4 Cl py              0.1       0.6       0.0       0.0       0.0       0.0
 4 Cl dz2             0.2       0.3       0.1       0.0       0.7       0.0
 4 Cl dxz             3.1       0.3       0.1       0.1       0.0       0.2
 4 Cl dyz             0.4       0.0       0.0       0.0       0.0       0.0
 4 Cl dx2y2           0.1       0.1       0.4       0.0       1.7       0.1
 4 Cl dxy             0.2       1.4       0.1       0.3       0.1       0.0
 5 H  s               0.1       0.7       1.1       1.4       0.6       3.9
 6 H  s               0.2       0.5       0.7       2.0       0.5       1.8
 7 H  s               0.0       0.7       1.1       1.5       0.2       5.3

                     84        85        86        87   
                   2.13256   2.14535   2.16346   2.42071
                   0.00000   0.00000   0.00000   0.00000
                  --------  --------  --------  --------
 0 C  s               0.4       0.1       0.1       1.8
 0 C  pz              0.3       0.3       0.1       1.2
 0 C  px              1.0       0.1       0.1       3.0
 0 C  py              1.6       0.3       0.0       1.2
 0 C  dz2             0.8      45.8       0.3       0.3
 0 C  dxz             2.3       2.7       0.1      16.5
 0 C  dyz             9.7       0.3       2.4       7.6
 0 C  dx2y2          22.0       0.4      39.0       0.6
 0 C  dxy             2.8       0.6       1.2      16.5
 1 C  s               0.1       0.1       0.0       1.7
 1 C  pz              0.2       0.1       0.0       1.2
 1 C  px              1.3       0.2       0.1       2.9
 1 C  py              1.7       0.2       0.0       1.2
 1 C  dz2             3.1      30.7       2.3       0.1
 1 C  dxz             2.6       2.4       0.3      16.1
 1 C  dyz            11.5       1.6       2.2       7.4
 1 C  dx2y2          15.0       0.4      36.9       1.7
 1 C  dxy             2.9       3.5       5.0      15.2
 2 Cl s               1.2       0.2       0.4       0.2
 2 Cl py              0.8       0.2       0.4       0.2
 2 Cl dz2             0.4       0.2       0.0       0.1
 2 Cl dyz             0.0       0.4       0.5       0.0
 2 Cl dx2y2           1.2       0.3       0.6       0.2
 2 Cl dxy             0.0       0.4       0.2       0.0
 3 Cl s               2.4       0.1       0.6       0.4
 3 Cl px              1.3       0.0       0.4       0.3
 3 Cl py              0.2       0.0       0.3       0.0
 3 Cl dz2             0.8       0.1       0.2       0.1
 3 Cl dxz             0.0       0.0       0.6       0.0
 3 Cl dyz             0.0       0.0       0.2       0.0
 3 Cl dx2y2           1.1       0.0       0.1       0.3
 3 Cl dxy             0.9       0.1       1.3       0.1
 4 Cl s               2.3       0.1       0.3       0.5
 4 Cl pz              0.1       0.0       0.2       0.0
 4 Cl px              1.4       0.1       0.3       0.3
 4 Cl py              0.1       0.1       0.1       0.0
 4 Cl dz2             0.6       0.1       0.0       0.1
 4 Cl dxz             0.3       0.2       0.8       0.0
 4 Cl dyz             0.1       0.0       0.2       0.0
 4 Cl dx2y2           1.9       0.0       0.1       0.3
 4 Cl dxy             0.4       0.2       0.8       0.0
 5 H  s               0.2       3.5       0.0       0.3
 6 H  s               2.6       1.6       1.3       0.3
 7 H  s               0.5       2.0       0.2       0.2


                      *****************************
                      * MAYER POPULATION ANALYSIS *
                      *****************************

  NA   - Mulliken gross atomic population
  ZA   - Total nuclear charge
  QA   - Mulliken gross atomic charge
  VA   - Mayer's total valence
  BVA  - Mayer's bonded valence
  FA   - Mayer's free valence

  ATOM       NA         ZA         QA         VA         BVA        FA
  0 C      6.1110     6.0000    -0.1110     3.8679     3.8679     0.0000
  1 C      6.1213     6.0000    -0.1213     4.0230     4.0230     0.0000
  2 Cl    17.0663    17.0000    -0.0663     1.1608     1.1608     0.0000
  3 Cl    17.0725    17.0000    -0.0725     1.1671     1.1671    -0.0000
  4 Cl    17.1182    17.0000    -0.1182     1.1347     1.1347     0.0000
  5 H      0.8435     1.0000     0.1565     0.9625     0.9625     0.0000
  6 H      0.8437     1.0000     0.1563     0.9537     0.9537     0.0000
  7 H      0.8234     1.0000     0.1766     0.9422     0.9422     0.0000

  Mayer bond orders larger than 0.100000
B(  0-C ,  1-C ) :   1.0108 B(  0-C ,  4-Cl) :   1.0523 B(  0-C ,  5-H ) :   0.9101 
B(  0-C ,  6-H ) :   0.9111 B(  1-C ,  2-Cl) :   1.0625 B(  1-C ,  3-Cl) :   1.0400 
B(  1-C ,  7-H ) :   0.8992 

-------
TIMINGS
-------

Total SCF time: 0 days 0 hours 0 min 3 sec 

Total time                  ....       3.829 sec
Sum of individual times     ....       3.804 sec  ( 99.4%)

SCF preparation             ....       0.691 sec  ( 18.1%)
Fock matrix formation       ....       0.928 sec  ( 24.2%)
  Startup                   ....       0.006 sec  (  0.6% of F)
  Split-RI-J                ....       0.313 sec  ( 33.7% of F)
  XC integration            ....       0.548 sec  ( 59.1% of F)
    Basis function eval.    ....       0.212 sec  ( 38.7% of XC)
    Density eval.           ....       0.091 sec  ( 16.6% of XC)
    XC-Functional eval.     ....       0.060 sec  ( 10.9% of XC)
    XC-Potential eval.      ....       0.095 sec  ( 17.3% of XC)
Diagonalization             ....       0.000 sec  (  0.0%)
Density matrix formation    ....       0.023 sec  (  0.6%)
Total Energy calculation    ....       0.001 sec  (  0.0%)
Population analysis         ....       2.101 sec  ( 54.9%)
Orbital Transformation      ....       0.009 sec  (  0.2%)
Orbital Orthonormalization  ....       0.000 sec  (  0.0%)
DIIS solution               ....       0.039 sec  (  1.0%)
  MO trafo                  ....       0.000 sec  (  0.0 % of DIIS)
  Orb grad                  ....       0.000 sec  (  0.0 % of DIIS)
  Energy W gradient         ....       0.000 sec  (  0.0 % of DIIS)
  DIIS error                ....       0.001 sec  (  1.5 % of DIIS)
  DIIS work                 ....       0.033 sec  ( 84.4 % of DIIS)
  Form Q                    ....       0.000 sec  (  0.0 % of DIIS)
  Form QpQm                 ....       0.000 sec  (  0.0 % of DIIS)
  Exp/Cayley                ....       0.000 sec  (  0.0 % of DIIS)
  Orb update                ....       0.000 sec  (  0.0 % of DIIS)
  Wake-sleep                ....       0.001 sec  (  1.6 % of DIIS)
SOSCF solution              ....       0.011 sec  (  0.3%)
  MO trafo                  ....       0.007 sec  ( 59.6 % of SOSCF)
  Orb grad                  ....       0.000 sec  (  1.2 % of SOSCF)
  Rot update                ....       0.001 sec  ( 12.2 % of SOSCF)
  Step                      ....       0.003 sec  ( 26.4 % of SOSCF)
Finished LeanSCF after   6.3 sec

Maximum memory used throughout the entire LEANSCF-calculation: 8.1 MB


-------------------------------------------------------------------------------
                          DFT DISPERSION CORRECTION                            
                                                                               
                                DFTD4 V3.4.0                                   
-------------------------------------------------------------------------------
The PBE functional is recognized
Active option DFTDOPT                   ...         5   

-------------------------   ----------------
Dispersion correction           -0.008666871
-------------------------   ----------------

------------------   -----------------
gCP correction             0.030848637
------------------   -----------------

-------------------------   --------------------
FINAL SINGLE POINT ENERGY     -1457.421253550807
-------------------------   --------------------


------------------------------------------------------------------------------
                              ORCA PROPERTY CALCULATIONS
------------------------------------------------------------------------------

GBWName                                 ... sp.gbw
Number of atoms                         ...      8
Number of basis functions               ...     88
Max core memory                         ...   1024 MB

Electric properties:
Dipole moment                           ... YES
Quadrupole moment                       ...  NO
Static polarizability (Dipole/Dipole)   ...  NO
Static polarizability (Dipole/Quad.)    ...  NO
Static polarizability (Quad./Quad.)     ...  NO
Static polarizability (Velocity)        ...  NO

Atomic electric properties:
Dipole moment                           ...  NO
Quadrupole moment                       ...  NO
Static polarizability                   ...  NO

Choice of electric origin               ... Center of mass
Position of electric origin             ...    -0.000001     0.000004     0.000000

General magnetic properties:
Magnetizability                         ...  NO

EPR properties:
g-Tensor (aka g-matrix)                 ...  NO
Zero-Field splitting spin-orbit         ...  NO
Zero-field splitting spin-spin          ...  NO
Hyperfine couplings                     ...  NO (   0 nuclei)
Quadrupole couplings                    ...  NO (   0 nuclei)
Contact density                         ...  NO (   0 nuclei)

NMR properties:
Chemical shifts                         ...  NO (   0 nuclei)
Spin-rotation constants                 ...  NO (   0 nuclei)
Spin-spin couplings                     ...  NO (   0 nuclei,    0 pairs)

Choice of magnetic origin               ... GIAO
Position of magnetic origin             ...     0.000000     0.000000     0.000000

Properties with geometric perturbations:
SCF Hessian                             ...  NO
IR spectrum                             ...  NO
VCD spectrum                            ...  NO
X-ray spectroscopy properties:
SCF XES/XAS/RIXS spectra                ...  NO


-------------
DIPOLE MOMENT
-------------

Method             : SCF
Type of density    : Electron Density
Multiplicity       :   1
Irrep              :   0
Energy             : -1457.4434353167225709 Eh
Relativity type    : 
Basis              : AO
                                X                 Y                 Z
Electronic contribution:      1.013064017      -2.768344811      -0.316240325
Nuclear contribution   :     -0.978605525       3.249833438       0.266710647
                        -----------------------------------------
Total Dipole Moment    :      0.034458492       0.481488627      -0.049529678
                        -----------------------------------------
Magnitude (a.u.)       :      0.485254444
Magnitude (Debye)      :      1.233418774



--------------------
Rotational spectrum 
--------------------
 
Rotational constants in cm-1:             0.119495             0.048688             0.035840 
Rotational constants in MHz :          3582.376894          1459.619130          1074.450190 

Dipole components along the rotational axes: 
x,y,z [a.u.] :    -0.034458     0.481489    -0.049530 
x,y,z [Debye]:    -0.087586     1.223847    -0.125896 

 

Dipole moment calculation done in   0.6 sec 

Maximum memory used throughout the entire PROP-calculation: 5.6 MB

--------------------------------
SUGGESTED CITATIONS FOR THIS RUN
--------------------------------

Below you find a list of papers that are relevant to this ORCA run
We neither can nor want to force you to cite these papers, but we appreciate if you do
You receive ORCA, which is the product of decades of hard work by many enthusiastic individuals, for free
The only thing we kindly ask in return is that you cite our papers,
We deeply appreciate it, if you show your appreciation for ORCA by not just citing the generic ORCA reference.

Please note that relegating all ORCA citations to the supporting information does *not* help us.
SI sections are not indexed - citations you put there will not count into any citation statistics
But we need these citations in order to attract the funding resources that allow us to do what we are doing

Therefore, if you are a happy ORCA user, please consider citing a few of the papers listed below in the main body of your paper

In addition to the list printed below, the program has created the file sp.bibtex that contains the list in bibtex format
You can import this file easily into all common literature databanks and citation aid programs


List of essential papers. We consider these as the minimum necessary citations

  1. Neese,F.
     Software update: the ORCA program system, version 5.0
     WIRES Comput. Molec. Sci., 2022 12(1)e1606
     doi.org/10.1002/wcms.1606

List of papers to cite with high priority. The work reported in these papers was absolutely
necessary for this run to complete.
Our perspective: the developers of density functionals and basis sets usually get cited in chemistry papers
Good! But without the algorithms to do something with them, the functionals or basis sets would not do anything.
Hence, in our opinion, the algorithm design and method developments papers are equally worthy of getting cited

  1. Neese,F.
     An improvement of the resolution of the identity approximation for the formation of the Coulomb matrix
     J. Comp. Chem., 2003 24(14)1740-1747
     doi.org/10.1002/jcc.10318
  2. Neese,F.
     The SHARK Integral Generation and Digestion System
     J. Comp. Chem., 2022  1-16
     doi.org/10.1002/jcc.26942
  3. Caldeweyher,E.; Bannwarth,C.; Grimme,S.
     Extension of the D3 dispersion coefficient model
     J. Chem. Phys., 2017 147 034112
     doi.org/10.1063/1.4993215
  4. Caldeweyher,E.; Ehlert,S.; Hansen,A.; Neugebauer,H.; Spicher,S.; Bannwarth,C.; Grimme,S.
     A generally applicable atomic-charge dependent London dispersion correction
     J. Chem. Phys., 2019 150 154122
     doi.org/10.1063/1.5090222
  5. Caldeweyher,E.; Mewes,J.; Ehlert,S.; Grimme,S.
     Extension and evaluation of the D4 London-dispersion model for periodic systems
     Phys. Chem. Chem. Phys., 2020 22(16)8499-8512
     doi.org/10.1039/D0CP00502A
  6. Wittmann,L.; Gordiy,I.; Friede,M.; Helmich-Paris,B.; Grimme,S.; Hansen,A.; Bursch,M.
     Extension of the D3 and D4 London Dispersion Corrections to the full Actinides Series
     Phys. Chem. Chem. Phys., 2024 26(32)21379-21394
     doi.org/https://doi.org/10.1039/D4CP01514B 

List of suggested additional citations. These are papers that are important in the 'surrounding' of 
of this run, or papers that preceded the highly important papers. If you like your results we are grateful for a citation.

  1. Neese,F.
     The ORCA program system
     WIRES Comput. Molec. Sci., 2012 2(1)73-78
     doi.org/10.1002/wcms.81
  2. Neese,F.
     Software update: the ORCA program system, version 4.0
     WIRES Comput. Molec. Sci., 2018 8(1)1-6
     doi.org/10.1002/wcms.1327
  3. Neese,F.; Wennmohs,F.; Becker,U.; Riplinger,C.
     The ORCA quantum chemistry program package
     J. Chem. Phys., 2020 152 Art. No. L224108
     doi.org/10.1063/5.0004608

List of optional additional citations

  1. Neese,F.
     Approximate second-order SCF convergence for spin unrestricted wavefunctions
     Chem. Phys. Lett., 2000 325(1-3)93-98
     doi.org/10.1016/s0009-2614(00)00662-x

Timings for individual modules:

Sum of individual times          ...        7.933 sec (=   0.132 min)
Startup calculation              ...        0.382 sec (=   0.006 min)   4.8 %
SCF iterations                   ...        6.730 sec (=   0.112 min)  84.8 %
Property calculations            ...        0.821 sec (=   0.014 min)  10.4 %
                             ****ORCA TERMINATED NORMALLY****
TOTAL RUN TIME: 0 days 0 hours 0 minutes 10 seconds 320 msec
