
                                 *****************
                                 * O   R   C   A *
                                 *****************

                                            #,                                       
                                            ###                                      
                                            ####                                     
                                            #####                                    
                                            ######                                   
                                           ########,                                 
                                     ,,################,,,,,                         
                               ,,#################################,,                 
                          ,,##########################################,,             
                       ,#########################################, ''#####,          
                    ,#############################################,,   '####,        
                  ,##################################################,,,,####,       
                ,###########''''           ''''###############################       
              ,#####''   ,,,,##########,,,,          '''####'''          '####       
            ,##' ,,,,###########################,,,                        '##       
           ' ,,###''''                  '''############,,,                           
         ,,##''                                '''############,,,,        ,,,,,,###''
      ,#''                                            '''#######################'''  
     '                                                          ''''####''''         
             ,#######,   #######,   ,#######,      ##                                
            ,#'     '#,  ##    ##  ,#'     '#,    #''#        ,####,   ,####,        
            ##       ##  ##   ,#'  ##            #'  '#       #'       #'  '#        
            ##       ##  #######   ##           ,######,      #####,   #    #        
            '#,     ,#'  ##    ##  '#,     ,#' ,#      #,     #,   #   #,  ,#        
             '#######'   ##     ##  '#######'  #'      '#     '####' # '####'        



                #########################################################
                #                        -***-                          #
                #          Department of theory and spectroscopy        #
                #                                                       #
                #                      Frank Neese                      #
                #                                                       #
                #     Directorship, Architecture, Infrastructure        #
                #                    SHARK, DRIVERS                     #
                #        Core code/Algorithms in most modules           #
                #                                                       #
                #        Max Planck Institute fuer Kohlenforschung      #
                #                Kaiser Wilhelm Platz 1                 #
                #                 D-45470 Muelheim/Ruhr                 #
                #                      Germany                          #
                #                                                       #
                #                  All rights reserved                  #
                #                        -***-                          #
                #########################################################


                         Program Version 6.0.0  -   RELEASE  -


 With contributions from (in alphabetic order):
   Daniel Aravena         : Magnetic Suceptibility
   Michael Atanasov       : Ab Initio Ligand Field Theory (pilot matlab implementation)
   Alexander A. Auer      : GIAO ZORA, VPT2 properties, NMR spectrum
   Ute Becker             : All parallelization in ORCA, NUMFREQ, NUMCALC
   Giovanni Bistoni       : ED, misc. LED, open-shell LED, HFLD
   Martin Brehm           : Molecular dynamics
   Dmytro Bykov           : pre 5.0 version of the SCF Hessian
   Marcos Casanova-Páez   : Triplet and SCS-CIS(D). UHF-(DLPNO)-IP/EA/STEOM-CCSD. UHF-CVS-IP/STEOM-CCSD
   Vijay G. Chilkuri      : MRCI spin determinant printing, contributions to CSF-ICE
   Pauline Colinet        : FMM embedding
   Dipayan Datta          : RHF DLPNO-CCSD density
   Achintya Kumar Dutta   : EOM-CC, STEOM-CC
   Nicolas Foglia         : Exact transition moments, OPA infrastructure, MCD improvements
   Dmitry Ganyushin       : Spin-Orbit,Spin-Spin,Magnetic field MRCI
   Miquel Garcia          : C-PCM and meta-GGA Hessian, CCSD/C-PCM, Gaussian charge scheme
   Tiago L. C. Gouveia    : GS-ROHF, GS-ROCIS
   Yang Guo               : DLPNO-NEVPT2, F12-NEVPT2, CIM, IAO-localization
   Andreas Hansen         : Spin unrestricted coupled pair/coupled cluster methods
   Ingolf Harden          : AUTO-CI MPn and infrastructure 
   Benjamin Helmich-Paris : MC-RPA, TRAH-(SCF,CASSCF), AVAS, COSX integrals, SCF dyn. polar.
   Lee Huntington         : MR-EOM, pCC
   Robert Izsak           : Overlap fitted RIJCOSX, COSX-SCS-MP3, EOM
   Riya Kayal             : Wick's Theorem for AUTO-CI, AUTO-CI UHF-CCSDT
   Emily Kempfer          : AUTO-CI, RHF CISDT and CCSDT
   Christian Kollmar      : KDIIS, OOCD, Brueckner-CCSD(T), CCSD density, CASPT2, CASPT2-K, improved NEVPT2
   Axel Koslowski         : Symmetry handling
   Simone Kossmann        : Meta GGA functionals, TD-DFT gradient, OOMP2, (MP2 Hessian; deprecated post 5.0)
   Lucas Lang             : DCDCAS
   Marvin Lechner         : AUTO-CI (C++ implementation), FIC-MRCC
   Spencer Leger          : CASSCF response
   Dagmar Lenk            : GEPOL surface, SMD, ORCA-2-JSON
   Dimitrios Liakos       : Extrapolation schemes; Compound Job, initial MDCI parallelization
   Dimitrios Manganas     : Further ROCIS development; embedding schemes. LFT, Crystal Embedding
   Dimitrios Pantazis     : SARC Basis sets
   Anastasios Papadopoulos: AUTO-CI, single reference methods and gradients
   Taras Petrenko         : pre 6.0 DFT Hessian and TD-DFT gradient, (ASA, deprecated), ECA, 1-Electron XAS/XES, NRVS
   Peter Pinski           : DLPNO-MP2, DLPNO-MP2 Gradient
   Christoph Reimann      : Effective Core Potentials
   Marius Retegan         : Local ZFS, SOC
   Christoph Riplinger    : Optimizer, TS searches, QM/MM, DLPNO-CCSD(T), (RO)-DLPNO pert. Triples
   Michael Roemelt        : Original ROCIS implementation
   Masaaki Saitow         : Open-shell DLPNO-CCSD energy and density
   Barbara Sandhoefer     : DKH picture change effects
   Kantharuban Sivalingam : CASSCF convergence/infrastructure, NEVPT2 and variants, FIC-MRCI
   Bernardo de Souza      : ESD, SOC TD-DFT
   Georgi Stoychev        : AutoAux, RI-MP2 NMR, DLPNO-MP2 response, X2C
   Van Anh Tran           : RI-MP2 g-tensors
   Willem Van den Heuvel  : Paramagnetic NMR
   Zikuan Wang            : NOTCH, Electric field optimization 
   Frank Wennmohs         : Technical directorship and infrastructure
   Hang Xu                : AUTO-CI-Response properties 


 We gratefully acknowledge several colleagues who have allowed us to
 interface, adapt or use parts of their codes:
   Stefan Grimme, W. Hujo, H. Kruse, P. Pracht,  : VdW corrections, initial TS optimization,
                  C. Bannwarth, S. Ehlert,         DFT functionals, gCP, sTDA/sTD-DF
                  L. Wittmann, M. Mueller
   Ed Valeev, F. Pavosevic, A. Kumar             : LibInt (2-el integral package), F12 methods
   Garnet Chan, S. Sharma, J. Yang, R. Olivares  : DMRG
   Ulf Ekstrom                                   : XCFun DFT Library
   Mihaly Kallay                                 : mrcc  (arbitrary order and MRCC methods)
   Frank Weinhold                                : gennbo (NPA and NBO analysis)
   Simon Mueller                                 : openCOSMO-RS
   Christopher J. Cramer and Donald G. Truhlar   : smd solvation model
   Lars Goerigk                                  : TD-DFT with DH, B97 family of functionals
   V. Asgeirsson, H. Jonsson                     : NEB implementation
   FAccTs GmbH                                   : IRC, NEB, NEB-TS, DLPNO-Multilevel, CI-OPT
                                                   MM, QMMM, 2- and 3-layer-ONIOM, Crystal-QMMM,
                                                   LR-CPCM, SF, NACMEs, symmetry and pop. for TD-DFT,
                                                   nearIR, NL-DFT gradient (VV10), updates on ESD,
                                                   ML-optimized integration grids, MBIS, APM,
                                                   GOAT, DOCKER, SOLVATOR, interface openCOSMO-RS
   S Lehtola, MJT Oliveira, MAL Marques          : LibXC Library
   Liviu Ungur et al                             : ANISO software


 Your calculation uses the libint2 library for the computation of 2-el integrals
 For citations please refer to: http://libint.valeyev.net

 Your ORCA version has been built with support for libXC version: 6.2.2
 For citations please refer to: https://libxc.gitlab.io

 This ORCA versions uses:
   CBLAS   interface :  Fast vector & matrix operations
   LAPACKE interface :  Fast linear algebra routines
   SCALAPACK package :  Parallel linear algebra routines
   Shared memory     :  Shared parallel matrices
   BLAS/LAPACK       :  OpenBLAS 0.3.27  USE64BITINT DYNAMIC_ARCH NO_AFFINITY SkylakeX SINGLE_THREADED
        Core in use  :  SkylakeX
   Copyright (c) 2011-2014, The OpenBLAS Project




***************************************
The coordinates will be read from file: vacuum_censo.xyz
***************************************


Your calculation utilizes the geometrical counterpoise correction gCP
Please cite in your paper:
H.Kruse, S. Grimme J.Chem.Phys., 136, (2012), 154101 
   

Your calculation utilizes the atom-pairwise dispersion correction
based on EEQ partial charges (D4)


================================================================================

----- Orbital basis set information -----
Your calculation utilizes the basis: def2-TZVP
   F. Weigend and R. Ahlrichs, Phys. Chem. Chem. Phys. 7, 3297 (2005).

----- AuxJ basis set information -----
Your calculation utilizes the basis: def2-mTZVPP/J
   Stefan Grimme, Andreas Hansen, Sebastian Ehlert, and Jan-Michael Mewes 
   J. Chem. Phys. 154, 000000 (2021). DOI: 10.1063/5.0040021

================================================================================
                                        WARNINGS
                       Please study these warnings very carefully!
================================================================================

Using LibXC functional ID 497 : Re-regularized SCAN exchange by Furness et al
[ 1]  J. W. Furness, A. D. Kaplan, J. Ning, J. P. Perdew, and J. Sun.,  J. Phys. Chem. Lett. 11, 8208-8215 (2020)
[ 2]  J. W. Furness, A. D. Kaplan, J. Ning, J. P. Perdew, and J. Sun.,  J. Phys. Chem. Lett. 11, 9248-9248 (2020)
Using LibXC functional ID 498 : Re-regularized SCAN correlation by Furness et al
[ 1]  J. W. Furness, A. D. Kaplan, J. Ning, J. P. Perdew, and J. Sun.,  J. Phys. Chem. Lett. 11, 8208-8215 (2020)
[ 2]  J. W. Furness, A. D. Kaplan, J. Ning, J. P. Perdew, and J. Sun.,  J. Phys. Chem. Lett. 11, 9248-9248 (2020)
Using LibXC functional ID 497 : Re-regularized SCAN exchange by Furness et al
[ 1]  J. W. Furness, A. D. Kaplan, J. Ning, J. P. Perdew, and J. Sun.,  J. Phys. Chem. Lett. 11, 8208-8215 (2020)
[ 2]  J. W. Furness, A. D. Kaplan, J. Ning, J. P. Perdew, and J. Sun.,  J. Phys. Chem. Lett. 11, 9248-9248 (2020)
Using LibXC functional ID 498 : Re-regularized SCAN correlation by Furness et al
[ 1]  J. W. Furness, A. D. Kaplan, J. Ning, J. P. Perdew, and J. Sun.,  J. Phys. Chem. Lett. 11, 8208-8215 (2020)
[ 2]  J. W. Furness, A. D. Kaplan, J. Ning, J. P. Perdew, and J. Sun.,  J. Phys. Chem. Lett. 11, 9248-9248 (2020)

================================================================================
                                       INPUT FILE
================================================================================
NAME = vacuum_censo.inp
|  1> ! r2SCAN-3c DEF2-TZVP FREQ
|  2> * xyzfile 0 1 vacuum_censo.xyz
|  3> 
|  4>                          ****END OF INPUT****
================================================================================

                       ****************************
                       * Single Point Calculation *
                       ****************************

---------------------------------
CARTESIAN COORDINATES (ANGSTROEM)
---------------------------------
  C     -2.683607   -1.715012    0.834272
  C     -2.328131   -1.009179   -0.482562
  C     -1.302988    0.079593   -0.293372
  C     -1.709808    1.393979   -0.199494
  C     -0.796544    2.441205    0.031284
  C      0.541432    2.172265    0.167090
  C      1.016075    0.842967    0.072796
  C      0.086728   -0.223371   -0.160798
  C      0.598255   -1.541929   -0.257535
  C      1.942707   -1.797871   -0.128738
  C      2.851278   -0.746561    0.104877
  C      2.393875    0.544119    0.201023
  H     -1.799474   -2.163470    1.296291
  H     -3.422338   -2.505115    0.666977
  H     -3.102059   -0.999363    1.548272
  H     -3.234772   -0.565248   -0.906827
  H     -1.975599   -1.744282   -1.214845
  H     -2.765897    1.627875   -0.305242
  H     -1.159149    3.462044    0.098221
  H      1.253737    2.972579    0.345770
  H     -0.081398   -2.367056   -0.437773
  H      2.308451   -2.816562   -0.209322
  H      3.910554   -0.959833    0.205368
  H      3.087480    1.361716    0.376988

----------------------------
CARTESIAN COORDINATES (A.U.)
----------------------------
  NO LB      ZA    FRAG     MASS         X           Y           Z
   0 C     6.0000    0    12.011   -5.071283   -3.240902    1.576545
   1 C     6.0000    0    12.011   -4.399530   -1.907072   -0.911909
   2 C     6.0000    0    12.011   -2.462291    0.150410   -0.554393
   3 C     6.0000    0    12.011   -3.231070    2.634239   -0.376989
   4 C     6.0000    0    12.011   -1.505250    4.613209    0.059119
   5 C     6.0000    0    12.011    1.023158    4.104985    0.315754
   6 C     6.0000    0    12.011    1.920104    1.592976    0.137564
   7 C     6.0000    0    12.011    0.163892   -0.422110   -0.303864
   8 C     6.0000    0    12.011    1.130539   -2.913824   -0.486671
   9 C     6.0000    0    12.011    3.671184   -3.397483   -0.243279
  10 C     6.0000    0    12.011    5.388135   -1.410796    0.198189
  11 C     6.0000    0    12.011    4.523767    1.028237    0.379879
  12 H     1.0000    0     1.008   -3.400513   -4.088365    2.449634
  13 H     1.0000    0     1.008   -6.467281   -4.733981    1.260403
  14 H     1.0000    0     1.008   -5.862042   -1.888522    2.925809
  15 H     1.0000    0     1.008   -6.112833   -1.068164   -1.713655
  16 H     1.0000    0     1.008   -3.733340   -3.296214   -2.295725
  17 H     1.0000    0     1.008   -5.226788    3.076239   -0.576824
  18 H     1.0000    0     1.008   -2.190474    6.542314    0.185611
  19 H     1.0000    0     1.008    2.369219    5.617359    0.653410
  20 H     1.0000    0     1.008   -0.153820   -4.473088   -0.827271
  21 H     1.0000    0     1.008    4.362341   -5.322531   -0.395562
  22 H     1.0000    0     1.008    7.389876   -1.813821    0.388089
  23 H     1.0000    0     1.008    5.834492    2.573270    0.712404

--------------------------------
INTERNAL COORDINATES (ANGSTROEM)
--------------------------------
 C      0   0   0     0.000000000000     0.00000000     0.00000000
 C      1   0   0     1.535777736652     0.00000000     0.00000000
 C      2   1   0     1.507360164160   112.44303542     0.00000000
 C      3   2   1     1.379103088712   119.75767533   261.26185615
 C      4   3   2     1.408542708114   121.90293024   177.39608883
 C      5   4   3     1.371477816865   120.19654049     0.15031322
 C      6   5   4     1.414641421795   120.33074283     0.18707486
 C      3   2   1     1.428521821277   121.33738840    79.01573340
 C      8   3   2     1.417608494231   122.81764974     2.93255935
 C      9   8   3     1.374643526212   121.31197450   179.81062892
 C     10   9   8     1.409017327641   120.48270854     0.00000000
 C     11  10   9     1.372704847334   119.88716687   359.80372185
 H      1   2   3     1.093740267534   111.31762595   301.15082512
 H      1   2   3     1.094519805503   110.91195985   180.47783051
 H      1   2   3     1.094098135325   110.33226876    60.48969027
 H      2   1   3     1.095022177534   109.08025928   239.47232973
 H      2   1   3     1.095853131684   109.82393541   123.43503694
 H      4   3   2     1.086836377561   119.02093576   357.48806190
 H      5   4   3     1.085391577473   119.52216126   179.99427382
 H      6   5   4     1.086189119438   120.76835630   180.03219741
 H      9   8   3     1.084088787947   119.54237276   359.88319133
 H     10   9   8     1.085354779673   119.82651988   180.14142441
 H     11  10   9     1.085195192147   119.87720060   179.97576513
 H     12  11  10     1.086515320118   120.40822488   180.24973160

---------------------------
INTERNAL COORDINATES (A.U.)
---------------------------
 C      0   0   0     0.000000000000     0.00000000     0.00000000
 C      1   0   0     2.902199324846     0.00000000     0.00000000
 C      2   1   0     2.848497895446   112.44303542     0.00000000
 C      3   2   1     2.606127148111   119.75767533   261.26185615
 C      4   3   2     2.661759966267   121.90293024   177.39608883
 C      5   4   3     2.591717472624   120.19654049     0.15031322
 C      6   5   4     2.673284864894   120.33074283     0.18707486
 C      3   2   1     2.699515018544   121.33738840    79.01573340
 C      8   3   2     2.678891819217   122.81764974     2.93255935
 C      9   8   3     2.597699796309   121.31197450   179.81062892
 C     10   9   8     2.662656867191   120.48270854     0.00000000
 C     11  10   9     2.594036224168   119.88716687   359.80372185
 H      1   2   3     2.066869567281   111.31762595   301.15082512
 H      1   2   3     2.068342680553   110.91195985   180.47783051
 H      1   2   3     2.067545839398   110.33226876    60.48969027
 H      2   1   3     2.069292026109   109.08025928   239.47232973
 H      2   1   3     2.070862301882   109.82393541   123.43503694
 H      4   3   2     2.053823105973   119.02093576   357.48806190
 H      5   4   3     2.051092829489   119.52216126   179.99427382
 H      6   5   4     2.052599965383   120.76835630   180.03219741
 H      9   8   3     2.048630914074   119.54237276   359.88319133
 H     10   9   8     2.051023291724   119.82651988   180.14142441
 H     11  10   9     2.050721715006   119.87720060   179.97576513
 H     12  11  10     2.053216395332   120.40822488   180.24973160

---------------------
BASIS SET INFORMATION
---------------------
There are 2 groups of distinct atoms

 Group   1 Type C   : 11s6p2d1f contracted to 5s3p2d1f pattern {62111/411/11/1}
 Group   2 Type H   : 5s1p contracted to 3s1p pattern {311/1}

Atom   0C    basis set group =>   1
Atom   1C    basis set group =>   1
Atom   2C    basis set group =>   1
Atom   3C    basis set group =>   1
Atom   4C    basis set group =>   1
Atom   5C    basis set group =>   1
Atom   6C    basis set group =>   1
Atom   7C    basis set group =>   1
Atom   8C    basis set group =>   1
Atom   9C    basis set group =>   1
Atom  10C    basis set group =>   1
Atom  11C    basis set group =>   1
Atom  12H    basis set group =>   2
Atom  13H    basis set group =>   2
Atom  14H    basis set group =>   2
Atom  15H    basis set group =>   2
Atom  16H    basis set group =>   2
Atom  17H    basis set group =>   2
Atom  18H    basis set group =>   2
Atom  19H    basis set group =>   2
Atom  20H    basis set group =>   2
Atom  21H    basis set group =>   2
Atom  22H    basis set group =>   2
Atom  23H    basis set group =>   2
---------------------------------
AUXILIARY/J BASIS SET INFORMATION
---------------------------------
There are 2 groups of distinct atoms

 Group   1 Type C   : 8s3p3d contracted to 6s3p3d pattern {311111/111/111}
 Group   2 Type H   : 5s2p1d contracted to 3s1p1d pattern {311/2/1}

Atom   0C    basis set group =>   1
Atom   1C    basis set group =>   1
Atom   2C    basis set group =>   1
Atom   3C    basis set group =>   1
Atom   4C    basis set group =>   1
Atom   5C    basis set group =>   1
Atom   6C    basis set group =>   1
Atom   7C    basis set group =>   1
Atom   8C    basis set group =>   1
Atom   9C    basis set group =>   1
Atom  10C    basis set group =>   1
Atom  11C    basis set group =>   1
Atom  12H    basis set group =>   2
Atom  13H    basis set group =>   2
Atom  14H    basis set group =>   2
Atom  15H    basis set group =>   2
Atom  16H    basis set group =>   2
Atom  17H    basis set group =>   2
Atom  18H    basis set group =>   2
Atom  19H    basis set group =>   2
Atom  20H    basis set group =>   2
Atom  21H    basis set group =>   2
Atom  22H    basis set group =>   2
Atom  23H    basis set group =>   2
------------------------------------------------------------------------------
                             ORCA STARTUP CALCULATIONS
                           -- RI-GTO INTEGRALS CHOSEN --
------------------------------------------------------------------------------
------------------------------------------------------------------------------
                   ___                                                        
                  /   \      - P O W E R E D   B Y -                         
                 /     \                                                     
                 |  |  |   _    _      __       _____    __    __             
                 |  |  |  | |  | |    /  \     |  _  \  |  |  /  |          
                  \  \/   | |  | |   /    \    | | | |  |  | /  /          
                 / \  \   | |__| |  /  /\  \   | |_| |  |  |/  /          
                |  |  |   |  __  | /  /__\  \  |    /   |      \           
                |  |  |   | |  | | |   __   |  |    \   |  |\   \          
                \     /   | |  | | |  |  |  |  | |\  \  |  | \   \       
                 \___/    |_|  |_| |__|  |__|  |_| \__\ |__|  \__/        
                                                                              
                      - O R C A' S   B I G   F R I E N D -                    
                                      &                                       
                       - I N T E G R A L  F E E D E R -                       
                                                                              
 v1 FN, 2020, v2 2021, v3 2022-2024                                           
------------------------------------------------------------------------------


----------------------
SHARK INTEGRAL PACKAGE
----------------------

Number of atoms                             ...     24
Number of basis functions                   ...    444
Number of shells                            ...    180
Maximum angular momentum                    ...      3
Integral batch strategy                     ... SHARK/LIBINT Hybrid
RI-J (if used) integral strategy            ... SPLIT-RIJ (Revised 2003 algorithm where possible)
Printlevel                                  ...      1
Contraction scheme used                     ... SEGMENTED contraction
Prescreening option                         ... SCHWARTZ
   Thresh                                   ... 1.000e-10
   Tcut                                     ... 1.000e-11
   Tpresel                                  ... 1.000e-11 
Coulomb Range Separation                    ... NOT USED
Exchange Range Separation                   ... NOT USED
Multipole approximations                    ... NOT USED
Finite Nucleus Model                        ... NOT USED
CABS basis                                  ... NOT available
Auxiliary Coulomb fitting basis             ... AVAILABLE
   # of basis functions in Aux-J            ...    492
   # of shells in Aux-J                     ...    204
   Maximum angular momentum in Aux-J        ...      2
Auxiliary J/K fitting basis                 ... NOT available
Auxiliary Correlation fitting basis         ... NOT available
Auxiliary 'external' fitting basis          ... NOT available

Checking pre-screening integrals            ... done (  0.0 sec) Dimension = 180
Check shell pair data                       ... done (  0.0 sec)
Shell pair information
Shell pair cut-off parameter TPreSel        ...   1.0e-11
Total number of shell pairs                 ...     16290
Shell pairs after pre-screening             ...     14023
Total number of primitive shell pairs       ...     49128
Primitive shell pairs kept                  ...     30431
          la=0 lb=0:   3808 shell pairs
          la=1 lb=0:   3987 shell pairs
          la=1 lb=1:   1065 shell pairs
          la=2 lb=0:   2014 shell pairs
          la=2 lb=1:   1052 shell pairs
          la=2 lb=2:    282 shell pairs
          la=3 lb=0:    965 shell pairs
          la=3 lb=1:    513 shell pairs
          la=3 lb=2:    264 shell pairs
          la=3 lb=3:     73 shell pairs

Calculating one electron integrals          ... done (  0.1 sec)
Calculating RI/J V-Matrix + Cholesky decomp.... done (  0.1 sec)
Calculating Nuclear repulsion               ... done (  0.0 sec) ENN=    642.361109873884 Eh

Diagonalization of the overlap matrix:
Smallest eigenvalue                        ... 4.985e-06
Time for diagonalization                   ...    0.022 sec
Threshold for overlap eigenvalues          ... 1.000e-07
Number of eigenvalues below threshold      ... 0
Time for construction of square roots      ...    0.023 sec
Total time needed                          ...    0.054 sec

-------------------
DFT GRID GENERATION
-------------------

General Integration Accuracy     IntAcc      ... 4.388
Radial Grid Type                 RadialGrid  ... OptM3 with GC (2021)
Angular Grid (max. ang.)         AngularGrid ... 4 (Lebedev-302)
Angular grid pruning method      GridPruning ... 4 (adaptive)
Weight generation scheme         WeightScheme... mBecke (2022)
Basis function cutoff            BFCut       ... 1.0000e-10
Integration weight cutoff        WCut        ... 1.0000e-14
Partially contracted basis set               ... off
Rotationally invariant grid construction     ... off
Angular grids for H and He will be reduced by one unit

Total number of grid points                  ...   110094
Total number of batches                      ...     1733
Average number of points per batch           ...       63
Average number of grid points per atom       ...     4587
Initializing property integral containers    ... done (  0.0 sec)

SHARK setup successfully completed in   1.9 seconds

Maximum memory used throughout the entire STARTUP-calculation: 71.3 MB
-------------------------------------------------------------------------------
                                 ORCA GUESS
                   Start orbitals & Density for SCF / CASSCF
-------------------------------------------------------------------------------

------------
SCF SETTINGS
------------
Hamiltonian:
 Density Functional     Method          .... DFT(GTOs)
  Functional kind                       .... Exchange
  Functional name                       .... Re-regularized SCAN exchange by Furness et al
  Functional family                     .... MGGA
  Functional refs                              
    [ 0] J. W. Furness, A. D. Kaplan, J. Ning, J. P. Perdew, and J. Sun.,  J. Phys. Chem. Lett. 11, 8208-8215 (2020), doi: 10.1021/acs.jpclett.0c02405
    [ 1] J. W. Furness, A. D. Kaplan, J. Ning, J. P. Perdew, and J. Sun.,  J. Phys. Chem. Lett. 11, 9248-9248 (2020), doi: 10.1021/acs.jpclett.0c03077
  Functional external parameters        .... 6
    Parameter  0 _c1        =  6.670000e-01 : c1 parameter        
    Parameter  1 _c2        =  8.000000e-01 : c2 parameter        
    Parameter  2 _d         =  1.240000e+00 : d parameter         
    Parameter  3 _k1        =  6.500000e-02 : k1 parameter        
    Parameter  4 _eta       =  1.000000e-03 : eta parameter       
    Parameter  5 _dp2       =  3.610000e-01 : dp2 parameter       
  Functional kind                       .... Correlation
  Functional name                       .... Re-regularized SCAN correlation by Furness et al
  Functional family                     .... MGGA
  Functional refs                              
    [ 0] J. W. Furness, A. D. Kaplan, J. Ning, J. P. Perdew, and J. Sun.,  J. Phys. Chem. Lett. 11, 8208-8215 (2020), doi: 10.1021/acs.jpclett.0c02405
    [ 1] J. W. Furness, A. D. Kaplan, J. Ning, J. P. Perdew, and J. Sun.,  J. Phys. Chem. Lett. 11, 9248-9248 (2020), doi: 10.1021/acs.jpclett.0c03077
  Functional external parameters        .... 1
    Parameter  0 _eta       =  1.000000e-03 : Regularization parameter
 Gradients option       PostSCFGGA      .... off
 RI-approximation to the Coulomb term is turned on
   Number of AuxJ basis functions       .... 492


General Settings:
 Integral files         IntName         .... vacuum_censo
 Hartree-Fock type      HFTyp           .... RHF
 Total Charge           Charge          ....    0
 Multiplicity           Mult            ....    1
 Number of Electrons    NEL             ....   84
 Basis Dimension        Dim             ....  444
 Nuclear Repulsion      ENuc            ....    642.3611098739 Eh

Convergence Acceleration:
 AO-DIIS                CNVDIIS         .... on
   Start iteration      DIISMaxIt       ....    12
   Startup error        DIISStart       ....  0.200000
   # of expansion vecs  DIISMaxEq       ....     5
   Bias factor          DIISBfac        ....   1.050
   Max. coefficient     DIISMaxC        ....  10.000
 MO-DIIS                CNVKDIIS        .... off
 Trust-Rad. Augm. Hess. CNVTRAH         .... auto
   Auto Start mean grad. ratio tolernc. ....  1.125000
   Auto Start start iteration           ....    50
   Auto Start num. interpolation iter.  ....    10
   Max. Number of Micro iterations      ....    24
   Max. Number of Macro iterations      .... Maxiter - #DIIS iter
   Number of Davidson start vectors     ....     2
   Converg. threshold    (grad. norm)   ....   5.000e-05
   Grad. Scal. Fac. for Micro threshold ....   0.100
   Minimum threshold for Micro iter.    ....   1.000e-02
   NR start threshold (gradient norm)   ....   1.000e-04
   Initial trust radius                 ....   0.400
   Minimum AH scaling param. (alpha)    ....   1.000
   Maximum AH scaling param. (alpha)    .... 1000.000
   Quad. conv. algorithm                .... NR
   White noise on init. David. guess    .... on
   Maximum white noise                  ....   0.010
   Pseudo random numbers                .... off
   Inactive MOs                         .... canonical
   Orbital update algorithm             .... Taylor
   Preconditioner                       .... Diag
   Full preconditioner red. dimension   ....   250
   COSX micro iterations for RIJONX calc.... off
 SOSCF                  CNVSOSCF        .... on
   Start iteration      SOSCFMaxIt      ....   150
   Startup grad/error   SOSCFStart      ....  0.003300
   Hessian update       SOSCFHessUp     .... L-BFGS
 Level Shifting         CNVShift        .... on
   Level shift para.    LevelShift      ....    0.2500
   Turn off err/grad.   ShiftErr        ....    0.0010
 Zerner damping         CNVZerner       .... off
 Static damping         CNVDamp         .... on
   Fraction old density DampFac         ....    0.7000
   Max. Damping (<1)    DampMax         ....    0.9800
   Min. Damping (>=0)   DampMin         ....    0.0000
   Turn off err/grad.   DampErr         ....    0.1000

SCF Procedure:
 Maximum # iterations   MaxIter         ....   125
 SCF integral mode      SCFMode         .... Direct
   Integral package                     .... SHARK and LIBINT hybrid scheme
 Reset frequency        DirectResetFreq ....    20
 Integral Threshold     Thresh          ....  1.000e-10 Eh
 Primitive CutOff       TCut            ....  1.000e-11 Eh

Convergence Tolerance:
 Convergence Check Mode ConvCheckMode   .... Total+1el-Energy
 Convergence forced     ConvForced      .... 0
 Energy Change          TolE            ....  1.000e-06 Eh
 1-El. energy change                    ....  1.000e-03 Eh
 Orbital Gradient       TolG            ....  5.000e-05
 Orbital Rotation angle TolX            ....  5.000e-05
 DIIS Error             TolErr          ....  1.000e-06

------------------------------
INITIAL GUESS: MODEL POTENTIAL
------------------------------
Loading Hartree-Fock densities                     ... done
Calculating cut-offs                               ... done
Initializing the effective Hamiltonian             ... done
Setting up the integral package (SHARK)            ... done
Starting the Coulomb interaction                   ... done (   0.8 sec)
Making the grid                                    ... done (   0.4 sec)
Mapping shells                                     ... done
Starting the XC term evaluation                    ... done (   0.8 sec)
  promolecular density results
     # of electrons  =     83.991645898
     EX              =    -64.920508649
     EC              =     -2.779575992
     EX+EC           =    -67.700084641
Transforming the Hamiltonian                       ... done (   0.0 sec)
Diagonalizing the Hamiltonian                      ... done (   0.0 sec)
Back transforming the eigenvectors                 ... done (   0.0 sec)
Now organizing SCF variables                       ... done
                      ------------------
                      INITIAL GUESS DONE (   2.1 sec)
                      ------------------
             **** ENERGY FILE WAS UPDATED (vacuum_censo.en.tmp) ****
Finished Guess after   2.5 sec
Maximum memory used throughout the entire GUESS-calculation: 50.5 MB

-------------------------------------------------------------------------------------------
                                      ORCA LEAN-SCF
                              memory conserving SCF solver
-------------------------------------------------------------------------------------------

----------------------------------------D-I-I-S--------------------------------------------
Iteration    Energy (Eh)           Delta-E    RMSDP     MaxDP     DIISErr   Damp  Time(sec)
-------------------------------------------------------------------------------------------
               ***  Starting incremental Fock matrix formation  ***
    1    -464.1438363358217885     0.00e+00  1.44e-03  4.54e-02  1.75e-01  0.700   7.3
    2    -464.2703375786513789    -1.27e-01  1.11e-03  3.35e-02  8.91e-02  0.700   6.2
                               ***Turning on AO-DIIS***
    3    -464.3235434247974354    -5.32e-02  6.39e-04  2.37e-02  3.13e-02  0.700   6.0
    4    -464.3541036324384095    -3.06e-02  1.34e-03  5.19e-02  1.61e-02  0.000   6.0
    5    -464.4200998007997896    -6.60e-02  1.59e-04  3.22e-03  5.31e-03  0.000   6.0
                              *** Initializing SOSCF ***
---------------------------------------S-O-S-C-F--------------------------------------
Iteration    Energy (Eh)           Delta-E    RMSDP     MaxDP     MaxGrad    Time(sec)
--------------------------------------------------------------------------------------
    6    -464.4205052565828282    -4.05e-04  7.99e-05  2.10e-03  1.23e-03     5.5
               *** Restarting incremental Fock matrix formation ***
    7    -464.4205287380361824    -2.35e-05  6.12e-05  1.77e-03  2.84e-04     7.2
    8    -464.4205235616882419     5.18e-06  1.42e-05  4.30e-04  5.95e-04     5.1
    9    -464.4205316826130456    -8.12e-06  1.19e-05  2.72e-04  8.42e-05     4.8
   10    -464.4205312100239098     4.73e-07  5.12e-06  1.86e-04  1.38e-04     4.6
                 **** Energy Check signals convergence ****

               *****************************************************
               *                     SUCCESS                       *
               *           SCF CONVERGED AFTER  10 CYCLES          *
               *****************************************************

             **** ENERGY FILE WAS UPDATED (vacuum_censo.en.tmp) ****

----------------
TOTAL SCF ENERGY
----------------

Total Energy       :       -464.42053121002391 Eh          -12637.52513 eV

Components:
Nuclear Repulsion  :        642.36110987388406 Eh           17479.53444 eV
Electronic Energy  :      -1106.78164108390774 Eh          -30117.05958 eV
One Electron Energy:      -1899.41282004161599 Eh          -51685.65048 eV
Two Electron Energy:        792.63117895770813 Eh           21568.59091 eV

Virial components:
Potential Energy   :       -926.55951315154914 Eh          -25212.96616 eV
Kinetic Energy     :        462.13898194152523 Eh           12575.44102 eV
Virial Ratio       :          2.00493693316870

DFT components:
N(Alpha)           :       41.999966939651 electrons
N(Beta)            :       41.999966939651 electrons
N(Total)           :       83.999933879301 electrons
E(X)               :      -66.764071122827 Eh       
E(C)               :       -2.687584872622 Eh       
E(XC)              :      -69.451655995449 Eh       

---------------
SCF CONVERGENCE
---------------

  Last Energy change         ...   -4.7259e-07  Tolerance :   1.0000e-06
  Last MAX-Density change    ...    1.8612e-04  Tolerance :   1.0000e-05
  Last RMS-Density change    ...    5.1153e-06  Tolerance :   1.0000e-06
  Last DIIS Error            ...    1.2301e-03  Tolerance :   1.0000e-06
  Last Orbital Gradient      ...    1.3778e-04  Tolerance :   5.0000e-05
  Last Orbital Rotation      ...    3.3878e-04  Tolerance :   5.0000e-05


----------------
ORBITAL ENERGIES
----------------

  NO   OCC          E(Eh)            E(eV) 
   0   2.0000     -10.045882      -273.3623 
   1   2.0000     -10.045003      -273.3384 
   2   2.0000     -10.044869      -273.3348 
   3   2.0000     -10.037916      -273.1456 
   4   2.0000     -10.037371      -273.1308 
   5   2.0000     -10.037361      -273.1305 
   6   2.0000     -10.037165      -273.1251 
   7   2.0000     -10.036626      -273.1105 
   8   2.0000     -10.035863      -273.0897 
   9   2.0000     -10.034246      -273.0457 
  10   2.0000     -10.033469      -273.0246 
  11   2.0000     -10.025207      -272.7997 
  12   2.0000      -0.842175       -22.9168 
  13   2.0000      -0.791733       -21.5441 
  14   2.0000      -0.762028       -20.7358 
  15   2.0000      -0.716801       -19.5051 
  16   2.0000      -0.708231       -19.2720 
  17   2.0000      -0.679748       -18.4969 
  18   2.0000      -0.605196       -16.4682 
  19   2.0000      -0.586286       -15.9537 
  20   2.0000      -0.580949       -15.8084 
  21   2.0000      -0.539760       -14.6876 
  22   2.0000      -0.482356       -13.1256 
  23   2.0000      -0.475138       -12.9292 
  24   2.0000      -0.462105       -12.5745 
  25   2.0000      -0.425649       -11.5825 
  26   2.0000      -0.415027       -11.2935 
  27   2.0000      -0.400861       -10.9080 
  28   2.0000      -0.390269       -10.6198 
  29   2.0000      -0.380410       -10.3515 
  30   2.0000      -0.374104       -10.1799 
  31   2.0000      -0.366762        -9.9801 
  32   2.0000      -0.354354        -9.6425 
  33   2.0000      -0.341929        -9.3044 
  34   2.0000      -0.331709        -9.0263 
  35   2.0000      -0.318218        -8.6591 
  36   2.0000      -0.305017        -8.2999 
  37   2.0000      -0.300673        -8.1817 
  38   2.0000      -0.290665        -7.9094 
  39   2.0000      -0.260750        -7.0954 
  40   2.0000      -0.230583        -6.2745 
  41   2.0000      -0.199814        -5.4372 
  42   0.0000      -0.067700        -1.8422 
  43   0.0000      -0.038491        -1.0474 
  44   0.0000      -0.002955        -0.0804 
  45   0.0000       0.047479         1.2920 
  46   0.0000       0.060842         1.6556 
  47   0.0000       0.063929         1.7396 
  48   0.0000       0.071324         1.9408 
  49   0.0000       0.092726         2.5232 
  50   0.0000       0.096492         2.6257 
  51   0.0000       0.098431         2.6784 
  52   0.0000       0.113027         3.0756 
*Only the first 10 virtual orbitals were printed.

                    ********************************
                    * MULLIKEN POPULATION ANALYSIS *
                    ********************************

-----------------------
MULLIKEN ATOMIC CHARGES
-----------------------
   0 C :   -0.331094
   1 C :   -0.195127
   2 C :    0.149884
   3 C :   -0.167373
   4 C :   -0.087593
   5 C :   -0.234528
   6 C :    0.175393
   7 C :    0.107662
   8 C :   -0.249638
   9 C :   -0.116815
  10 C :   -0.096788
  11 C :   -0.186596
  12 H :    0.115788
  13 H :    0.105822
  14 H :    0.108702
  15 H :    0.090700
  16 H :    0.092833
  17 H :    0.098838
  18 H :    0.106486
  19 H :    0.096673
  20 H :    0.103318
  21 H :    0.107609
  22 H :    0.108563
  23 H :    0.097279
Sum of atomic charges:   -0.0000000

--------------------------------
MULLIKEN REDUCED ORBITAL CHARGES
--------------------------------
  0 C s       :     3.266557  s :     3.266557
      pz      :     0.942188  p :     3.013181
      px      :     1.047452
      py      :     1.023540
      dz2     :     0.011259  d :     0.047600
      dxz     :     0.012881
      dyz     :     0.011512
      dx2y2   :     0.001399
      dxy     :     0.010549
      f0      :     0.000790  f :     0.003757
      f+1     :     0.000315
      f-1     :     0.000847
      f+2     :     0.000357
      f-2     :     0.001066
      f+3     :     0.000151
      f-3     :     0.000231

  1 C s       :     3.264603  s :     3.264603
      pz      :     0.942660  p :     2.837589
      px      :     0.945592
      py      :     0.949338
      dz2     :     0.013689  d :     0.086673
      dxz     :     0.020612
      dyz     :     0.023427
      dx2y2   :     0.014946
      dxy     :     0.013998
      f0      :     0.001071  f :     0.006262
      f+1     :     0.000523
      f-1     :     0.001128
      f+2     :     0.000398
      f-2     :     0.001396
      f+3     :     0.000676
      f-3     :     0.001069

  2 C s       :     3.252856  s :     3.252856
      pz      :     0.913886  p :     2.457102
      px      :     0.732771
      py      :     0.810445
      dz2     :     0.004362  d :     0.128574
      dxz     :     0.022348
      dyz     :     0.026863
      dx2y2   :     0.043715
      dxy     :     0.031286
      f0      :     0.001734  f :     0.011583
      f+1     :     0.000742
      f-1     :     0.000775
      f+2     :     0.001211
      f-2     :     0.001094
      f+3     :     0.002893
      f-3     :     0.003135

  3 C s       :     3.227281  s :     3.227281
      pz      :     0.989537  p :     2.853897
      px      :     0.943704
      py      :     0.920655
      dz2     :     0.004646  d :     0.077430
      dxz     :     0.005500
      dyz     :     0.021782
      dx2y2   :     0.025083
      dxy     :     0.020419
      f0      :     0.001553  f :     0.008765
      f+1     :     0.000705
      f-1     :     0.000747
      f+2     :     0.000530
      f-2     :     0.000982
      f+3     :     0.002030
      f-3     :     0.002218

  4 C s       :     3.191319  s :     3.191319
      pz      :     0.962416  p :     2.811747
      px      :     0.928316
      py      :     0.921014
      dz2     :     0.005103  d :     0.075809
      dxz     :     0.020775
      dyz     :     0.007123
      dx2y2   :     0.020875
      dxy     :     0.021935
      f0      :     0.001564  f :     0.008718
      f+1     :     0.000779
      f-1     :     0.000756
      f+2     :     0.000702
      f-2     :     0.000829
      f+3     :     0.001930
      f-3     :     0.002158

  5 C s       :     3.314089  s :     3.314089
      pz      :     0.982853  p :     2.834880
      px      :     0.949689
      py      :     0.902338
      dz2     :     0.003009  d :     0.076904
      dxz     :     0.016498
      dyz     :     0.013241
      dx2y2   :     0.019694
      dxy     :     0.024463
      f0      :     0.001606  f :     0.008654
      f+1     :     0.000716
      f-1     :     0.000597
      f+2     :     0.001052
      f-2     :     0.000408
      f+3     :     0.001907
      f-3     :     0.002369

  6 C s       :     3.192347  s :     3.192347
      pz      :     0.909396  p :     2.501165
      px      :     0.772716
      py      :     0.819053
      dz2     :     0.005301  d :     0.118834
      dxz     :     0.023560
      dyz     :     0.023765
      dx2y2   :     0.028564
      dxy     :     0.037644
      f0      :     0.001857  f :     0.012261
      f+1     :     0.000848
      f-1     :     0.000831
      f+2     :     0.001105
      f-2     :     0.001216
      f+3     :     0.002881
      f-3     :     0.003522

  7 C s       :     3.304910  s :     3.304910
      pz      :     0.926088  p :     2.451304
      px      :     0.743203
      py      :     0.782014
      dz2     :     0.003926  d :     0.124139
      dxz     :     0.022908
      dyz     :     0.022369
      dx2y2   :     0.034982
      dxy     :     0.039954
      f0      :     0.001803  f :     0.011985
      f+1     :     0.000840
      f-1     :     0.000806
      f+2     :     0.001023
      f-2     :     0.001203
      f+3     :     0.002792
      f-3     :     0.003517

  8 C s       :     3.315766  s :     3.315766
      pz      :     0.980145  p :     2.845994
      px      :     0.966764
      py      :     0.899086
      dz2     :     0.003592  d :     0.079215
      dxz     :     0.017101
      dyz     :     0.012871
      dx2y2   :     0.020630
      dxy     :     0.025020
      f0      :     0.001590  f :     0.008662
      f+1     :     0.000716
      f-1     :     0.000600
      f+2     :     0.001052
      f-2     :     0.000421
      f+3     :     0.001960
      f-3     :     0.002323

  9 C s       :     3.211211  s :     3.211211
      pz      :     0.967204  p :     2.821011
      px      :     0.920596
      py      :     0.933211
      dz2     :     0.004806  d :     0.075903
      dxz     :     0.020407
      dyz     :     0.006952
      dx2y2   :     0.020388
      dxy     :     0.023351
      f0      :     0.001556  f :     0.008690
      f+1     :     0.000762
      f-1     :     0.000753
      f+2     :     0.000712
      f-2     :     0.000799
      f+3     :     0.001900
      f-3     :     0.002209

 10 C s       :     3.198450  s :     3.198450
      pz      :     0.965554  p :     2.814334
      px      :     0.932618
      py      :     0.916162
      dz2     :     0.004717  d :     0.075344
      dxz     :     0.005600
      dyz     :     0.021526
      dx2y2   :     0.021931
      dxy     :     0.021571
      f0      :     0.001585  f :     0.008659
      f+1     :     0.000725
      f-1     :     0.000756
      f+2     :     0.000458
      f-2     :     0.001047
      f+3     :     0.001872
      f-3     :     0.002216

 11 C s       :     3.285700  s :     3.285700
      pz      :     0.973739  p :     2.813938
      px      :     0.889786
      py      :     0.950413
      dz2     :     0.003028  d :     0.078294
      dxz     :     0.015736
      dyz     :     0.014024
      dx2y2   :     0.021878
      dxy     :     0.023628
      f0      :     0.001614  f :     0.008665
      f+1     :     0.000635
      f-1     :     0.000663
      f+2     :     0.001068
      f-2     :     0.000402
      f+3     :     0.002051
      f-3     :     0.002231

 12 H s       :     0.860920  s :     0.860920
      pz      :     0.006795  p :     0.023292
      px      :     0.010050
      py      :     0.006448

 13 H s       :     0.871188  s :     0.871188
      pz      :     0.005223  p :     0.022989
      px      :     0.008590
      py      :     0.009177

 14 H s       :     0.868232  s :     0.868232
      pz      :     0.008716  p :     0.023066
      px      :     0.006292
      py      :     0.008058

 15 H s       :     0.885786  s :     0.885786
      pz      :     0.006692  p :     0.023514
      px      :     0.010584
      py      :     0.006239

 16 H s       :     0.883481  s :     0.883481
      pz      :     0.009057  p :     0.023686
      px      :     0.006005
      py      :     0.008624

 17 H s       :     0.877541  s :     0.877541
      pz      :     0.005749  p :     0.023621
      px      :     0.013002
      py      :     0.004870

 18 H s       :     0.870018  s :     0.870018
      pz      :     0.005615  p :     0.023496
      px      :     0.005431
      py      :     0.012450

 19 H s       :     0.879806  s :     0.879806
      pz      :     0.005909  p :     0.023521
      px      :     0.008217
      py      :     0.009395

 20 H s       :     0.872365  s :     0.872365
      pz      :     0.005958  p :     0.024317
      px      :     0.008522
      py      :     0.009837

 21 H s       :     0.868903  s :     0.868903
      pz      :     0.005670  p :     0.023487
      px      :     0.005431
      py      :     0.012386

 22 H s       :     0.867959  s :     0.867959
      pz      :     0.005676  p :     0.023479
      px      :     0.013015
      py      :     0.004787

 23 H s       :     0.879215  s :     0.879215
      pz      :     0.005798  p :     0.023506
      px      :     0.008191
      py      :     0.009517



                     *******************************
                     * LOEWDIN POPULATION ANALYSIS *
                     *******************************

----------------------
LOEWDIN ATOMIC CHARGES
----------------------
   0 C :   -0.296413
   1 C :   -0.240646
   2 C :   -0.107572
   3 C :   -0.115646
   4 C :   -0.141646
   5 C :   -0.107040
   6 C :   -0.091196
   7 C :   -0.061911
   8 C :   -0.103909
   9 C :   -0.142340
  10 C :   -0.143115
  11 C :   -0.100869
  12 H :    0.120352
  13 H :    0.117424
  14 H :    0.120890
  15 H :    0.140499
  16 H :    0.138405
  17 H :    0.145654
  18 H :    0.143258
  19 H :    0.145696
  20 H :    0.147605
  21 H :    0.143099
  22 H :    0.142999
  23 H :    0.146421

-------------------------------
LOEWDIN REDUCED ORBITAL CHARGES
-------------------------------
  0 C s       :     2.840685  s :     2.840685
      pz      :     1.047374  p :     3.171509
      px      :     1.065610
      py      :     1.058525
      dz2     :     0.058036  d :     0.259827
      dxz     :     0.059806
      dyz     :     0.067292
      dx2y2   :     0.011658
      dxy     :     0.063036
      f0      :     0.005755  f :     0.024391
      f+1     :     0.003544
      f-1     :     0.003685
      f+2     :     0.004335
      f-2     :     0.003202
      f+3     :     0.001667
      f-3     :     0.002204

  1 C s       :     2.774086  s :     2.774086
      pz      :     1.020659  p :     3.034697
      px      :     1.004590
      py      :     1.009448
      dz2     :     0.063947  d :     0.393092
      dxz     :     0.079734
      dyz     :     0.107255
      dx2y2   :     0.062150
      dxy     :     0.080007
      f0      :     0.007527  f :     0.038772
      f+1     :     0.004703
      f-1     :     0.004859
      f+2     :     0.004723
      f-2     :     0.006030
      f+3     :     0.004466
      f-3     :     0.006464

  2 C s       :     2.712197  s :     2.712197
      pz      :     0.826159  p :     2.820741
      px      :     0.982099
      py      :     1.012483
      dz2     :     0.034268  d :     0.517902
      dxz     :     0.071413
      dyz     :     0.080531
      dx2y2   :     0.159745
      dxy     :     0.171945
      f0      :     0.004080  f :     0.056732
      f+1     :     0.004229
      f-1     :     0.004308
      f+2     :     0.007411
      f-2     :     0.006073
      f+3     :     0.014170
      f-3     :     0.016462

  3 C s       :     2.761942  s :     2.761942
      pz      :     0.898815  p :     2.921189
      px      :     0.979702
      py      :     1.042672
      dz2     :     0.028773  d :     0.389522
      dxz     :     0.017572
      dyz     :     0.074780
      dx2y2   :     0.152333
      dxy     :     0.116064
      f0      :     0.003227  f :     0.042993
      f+1     :     0.003246
      f-1     :     0.004413
      f+2     :     0.003048
      f-2     :     0.006207
      f+3     :     0.010392
      f-3     :     0.012461

  4 C s       :     2.768779  s :     2.768779
      pz      :     0.887312  p :     2.935130
      px      :     1.061328
      py      :     0.986490
      dz2     :     0.029170  d :     0.393769
      dxz     :     0.075213
      dyz     :     0.022276
      dx2y2   :     0.136556
      dxy     :     0.130554
      f0      :     0.003291  f :     0.043967
      f+1     :     0.004359
      f-1     :     0.003516
      f+2     :     0.004435
      f-2     :     0.005328
      f+3     :     0.010328
      f-3     :     0.012710

  5 C s       :     2.761824  s :     2.761824
      pz      :     0.892279  p :     2.915692
      px      :     1.032794
      py      :     0.990619
      dz2     :     0.025238  d :     0.386474
      dxz     :     0.053052
      dyz     :     0.042457
      dx2y2   :     0.103270
      dxy     :     0.162458
      f0      :     0.003435  f :     0.043050
      f+1     :     0.003969
      f-1     :     0.003473
      f+2     :     0.007069
      f-2     :     0.001884
      f+3     :     0.009924
      f-3     :     0.013296

  6 C s       :     2.695643  s :     2.695643
      pz      :     0.833985  p :     2.816167
      px      :     0.990482
      py      :     0.991700
      dz2     :     0.037018  d :     0.520887
      dxz     :     0.073470
      dyz     :     0.075396
      dx2y2   :     0.170072
      dxy     :     0.164931
      f0      :     0.004058  f :     0.058498
      f+1     :     0.004339
      f-1     :     0.004308
      f+2     :     0.007065
      f-2     :     0.006895
      f+3     :     0.013473
      f-3     :     0.018360

  7 C s       :     2.692049  s :     2.692049
      pz      :     0.845611  p :     2.804500
      px      :     0.970131
      py      :     0.988758
      dz2     :     0.036495  d :     0.508841
      dxz     :     0.070258
      dyz     :     0.071610
      dx2y2   :     0.165514
      dxy     :     0.164964
      f0      :     0.003894  f :     0.056521
      f+1     :     0.004228
      f-1     :     0.004251
      f+2     :     0.006510
      f-2     :     0.006872
      f+3     :     0.012794
      f-3     :     0.017972

  8 C s       :     2.760334  s :     2.760334
      pz      :     0.891036  p :     2.915267
      px      :     1.032708
      py      :     0.991522
      dz2     :     0.024859  d :     0.385610
      dxz     :     0.053960
      dyz     :     0.042754
      dx2y2   :     0.103410
      dxy     :     0.160626
      f0      :     0.003376  f :     0.042699
      f+1     :     0.003960
      f-1     :     0.003427
      f+2     :     0.007033
      f-2     :     0.002027
      f+3     :     0.009656
      f-3     :     0.013220

  9 C s       :     2.770043  s :     2.770043
      pz      :     0.890068  p :     2.936244
      px      :     1.058866
      py      :     0.987310
      dz2     :     0.028887  d :     0.392330
      dxz     :     0.072840
      dyz     :     0.022245
      dx2y2   :     0.137589
      dxy     :     0.130769
      f0      :     0.003288  f :     0.043723
      f+1     :     0.004348
      f-1     :     0.003471
      f+2     :     0.004486
      f-2     :     0.005075
      f+3     :     0.010116
      f-3     :     0.012939

 10 C s       :     2.769741  s :     2.769741
      pz      :     0.889621  p :     2.938336
      px      :     0.983967
      py      :     1.064748
      dz2     :     0.028269  d :     0.391168
      dxz     :     0.017342
      dyz     :     0.077441
      dx2y2   :     0.154216
      dxy     :     0.113900
      f0      :     0.003331  f :     0.043870
      f+1     :     0.003342
      f-1     :     0.004458
      f+2     :     0.002888
      f-2     :     0.006666
      f+3     :     0.009982
      f-3     :     0.013203

 11 C s       :     2.762789  s :     2.762789
      pz      :     0.884519  p :     2.909088
      px      :     0.999970
      py      :     1.024599
      dz2     :     0.025184  d :     0.386232
      dxz     :     0.050383
      dyz     :     0.045043
      dx2y2   :     0.105935
      dxy     :     0.159687
      f0      :     0.003407  f :     0.042760
      f+1     :     0.003742
      f-1     :     0.003666
      f+2     :     0.006997
      f-2     :     0.001895
      f+3     :     0.010444
      f-3     :     0.012609

 12 H s       :     0.816082  s :     0.816082
      pz      :     0.017371  p :     0.063566
      px      :     0.028896
      py      :     0.017300

 13 H s       :     0.819747  s :     0.819747
      pz      :     0.013897  p :     0.062829
      px      :     0.023864
      py      :     0.025069

 14 H s       :     0.816198  s :     0.816198
      pz      :     0.022551  p :     0.062912
      px      :     0.017009
      py      :     0.023353

 15 H s       :     0.799832  s :     0.799832
      pz      :     0.016197  p :     0.059668
      px      :     0.026995
      py      :     0.016476

 16 H s       :     0.800915  s :     0.800915
      pz      :     0.022321  p :     0.060680
      px      :     0.015903
      py      :     0.022456

 17 H s       :     0.794116  s :     0.794116
      pz      :     0.014797  p :     0.060230
      px      :     0.033342
      py      :     0.012091

 18 H s       :     0.796594  s :     0.796594
      pz      :     0.014222  p :     0.060149
      px      :     0.013867
      py      :     0.032059

 19 H s       :     0.793876  s :     0.793876
      pz      :     0.015199  p :     0.060428
      px      :     0.021100
      py      :     0.024128

 20 H s       :     0.790566  s :     0.790566
      pz      :     0.015485  p :     0.061829
      px      :     0.021162
      py      :     0.025182

 21 H s       :     0.796634  s :     0.796634
      pz      :     0.014365  p :     0.060266
      px      :     0.013893
      py      :     0.032008

 22 H s       :     0.796711  s :     0.796711
      pz      :     0.014390  p :     0.060290
      px      :     0.033677
      py      :     0.012223

 23 H s       :     0.793318  s :     0.793318
      pz      :     0.014939  p :     0.060261
      px      :     0.020950
      py      :     0.024373



                      *****************************
                      * MAYER POPULATION ANALYSIS *
                      *****************************

  NA   - Mulliken gross atomic population
  ZA   - Total nuclear charge
  QA   - Mulliken gross atomic charge
  VA   - Mayer's total valence
  BVA  - Mayer's bonded valence
  FA   - Mayer's free valence

  ATOM       NA         ZA         QA         VA         BVA        FA
  0 C      6.3311     6.0000    -0.3311     3.8979     3.8979    -0.0000
  1 C      6.1951     6.0000    -0.1951     3.8429     3.8429    -0.0000
  2 C      5.8501     6.0000     0.1499     3.5580     3.5580    -0.0000
  3 C      6.1674     6.0000    -0.1674     3.9039     3.9039    -0.0000
  4 C      6.0876     6.0000    -0.0876     3.8754     3.8754    -0.0000
  5 C      6.2345     6.0000    -0.2345     3.8926     3.8926    -0.0000
  6 C      5.8246     6.0000     0.1754     3.6755     3.6755     0.0000
  7 C      5.8923     6.0000     0.1077     3.5426     3.5426    -0.0000
  8 C      6.2496     6.0000    -0.2496     3.8813     3.8813    -0.0000
  9 C      6.1168     6.0000    -0.1168     3.9241     3.9241    -0.0000
 10 C      6.0968     6.0000    -0.0968     3.8847     3.8847     0.0000
 11 C      6.1866     6.0000    -0.1866     3.8681     3.8681     0.0000
 12 H      0.8842     1.0000     0.1158     0.9815     0.9815    -0.0000
 13 H      0.8942     1.0000     0.1058     0.9790     0.9790    -0.0000
 14 H      0.8913     1.0000     0.1087     0.9834     0.9834     0.0000
 15 H      0.9093     1.0000     0.0907     0.9816     0.9816    -0.0000
 16 H      0.9072     1.0000     0.0928     0.9787     0.9787    -0.0000
 17 H      0.9012     1.0000     0.0988     0.9765     0.9765     0.0000
 18 H      0.8935     1.0000     0.1065     0.9765     0.9765    -0.0000
 19 H      0.9033     1.0000     0.0967     0.9844     0.9844    -0.0000
 20 H      0.8967     1.0000     0.1033     0.9858     0.9858    -0.0000
 21 H      0.8924     1.0000     0.1076     0.9779     0.9779    -0.0000
 22 H      0.8914     1.0000     0.1086     0.9761     0.9761     0.0000
 23 H      0.9027     1.0000     0.0973     0.9825     0.9825     0.0000

  Mayer bond orders larger than 0.100000
B(  0-C ,  1-C ) :   0.9738 B(  0-C , 12-H ) :   0.9760 B(  0-C , 13-H ) :   0.9713 
B(  0-C , 14-H ) :   0.9733 B(  1-C ,  2-C ) :   0.8976 B(  1-C , 15-H ) :   0.9783 
B(  1-C , 16-H ) :   0.9661 B(  2-C ,  3-C ) :   1.4757 B(  2-C ,  7-C ) :   1.1543 
B(  3-C ,  4-C ) :   1.2637 B(  3-C , 17-H ) :   0.9768 B(  4-C ,  5-C ) :   1.5144 
B(  4-C , 18-H ) :   0.9733 B(  5-C ,  6-C ) :   1.1863 B(  5-C , 19-H ) :   0.9871 
B(  6-C ,  7-C ) :   1.2382 B(  6-C , 11-C ) :   1.2089 B(  7-C ,  8-C ) :   1.1536 
B(  8-C ,  9-C ) :   1.5545 B(  8-C , 20-H ) :   0.9807 B(  9-C , 10-C ) :   1.2624 
B(  9-C , 21-H ) :   0.9701 B( 10-C , 11-C ) :   1.5151 B( 10-C , 22-H ) :   0.9709 
B( 11-C , 23-H ) :   0.9844 

-------
TIMINGS
-------

Total SCF time: 0 days 0 hours 0 min 59 sec 

Total time                  ....      59.185 sec
Sum of individual times     ....      58.540 sec  ( 98.9%)

SCF preparation             ....       0.302 sec  (  0.5%)
Fock matrix formation       ....      56.524 sec  ( 95.5%)
  Startup                   ....       0.076 sec  (  0.1% of F)
  Split-RI-J                ....       9.399 sec  ( 16.6% of F)
  XC integration            ....      46.345 sec  ( 82.0% of F)
    XC Preparation          ....       0.000 sec  (  0.0% of XC)
    Basis function eval.    ....       6.878 sec  ( 14.8% of XC)
    Density eval.           ....      14.282 sec  ( 30.8% of XC)
    XC-Functional eval.     ....       2.453 sec  (  5.3% of XC)
    XC-Potential eval.      ....      21.693 sec  ( 46.8% of XC)
Diagonalization             ....       0.000 sec  (  0.0%)
Density matrix formation    ....       0.280 sec  (  0.5%)
Total Energy calculation    ....       0.038 sec  (  0.1%)
Population analysis         ....       0.047 sec  (  0.1%)
Orbital Transformation      ....       0.156 sec  (  0.3%)
Orbital Orthonormalization  ....       0.000 sec  (  0.0%)
DIIS solution               ....       0.776 sec  (  1.3%)
SOSCF solution              ....       0.416 sec  (  0.7%)
Finished LeanSCF after  59.3 sec

Maximum memory used throughout the entire LEANSCF-calculation: 60.0 MB

------------------------------------------------------------------------------
                         ORCA PROPERTY INTEGRAL CALCULATIONS
------------------------------------------------------------------------------

GBWName                                   ... vacuum_censo.gbw
Number of atoms                           ...     24
Number of basis functions                 ...    444
Max core memory                           ...   1024 MB

Dipole integrals                          ... YES
Quadrupole integrals                      ...  NO
Linear momentum integrals                 ...  NO
Angular momentum integrals                ...  NO
Higher moments length integrals           ...  NO
Higher moments velocity integrals         ...  NO
Kinetic energy integrals                  ...  NO
GIAO right hand sides                     ...  NO
GIAO dipole derivative integrals          ...  NO
SOC integrals                             ...  NO
EPR diamagnetic integrals (GIAO)          ...  NO
EPR gauge integrals                       ...  NO
Field gradient integrals                  ...  NO (   0 nuclei)
Spin-dipole/Fermi contact integrals       ...  NO (   0 nuclei)
Contact density integrals                 ...  NO (   0 nuclei)
Nucleus-orbit integrals                   ...  NO (   0 nuclei)
Geometric perturbations                   ... YES (  24 nuclei)

Choice of electric origin   ... Center of mass
Position of electric origin ... (  0.0034,  0.0067,  0.0017) 
Choice of magnetic origin   ... GIAO
Position of magnetic origin ... (  0.0000,  0.0000,  0.0000) 

Calculating integrals                     ... Electric Dipole (Length)     done (  0.1 sec)
Calculating integrals                     ... Geometrical perturbation right hand sides

-----------------------
GEOMETRIC PERTURBATIONS (24 nuclei)
-----------------------

MaxCore                            ...   1024 MB
Number of batches                  ...      1

BATCH   0: Atoms    0 -   23 ( 72 perturbations)
   => H(core) and overlap derivative integrals     ... done (     1.3 sec)
   => Making and storing internal U-coefficients   ... done (     0.9 sec)
   => RI-J derivative integrals                    ... done (    15.4 sec)
   => RI-J response operators                      ... done (     3.8 sec)
   => XC derivative integrals                      ... done (   753.4 sec)
   => XC response operators                        ... done (   242.1 sec)
   => Completing and storing right hand sides      ... done (     0.4 sec)
   => Total time for right hand sides = 1021.7 sec

  geometrical perturbations done (1022.0 sec)

Property integrals calculated in 1022.1 sec

Maximum memory used throughout the entire PROPINT-calculation: 408.7 MB


-------------------------------------------------------------------------------
                          DFT DISPERSION CORRECTION                            
                                                                               
                                DFTD4 V3.4.0                                   
-------------------------------------------------------------------------------
The R2SCAN3C composite method is recognized
Using three-body term ABC
Active option DFTDOPT                   ...         5   

-------------------------   ----------------
Dispersion correction           -0.009671391
-------------------------   ----------------

------------------   -----------------
gCP correction             0.006637309
------------------   -----------------

-------------------------   --------------------
FINAL SINGLE POINT ENERGY      -464.423565291947
-------------------------   --------------------

------------------------------------------------------------------------------
                            ORCA SCF RESPONSE CALCULATION
------------------------------------------------------------------------------

GBWName                                 ... vacuum_censo.gbw
Number of atoms                         ...     24
Number of basis functions               ...    444
Max core memory                         ...   1024 MB

Electric field perturbation             ...  NO
Quadrupolar field perturbation          ...  NO
Magnetic field perturbation (no GIAO)   ...  NO
Magnetic field perturbation (with GIAO) ...  NO
Linear momentum (velocity) perturbation ...  NO
Spin-orbit coupling perturbation        ...  NO
Choice of electric origin               ... Center of mass
Position of electric origin             ...     0.003407     0.006689     0.001699
Choice of magnetic origin               ... GIAO
Position of magnetic origin             ...     0.000000     0.000000     0.000000
Nuclear geometric perturbations         ... YES (  72 perturbations)
Nucleus-orbit perturbations             ...  NO (   0 perturbations)
Spin-dipole/Fermi contact perturbations ...  NO (   0 perturbations)

Total number of real perturbations      ...     72
Total number of imaginary perturbations ...      0
Total number of triplet perturbations   ...      0
Total number of SOC perturbations       ...      0


                                **********************
                                * REAL PERTURBATIONS *
                                **********************



-------------------
SHARK CP-SCF DRIVER
-------------------

Dimension of the orbital basis          ...    444
Dimension of the CPSCF-problem          ...  16884
Number of operators                     ...      1
Max. number of iterations               ...    128
Convergence Tolerance                   ... 1.0e-03
Number of perturbations                 ...     72
Perturbation type                       ... REAL

----------------------------
POPLE LINEAR EQUATION SOLVER
----------------------------

  ITERATION   0:   ||err||_max =   4.0845e-01 (  83.0 sec   0/ 72 done)
  ITERATION   1:   ||err||_max =   5.9549e-02 (  88.7 sec   0/ 72 done)
  ITERATION   2:   ||err||_max =   1.7983e-02 (  90.2 sec   0/ 72 done)
  ITERATION   3:   ||err||_max =   5.6414e-03 (  89.0 sec  10/ 72 done)
  ITERATION   4:   ||err||_max =   1.8794e-03 (  78.8 sec  48/ 72 done)
  ITERATION   5:   ||err||_max =   8.1406e-04 (  31.1 sec  72/ 72 done)

CP-SCF equations solved in 465.2 sec
Response densities calculated in   0.3 sec

Maximum memory used throughout the entire SCFRESP-calculation: 295.0 MB

------------------------------------------------------------------------------
                              ORCA PROPERTY CALCULATIONS
------------------------------------------------------------------------------

GBWName                                 ... vacuum_censo.gbw
Number of atoms                         ...     24
Number of basis functions               ...    444
Max core memory                         ...   1024 MB

Electric properties:
Dipole moment                           ... YES
Quadrupole moment                       ...  NO
Static polarizability (Dipole/Dipole)   ...  NO
Static polarizability (Dipole/Quad.)    ...  NO
Static polarizability (Quad./Quad.)     ...  NO
Static polarizability (Velocity)        ...  NO

Atomic electric properties:
Dipole moment                           ...  NO
Quadrupole moment                       ...  NO
Static polarizability                   ...  NO

Choice of electric origin               ... Center of mass
Position of electric origin             ...     0.003407     0.006689     0.001699

General magnetic properties:
Magnetizability                         ...  NO

EPR properties:
g-Tensor (aka g-matrix)                 ...  NO
Zero-Field splitting spin-orbit         ...  NO
Zero-field splitting spin-spin          ...  NO
Hyperfine couplings                     ...  NO (   0 nuclei)
Quadrupole couplings                    ...  NO (   0 nuclei)
Contact density                         ...  NO (   0 nuclei)

NMR properties:
Chemical shifts                         ...  NO (   0 nuclei)
Spin-rotation constants                 ...  NO (   0 nuclei)
Spin-spin couplings                     ...  NO (   0 nuclei,    0 pairs)

Choice of magnetic origin               ... GIAO
Position of magnetic origin             ...     0.000000     0.000000     0.000000

Properties with geometric perturbations:
SCF Hessian                             ... YES
IR spectrum                             ... YES
VCD spectrum                            ...  NO
X-ray spectroscopy properties:
SCF XES/XAS/RIXS spectra                ...  NO


-------------
DIPOLE MOMENT
-------------

Method             : SCF
Type of density    : Electron Density
Multiplicity       :   1
Irrep              :   0
Energy             :  -464.4205312100239098 Eh
Relativity type    : 
Basis              : AO
                                X                 Y                 Z
Electronic contribution:      6.448488972       4.351564706      -1.356029055
Nuclear contribution   :     -6.569202166      -4.446199031       1.363249820
                        -----------------------------------------
Total Dipole Moment    :     -0.120713194      -0.094634324       0.007220766
                        -----------------------------------------
Magnitude (a.u.)       :      0.153556081
Magnitude (Debye)      :      0.390308539



--------------------
Rotational spectrum 
--------------------
 
Rotational constants in cm-1:             0.046307             0.030668             0.019406 
Rotational constants in MHz :          1388.236790           919.393072           581.771607 

Dipole components along the rotational axes: 
x,y,z [a.u.] :    -0.121613    -0.093503     0.006852 
x,y,z [Debye]:    -0.309116    -0.237665     0.017416 

 

Dipole moment calculation done in   0.0 sec 

-----------
SCF HESSIAN
-----------

Occupied/Occupied contributions to the Hessian:
   => Occupied/Occupied contributions              ... done (  0.0 sec)
Perturbed density contributions to the Hessian:
   => Perturbed density contributions              ... done (  0.1 sec)
Explicit contributions to the Hessian:
   => Nuclear repulsion Hessian                    ... done (  0.0 sec)
   => HCore and overlap Hessian                    ... done ( 55.1 sec)
   => RI-J Hessian                                 ... done ( 29.5 sec)
   => XC-Hessian                                   ... done (190.9 sec)
   => Van der Waals-Hessian                        ... done (  3.3 sec)
   => GCP-Hessian                                  ... done (  0.1 sec)
   => Explicit contributions done
Dipole derivatives                                 ... done (  0.3 sec)
Mass weighting the Hessian           ... done
Calculating normal modes             ... done
Scaling frequencies                  ... done

-----------------------
VIBRATIONAL FREQUENCIES
-----------------------

Scaling factor for frequencies =  1.000000000  (already applied!)

     0:       0.00 cm**-1
     1:       0.00 cm**-1
     2:       0.00 cm**-1
     3:       0.00 cm**-1
     4:       0.00 cm**-1
     5:       0.00 cm**-1
     6:      92.20 cm**-1
     7:     106.48 cm**-1
     8:     170.29 cm**-1
     9:     191.02 cm**-1
    10:     220.31 cm**-1
    11:     302.78 cm**-1
    12:     330.92 cm**-1
    13:     431.63 cm**-1
    14:     448.11 cm**-1
    15:     474.75 cm**-1
    16:     490.03 cm**-1
    17:     523.63 cm**-1
    18:     565.91 cm**-1
    19:     592.77 cm**-1
    20:     660.15 cm**-1
    21:     708.95 cm**-1
    22:     735.96 cm**-1
    23:     789.37 cm**-1
    24:     793.07 cm**-1
    25:     809.76 cm**-1
    26:     816.42 cm**-1
    27:     866.82 cm**-1
    28:     872.14 cm**-1
    29:     902.82 cm**-1
    30:     944.21 cm**-1
    31:     955.13 cm**-1
    32:     963.39 cm**-1
    33:     966.66 cm**-1
    34:    1027.85 cm**-1
    35:    1050.32 cm**-1
    36:    1074.82 cm**-1
    37:    1102.60 cm**-1
    38:    1111.48 cm**-1
    39:    1168.14 cm**-1
    40:    1185.88 cm**-1
    41:    1190.82 cm**-1
    42:    1242.00 cm**-1
    43:    1252.63 cm**-1
    44:    1278.00 cm**-1
    45:    1288.32 cm**-1
    46:    1340.35 cm**-1
    47:    1387.84 cm**-1
    48:    1396.32 cm**-1
    49:    1397.02 cm**-1
    50:    1425.56 cm**-1
    51:    1469.55 cm**-1
    52:    1486.52 cm**-1
    53:    1490.03 cm**-1
    54:    1490.75 cm**-1
    55:    1503.80 cm**-1
    56:    1545.44 cm**-1
    57:    1612.98 cm**-1
    58:    1630.44 cm**-1
    59:    1653.27 cm**-1
    60:    3011.61 cm**-1
    61:    3018.77 cm**-1
    62:    3058.12 cm**-1
    63:    3090.55 cm**-1
    64:    3098.02 cm**-1
    65:    3147.62 cm**-1
    66:    3152.18 cm**-1
    67:    3156.78 cm**-1
    68:    3162.59 cm**-1
    69:    3175.80 cm**-1
    70:    3177.09 cm**-1
    71:    3188.17 cm**-1


------------
NORMAL MODES
------------

These modes are the Cartesian displacements weighted by the diagonal matrix
M(i,i)=1/sqrt(m[i]) where m[i] is the mass of the displaced atom
Thus, these vectors are normalized but *not* orthogonal

                  0          1          2          3          4          5    
      0       0.000000   0.000000   0.000000   0.000000   0.000000   0.000000
      1       0.000000   0.000000   0.000000   0.000000   0.000000   0.000000
      2       0.000000   0.000000   0.000000   0.000000   0.000000   0.000000
      3       0.000000   0.000000   0.000000   0.000000   0.000000   0.000000
      4       0.000000   0.000000   0.000000   0.000000   0.000000   0.000000
      5       0.000000   0.000000   0.000000   0.000000   0.000000   0.000000
      6       0.000000   0.000000   0.000000   0.000000   0.000000   0.000000
      7       0.000000   0.000000   0.000000   0.000000   0.000000   0.000000
      8       0.000000   0.000000   0.000000   0.000000   0.000000   0.000000
      9       0.000000   0.000000   0.000000   0.000000   0.000000   0.000000
     10       0.000000   0.000000   0.000000   0.000000   0.000000   0.000000
     11       0.000000   0.000000   0.000000   0.000000   0.000000   0.000000
     12       0.000000   0.000000   0.000000   0.000000   0.000000   0.000000
     13       0.000000   0.000000   0.000000   0.000000   0.000000   0.000000
     14       0.000000   0.000000   0.000000   0.000000   0.000000   0.000000
     15       0.000000   0.000000   0.000000   0.000000   0.000000   0.000000
     16       0.000000   0.000000   0.000000   0.000000   0.000000   0.000000
     17       0.000000   0.000000   0.000000   0.000000   0.000000   0.000000
     18       0.000000   0.000000   0.000000   0.000000   0.000000   0.000000
     19       0.000000   0.000000   0.000000   0.000000   0.000000   0.000000
     20       0.000000   0.000000   0.000000   0.000000   0.000000   0.000000
     21       0.000000   0.000000   0.000000   0.000000   0.000000   0.000000
     22       0.000000   0.000000   0.000000   0.000000   0.000000   0.000000
     23       0.000000   0.000000   0.000000   0.000000   0.000000   0.000000
     24       0.000000   0.000000   0.000000   0.000000   0.000000   0.000000
     25       0.000000   0.000000   0.000000   0.000000   0.000000   0.000000
     26       0.000000   0.000000   0.000000   0.000000   0.000000   0.000000
     27       0.000000   0.000000   0.000000   0.000000   0.000000   0.000000
     28       0.000000   0.000000   0.000000   0.000000   0.000000   0.000000
     29       0.000000   0.000000   0.000000   0.000000   0.000000   0.000000
     30       0.000000   0.000000   0.000000   0.000000   0.000000   0.000000
     31       0.000000   0.000000   0.000000   0.000000   0.000000   0.000000
     32       0.000000   0.000000   0.000000   0.000000   0.000000   0.000000
     33       0.000000   0.000000   0.000000   0.000000   0.000000   0.000000
     34       0.000000   0.000000   0.000000   0.000000   0.000000   0.000000
     35       0.000000   0.000000   0.000000   0.000000   0.000000   0.000000
     36       0.000000   0.000000   0.000000   0.000000   0.000000   0.000000
     37       0.000000   0.000000   0.000000   0.000000   0.000000   0.000000
     38       0.000000   0.000000   0.000000   0.000000   0.000000   0.000000
     39       0.000000   0.000000   0.000000   0.000000   0.000000   0.000000
     40       0.000000   0.000000   0.000000   0.000000   0.000000   0.000000
     41       0.000000   0.000000   0.000000   0.000000   0.000000   0.000000
     42       0.000000   0.000000   0.000000   0.000000   0.000000   0.000000
     43       0.000000   0.000000   0.000000   0.000000   0.000000   0.000000
     44       0.000000   0.000000   0.000000   0.000000   0.000000   0.000000
     45       0.000000   0.000000   0.000000   0.000000   0.000000   0.000000
     46       0.000000   0.000000   0.000000   0.000000   0.000000   0.000000
     47       0.000000   0.000000   0.000000   0.000000   0.000000   0.000000
     48       0.000000   0.000000   0.000000   0.000000   0.000000   0.000000
     49       0.000000   0.000000   0.000000   0.000000   0.000000   0.000000
     50       0.000000   0.000000   0.000000   0.000000   0.000000   0.000000
[...]
     63      -0.080026   0.032246   0.267759   0.025196  -0.085266   0.159209
     64       0.222282  -0.089321  -0.744257  -0.073136   0.250810  -0.440511
     65       0.017547  -0.007042  -0.058734  -0.005930   0.020495  -0.034376
     66       0.456522  -0.105785  -0.278096   0.160127  -0.740122   0.274618
     67      -0.090153   0.020943   0.060016  -0.031790   0.149823  -0.052882
     68       0.043569  -0.010080  -0.025942   0.015253  -0.070180   0.026301
     69      -0.529850   0.065912  -0.273419   0.024440  -0.199320   0.062724
     70      -0.621844   0.073133  -0.320871   0.031669  -0.238127   0.075904
     71      -0.134105   0.016194  -0.069217   0.006514  -0.050923   0.016201


-----------
IR SPECTRUM
-----------

 Mode   freq       eps      Int      T**2         TX        TY        TZ
       cm**-1   L/(mol*cm) km/mol    a.u.
----------------------------------------------------------------------------
  6:     92.20   0.000015    0.07  0.000049  (-0.002188  0.001758 -0.006422)
  7:    106.48   0.000049    0.25  0.000145  (-0.002457 -0.001522  0.011679)
  8:    170.29   0.000516    2.61  0.000945  ( 0.004605  0.004851 -0.030009)
  9:    191.02   0.000007    0.03  0.000011  ( 0.000836 -0.002167  0.002413)
 10:    220.31   0.000017    0.08  0.000023  (-0.001538  0.001344  0.004390)
 11:    302.78   0.000224    1.13  0.000231  (-0.002735 -0.004774 -0.014166)
 12:    330.92   0.000290    1.47  0.000273  (-0.008347 -0.008602  0.011389)
 13:    431.63   0.001555    7.86  0.001124  ( 0.006766  0.003651 -0.032633)
 14:    448.11   0.000198    1.00  0.000138  (-0.010176 -0.005070 -0.002901)
 15:    474.75   0.000024    0.12  0.000016  (-0.003789 -0.001234 -0.000383)
 16:    490.03   0.000447    2.26  0.000285  ( 0.006757  0.000237  0.015458)
 17:    523.63   0.000076    0.38  0.000045  ( 0.004196 -0.002536  0.004590)
 18:    565.91   0.000375    1.89  0.000207  ( 0.003817 -0.002914  0.013548)
 19:    592.77   0.000531    2.69  0.000280  ( 0.009861 -0.001202 -0.013458)
 20:    660.15   0.000151    0.76  0.000071  ( 0.004630 -0.000087 -0.007072)
 21:    708.95   0.000352    1.78  0.000155  ( 0.011291 -0.004308  0.002971)
 22:    735.96   0.000378    1.91  0.000160  (-0.002870 -0.000583  0.012316)
 23:    789.37   0.013621   68.83  0.005385  ( 0.010547  0.006307 -0.072345)
 24:    793.07   0.003792   19.17  0.001492  ( 0.003711  0.010539 -0.036979)
 25:    809.76   0.002195   11.09  0.000846  (-0.003842 -0.000684  0.028819)
 26:    816.42   0.000163    0.83  0.000062  ( 0.007882  0.000087  0.000595)
 27:    866.82   0.000253    1.28  0.000091  (-0.009408  0.000655  0.001493)
 28:    872.14   0.000370    1.87  0.000132  ( 0.001044  0.000314  0.011455)
 29:    902.82   0.000004    0.02  0.000001  (-0.000732 -0.000612 -0.000580)
 30:    944.21   0.000083    0.42  0.000027  ( 0.001643  0.000318 -0.004950)
 31:    955.13   0.000142    0.72  0.000046  ( 0.000929  0.001310 -0.006624)
 32:    963.39   0.000371    1.87  0.000120  ( 0.007981  0.007481  0.000623)
 33:    966.66   0.000052    0.26  0.000017  (-0.002382 -0.001546 -0.002952)
 34:   1027.85   0.001010    5.10  0.000307  ( 0.017282 -0.002729  0.000706)
 35:   1050.32   0.000907    4.58  0.000269  (-0.012400  0.010748  0.000305)
 36:   1074.82   0.001355    6.85  0.000393  ( 0.012585  0.014904  0.003594)
 37:   1102.60   0.000403    2.04  0.000114  (-0.009124  0.005204 -0.001947)
 38:   1111.48   0.000410    2.07  0.000115  (-0.001951 -0.010479 -0.001188)
 39:   1168.14   0.000147    0.74  0.000039  (-0.005313 -0.002837 -0.001718)
 40:   1185.88   0.000109    0.55  0.000029  ( 0.005353  0.000207  0.000216)
 41:   1190.82   0.000472    2.38  0.000124  (-0.006267 -0.008317 -0.003889)
 42:   1242.00   0.000184    0.93  0.000046  (-0.003270  0.005960  0.000291)
 43:   1252.63   0.000130    0.65  0.000032  ( 0.004438 -0.003254 -0.001411)
 44:   1278.00   0.000217    1.10  0.000053  (-0.005457 -0.004821  0.000200)
 45:   1288.32   0.000555    2.80  0.000134  (-0.007612 -0.008728 -0.000514)
 46:   1340.35   0.000184    0.93  0.000043  ( 0.005799  0.002297 -0.002005)
 47:   1387.84   0.000101    0.51  0.000023  (-0.000593 -0.004685  0.000594)
 48:   1396.32   0.000616    3.11  0.000138  ( 0.001328  0.000899  0.011625)
 49:   1397.02   0.000341    1.72  0.000076  ( 0.005072 -0.007060  0.000783)
 50:   1425.56   0.001946    9.84  0.000426  (-0.017910 -0.010261 -0.000117)
 51:   1469.55   0.000169    0.86  0.000036  ( 0.005151  0.002245  0.002101)
 52:   1486.52   0.001751    8.85  0.000368  ( 0.013453 -0.013601 -0.001298)
 53:   1490.03   0.000240    1.21  0.000050  (-0.001671 -0.003783  0.005752)
 54:   1490.75   0.000017    0.08  0.000003  (-0.000642  0.001239 -0.001243)
 55:   1503.80   0.001337    6.76  0.000277  ( 0.009929  0.002366  0.013163)
 56:   1545.44   0.001531    7.74  0.000309  ( 0.007434 -0.015901 -0.001002)
 57:   1612.98   0.000377    1.90  0.000073  (-0.005259 -0.006663  0.000926)
 58:   1630.44   0.001168    5.90  0.000224  (-0.006364 -0.013419 -0.001742)
 59:   1653.27   0.000026    0.13  0.000005  ( 0.000211  0.002060 -0.000731)
 60:   3011.61   0.006921   34.98  0.000717  (-0.015960 -0.016262  0.014069)
 61:   3018.77   0.005692   28.77  0.000588  (-0.009029 -0.004938 -0.021967)
 62:   3058.12   0.001455    7.35  0.000148  (-0.010771  0.005667 -0.000584)
 63:   3090.55   0.007323   37.01  0.000739  (-0.013161 -0.020212 -0.012557)
 64:   3098.02   0.006156   31.11  0.000620  (-0.023294  0.008786 -0.000545)
 65:   3147.62   0.001673    8.45  0.000166  (-0.012531 -0.002381 -0.001773)
 66:   3152.18   0.000305    1.54  0.000030  ( 0.001934  0.005109  0.000611)
 67:   3156.78   0.002485   12.56  0.000246  (-0.014734 -0.004685 -0.002563)
 68:   3162.59   0.001752    8.85  0.000173  ( 0.005074  0.011956  0.002050)
 69:   3175.80   0.005125   25.90  0.000504  (-0.008590  0.020717  0.000761)
 70:   3177.09   0.004565   23.07  0.000448  ( 0.019999  0.006465  0.002572)
 71:   3188.17   0.002612   13.20  0.000256  (-0.003251  0.015570  0.001632)

* The epsilon (eps) is given for a Dirac delta lineshape.
** The dipole moment derivative (T) already includes vibrational overlap.

The first frequency considered to be a vibration is 6
The total number of vibrations considered is 66


--------------------------
THERMOCHEMISTRY AT 298.15K
--------------------------

Temperature         ...   298.15 K
Pressure            ...     1.00 atm
Total Mass          ...   156.23 AMU
Quasi RRHO          ...     True
Cut-Off Frequency   ...     1.00 cm^-1

Throughout the following assumptions are being made:
  (1) The electronic state is orbitally nondegenerate
  (2) There are no thermally accessible electronically excited states
  (3) Hindered rotations indicated by low frequency modes are not
      treated as such but are treated as vibrations and this may
      cause some error
  (4) All equations used are the standard statistical mechanics
      equations for an ideal gas
  (5) All vibrations are strictly harmonic

freq.      92.20  E(vib)   ...       0.47 
freq.     106.48  E(vib)   ...       0.45 
freq.     170.29  E(vib)   ...       0.38 
freq.     191.02  E(vib)   ...       0.36 
freq.     220.31  E(vib)   ...       0.33 
freq.     302.78  E(vib)   ...       0.26 
freq.     330.92  E(vib)   ...       0.24 
freq.     431.63  E(vib)   ...       0.18 
freq.     448.11  E(vib)   ...       0.17 
freq.     474.75  E(vib)   ...       0.15 
freq.     490.03  E(vib)   ...       0.15 
freq.     523.63  E(vib)   ...       0.13 
freq.     565.91  E(vib)   ...       0.11 
freq.     592.77  E(vib)   ...       0.10 
freq.     660.15  E(vib)   ...       0.08 
freq.     708.95  E(vib)   ...       0.07 
freq.     735.96  E(vib)   ...       0.06 
freq.     789.37  E(vib)   ...       0.05 
freq.     793.07  E(vib)   ...       0.05 
freq.     809.76  E(vib)   ...       0.05 
freq.     816.42  E(vib)   ...       0.05 
freq.     866.82  E(vib)   ...       0.04 
freq.     872.14  E(vib)   ...       0.04 
freq.     902.82  E(vib)   ...       0.03 
freq.     944.21  E(vib)   ...       0.03 
freq.     955.13  E(vib)   ...       0.03 
freq.     963.39  E(vib)   ...       0.03 
freq.     966.66  E(vib)   ...       0.03 
freq.    1027.85  E(vib)   ...       0.02 
freq.    1050.32  E(vib)   ...       0.02 
freq.    1074.82  E(vib)   ...       0.02 
freq.    1102.60  E(vib)   ...       0.02 
freq.    1111.48  E(vib)   ...       0.01 
freq.    1168.14  E(vib)   ...       0.01 
freq.    1185.88  E(vib)   ...       0.01 
freq.    1190.82  E(vib)   ...       0.01 
freq.    1242.00  E(vib)   ...       0.01 
freq.    1252.63  E(vib)   ...       0.01 
freq.    1278.00  E(vib)   ...       0.01 
freq.    1288.32  E(vib)   ...       0.01 
freq.    1340.35  E(vib)   ...       0.01 
freq.    1387.84  E(vib)   ...       0.00 
freq.    1396.32  E(vib)   ...       0.00 
freq.    1397.02  E(vib)   ...       0.00 
freq.    1425.56  E(vib)   ...       0.00 
freq.    1469.55  E(vib)   ...       0.00 
freq.    1486.52  E(vib)   ...       0.00 
freq.    1490.03  E(vib)   ...       0.00 
freq.    1490.75  E(vib)   ...       0.00 
freq.    1503.80  E(vib)   ...       0.00 
freq.    1545.44  E(vib)   ...       0.00 
freq.    1612.98  E(vib)   ...       0.00 
freq.    1630.44  E(vib)   ...       0.00 
freq.    1653.27  E(vib)   ...       0.00 
freq.    3011.61  E(vib)   ...       0.00 
freq.    3018.77  E(vib)   ...       0.00 
freq.    3058.12  E(vib)   ...       0.00 
freq.    3090.55  E(vib)   ...       0.00 
freq.    3098.02  E(vib)   ...       0.00 
freq.    3147.62  E(vib)   ...       0.00 
freq.    3152.18  E(vib)   ...       0.00 
freq.    3156.78  E(vib)   ...       0.00 
freq.    3162.59  E(vib)   ...       0.00 
freq.    3175.80  E(vib)   ...       0.00 
freq.    3177.09  E(vib)   ...       0.00 
freq.    3188.17  E(vib)   ...       0.00 

------------
INNER ENERGY
------------

The inner energy is: U= E(el) + E(ZPE) + E(vib) + E(rot) + E(trans)
    E(el)   - is the total energy from the electronic structure calculation
              = E(kin-el) + E(nuc-el) + E(el-el) + E(nuc-nuc)
    E(ZPE)  - the the zero temperature vibrational energy from the frequency calculation
    E(vib)  - the the finite temperature correction to E(ZPE) due to population
              of excited vibrational states
    E(rot)  - is the rotational thermal energy
    E(trans)- is the translational thermal energy

Summary of contributions to the inner energy U:
Electronic energy                ...   -464.42356529 Eh
Zero point energy                ...      0.20267874 Eh     127.18 kcal/mol
Thermal vibrational correction   ...      0.00687680 Eh       4.32 kcal/mol
Thermal rotational correction    ...      0.00141627 Eh       0.89 kcal/mol
Thermal translational correction ...      0.00141627 Eh       0.89 kcal/mol
-----------------------------------------------------------------------
Total thermal energy                   -464.21117721 Eh


Summary of corrections to the electronic energy:
(perhaps to be used in another calculation)
Total thermal correction                  0.00970934 Eh       6.09 kcal/mol
Non-thermal (ZPE) correction              0.20267874 Eh     127.18 kcal/mol
-----------------------------------------------------------------------
Total correction                          0.21238808 Eh     133.28 kcal/mol


--------
ENTHALPY
--------

The enthalpy is H = U + kB*T
                kB is Boltzmann's constant
Total thermal energy              ...   -464.21117721 Eh 
Thermal Enthalpy correction       ...      0.00094421 Eh       0.59 kcal/mol
-----------------------------------------------------------------------
Total Enthalpy                    ...   -464.21023300 Eh


Note: Only C1 symmetry has been detected, increase convergence thresholds 
      if your molecule has a higher symmetry. Symmetry factor of 1.0 is   
      used for the rotational entropy correction. 
 

Note: Rotational entropy computed according to Herzberg 
Infrared and Raman Spectra, Chapter V,1, Van Nostrand Reinhold, 1945 
Point Group:  C1, Symmetry Number:   1  
Rotational constants in cm-1:     0.046307     0.030668     0.019406 

Vibrational entropy computed according to the QRRHO of S. Grimme
Chem.Eur.J. 2012 18 9955 using a reference frequency of 100.0 cm-1


-------
ENTROPY
-------

The entropy contributions are T*S = T*(S(el)+S(vib)+S(rot)+S(trans))
     S(el)   - electronic entropy
     S(vib)  - vibrational entropy
     S(rot)  - rotational entropy
     S(trans)- translational entropy
The entropies will be listed as multiplied by the temperature to get
units of energy

Electronic entropy                ...      0.00000000 Eh      0.00 kcal/mol
Vibrational entropy               ...      0.01124422 Eh      7.06 kcal/mol
Rotational entropy                ...      0.01446738 Eh      9.08 kcal/mol
Translational entropy             ...      0.01950311 Eh     12.24 kcal/mol
-----------------------------------------------------------------------
Final entropy term                ...      0.04521471 Eh     28.37 kcal/mol

In case the symmetry of your molecule has not been determined correctly
or in case you have a reason to use a different symmetry number we print 
out the resulting rotational entropy values for sn=1,12:

 non-linear molecules -----------------------------------
|  sn= 1 | S(rot)=       0.01446738 Eh      9.08 kcal/mol|
|  sn= 2 | S(rot)=       0.01381293 Eh      8.67 kcal/mol|
|  sn= 3 | S(rot)=       0.01343009 Eh      8.43 kcal/mol|
|  sn= 4 | S(rot)=       0.01315847 Eh      8.26 kcal/mol|
|  sn= 5 | S(rot)=       0.01294778 Eh      8.12 kcal/mol|
|  sn= 6 | S(rot)=       0.01277564 Eh      8.02 kcal/mol|
|  sn= 7 | S(rot)=       0.01263009 Eh      7.93 kcal/mol|
|  sn= 8 | S(rot)=       0.01250401 Eh      7.85 kcal/mol|
|  sn= 9 | S(rot)=       0.01239281 Eh      7.78 kcal/mol|
|  sn=10 | S(rot)=       0.01229333 Eh      7.71 kcal/mol|
|  sn=11 | S(rot)=       0.01220334 Eh      7.66 kcal/mol|
|  sn=12 | S(rot)=       0.01212118 Eh      7.61 kcal/mol|
 linear molecules ---------------------------------------
|  Dinfh | S(rot)=       0.00904794 Eh      5.68 kcal/mol|
|  Cinfv | S(rot)=       0.00970240 Eh      6.09 kcal/mol|
 --------------------------------------------------------


-------------------
GIBBS FREE ENERGY
-------------------

The Gibbs free energy is G = H - T*S

Total enthalpy                    ...   -464.21023300 Eh 
Total entropy correction          ...     -0.04521471 Eh    -28.37 kcal/mol
-----------------------------------------------------------------------
Final Gibbs free energy         ...   -464.25544772 Eh

For completeness - the Gibbs free energy minus the electronic energy
G-E(el)                           ...      0.16811758 Eh    105.50 kcal/mol


Maximum memory used throughout the entire PROP-calculation: 98.8 MB

--------------------------------
SUGGESTED CITATIONS FOR THIS RUN
--------------------------------

Below you find a list of papers that are relevant to this ORCA run
We neither can nor want to force you to cite these papers, but we appreciate if you do
You receive ORCA, which is the product of decades of hard work by many enthusiastic individuals, for free
The only thing we kindly ask in return is that you cite our papers,
We deeply appreciate it, if you show your appreciation for ORCA by not just citing the generic ORCA reference.

Please note that relegating all ORCA citations to the supporting information does *not* help us.
SI sections are not indexed - citations you put there will not count into any citation statistics
But we need these citations in order to attract the funding resources that allow us to do what we are doing

Therefore, if you are a happy ORCA user, please consider citing a few of the papers listed below in the main body of your paper

In addition to the list printed below, the program has created the file vacuum_censo.bibtex that contains the list in bibtex format
You can import this file easily into all common literature databanks and citation aid programs


List of essential papers. We consider these as the minimum necessary citations

  1. Neese,F.
     Software update: the ORCA program system, version 5.0
     WIRES Comput. Molec. Sci., 2022 12(1)e1606
     doi.org/10.1002/wcms.1606
  2. Grimme,S.; Hansen,A.; Ehlert,S.; Mewes,J.
     r2SCAN-3c: A 'Swiss army knife' composite electronic-structure method
     J. Chem. Phys., 2021 154 064103
     doi.org/10.1063/5.0040021

List of papers to cite with high priority. The work reported in these papers was absolutely
necessary for this run to complete.
Our perspective: the developers of density functionals and basis sets usually get cited in chemistry papers
Good! But without the algorithms to do something with them, the functionals or basis sets would not do anything.
Hence, in our opinion, the algorithm design and method developments papers are equally worthy of getting cited

  1. Neese,F.
     An improvement of the resolution of the identity approximation for the formation of the Coulomb matrix
     J. Comp. Chem., 2003 24(14)1740-1747
     doi.org/10.1002/jcc.10318
  2. Bykov,D.; Petrenko,T.; Izsak,R.; Kossmann,S.; Becker,U.; Valeev,E.; Neese,F.
     Efficient implementation of the analytic second derivatives of Hartree-Fock and hybrid DFT energies: a detailed analysis of different approximations
     Molec. Phys., 2015 113 1961-1977
     doi.org/10.1080/00268976.2015.1025114
  3. Neese,F.
     The SHARK Integral Generation and Digestion System
     J. Comp. Chem., 2022  1-16
     doi.org/10.1002/jcc.26942
  4. Lehtola,S.; Steigemann,C.; Oliveira,M.; Marques,M.
     Recent developments in Libxc - A comprehensive library of functionals for density functional theory
     Software X, 2018 7 
     doi.org/10.1016/j.softx.2017.11.002
  5. Caldeweyher,E.; Bannwarth,C.; Grimme,S.
     Extension of the D3 dispersion coefficient model
     J. Chem. Phys., 2017 147 034112-XXXX
     doi.org/10.1063/1.4993215
  6. Caldeweyher,E.; Ehlert,S.; Hansen,A.; Neugebauer,H.; Spicher,S.; Bannwarth,C.; Grimme,S.
     A generally applicable atomic-charge dependent London dispersion correction
     J. Chem. Phys., 2019 150 154122-XXXX
     doi.org/10.1063/1.5090222
  7. Caldeweyher,E.; Mewes,J.; Ehlert,S.; Grimme,S.
     Extension and evaluation of the D4 London-dispersion model for periodic systems
     Phys. Chem. Chem. Phys., 2020 22(16)8499-8512
     doi.org/10.1039/D0CP00502A

List of suggested additional citations. These are papers that are important in the 'surrounding' of 
of this run, or papers that preceded the highly important papers. If you like your results we are grateful for a citation.

  1. Neese,F.
     The ORCA program system
     WIRES Comput. Molec. Sci., 2012 2(1)73-78
     doi.org/10.1002/wcms.81
  2. Neese,F.
     Software update: the ORCA program system, version 4.0
     WIRES Comput. Molec. Sci., 2018 8(1)1-6
     doi.org/10.1002/wcms.1327
  3. Neese,F.; Wennmohs,F.; Becker,U.; Riplinger,C.
     The ORCA quantum chemistry program package
     J. Chem. Phys., 2020 152 Art. No. L224108
     doi.org/10.1063/5.0004608

List of optional additional citations

  1. Neese,F.
     Approximate second-order SCF convergence for spin unrestricted wavefunctions
     Chem. Phys. Lett., 2000 325(1-3)93-98
     doi.org/10.1016/s0009-2614(00)00662-x

Timings for individual modules:

Sum of individual times          ...     1833.476 sec (=  30.558 min)
Startup calculation              ...        1.928 sec (=   0.032 min)   0.1 %
SCF iterations                   ...       61.840 sec (=   1.031 min)   3.4 %
Property integrals               ...     1022.177 sec (=  17.036 min)  55.8 %
SCF Response                     ...      467.918 sec (=   7.799 min)  25.5 %
Property calculations            ...      279.613 sec (=   4.660 min)  15.3 %
                             ****ORCA TERMINATED NORMALLY****
TOTAL RUN TIME: 0 days 0 hours 30 minutes 34 seconds 241 msec
