
                                 *****************
                                 * O   R   C   A *
                                 *****************

                                            #,                                       
                                            ###                                      
                                            ####                                     
                                            #####                                    
                                            ######                                   
                                           ########,                                 
                                     ,,################,,,,,                         
                               ,,#################################,,                 
                          ,,##########################################,,             
                       ,#########################################, ''#####,          
                    ,#############################################,,   '####,        
                  ,##################################################,,,,####,       
                ,###########''''           ''''###############################       
              ,#####''   ,,,,##########,,,,          '''####'''          '####       
            ,##' ,,,,###########################,,,                        '##       
           ' ,,###''''                  '''############,,,                           
         ,,##''                                '''############,,,,        ,,,,,,###''
      ,#''                                            '''#######################'''  
     '                                                          ''''####''''         
             ,#######,   #######,   ,#######,      ##                                
            ,#'     '#,  ##    ##  ,#'     '#,    #''#        ,####,   ,####,        
            ##       ##  ##   ,#'  ##            #'  '#       #'       #'  '#        
            ##       ##  #######   ##           ,######,      #####,   #    #        
            '#,     ,#'  ##    ##  '#,     ,#' ,#      #,     #,   #   #,  ,#        
             '#######'   ##     ##  '#######'  #'      '#     '####' # '####'        



                #########################################################
                #                        -***-                          #
                #          Department of theory and spectroscopy        #
                #                                                       #
                #                      Frank Neese                      #
                #                                                       #
                #     Directorship, Architecture, Infrastructure        #
                #                    SHARK, DRIVERS                     #
                #        Core code/Algorithms in most modules           #
                #                                                       #
                #        Max Planck Institute fuer Kohlenforschung      #
                #                Kaiser Wilhelm Platz 1                 #
                #                 D-45470 Muelheim/Ruhr                 #
                #                      Germany                          #
                #                                                       #
                #                  All rights reserved                  #
                #                        -***-                          #
                #########################################################


                         Program Version 6.0.1  -  RELEASE   -


 With contributions from (in alphabetic order):
[Max-Planck-Institut fuer Kohlenforschung]                               
  Daniel Aravena         : Magnetic Suceptibility                        
  Michael Atanasov       : Ab Initio Ligand Field Theory (pilot matlab implementation)
  Alexander A. Auer      : GIAO ZORA, VPT2 properties, NMR spectrum      
  Ute Becker             : All parallelization in ORCA, NUMFREQ, NUMCALC 
  Giovanni Bistoni       : ED, misc. LED, open-shell LED, HFLD           
  Martin Brehm           : Molecular dynamics                            
  Dmytro Bykov           : pre 5.0 version of the SCF Hessian            
  Marcos Casanova-Páez   : Triplet and SCS-CIS(D). UHF-(DLPNO)-IP/EA/STEOM-CCSD. UHF-CVS-IP/STEOM-CCSD   
  Vijay G. Chilkuri      : MRCI spin determinant printing, contributions to CSF-ICE 
  Pauline Colinet        : FMM embedding                                 
  Dipayan Datta          : RHF DLPNO-CCSD density                        
  Achintya Kumar Dutta   : EOM-CC, STEOM-CC                              
  Nicolas Foglia         : Exact transition moments, OPA infrastructure, MCD improvements    
  Dmitry Ganyushin       : Spin-Orbit,Spin-Spin,Magnetic field MRCI      
  Miquel Garcia-Rates    : C-PCM and meta-GGA Hessian, CCSD/C-PCM, Gaussian charge scheme 
  Tiago L. C. Gouveia    : GS-ROHF, GS-ROCIS                             
  Yang Guo               : DLPNO-NEVPT2, F12-NEVPT2, CIM, IAO-localization        
  Andreas Hansen         : Spin unrestricted coupled pair/coupled cluster methods 
  Ingolf Harden          : AUTO-CI MPn and infrastructure                
  Benjamin Helmich-Paris : MC-RPA, TRAH-(SCF,CASSCF), AVAS, COSX integrals, SCF dyn. polar. 
  Lee Huntington         : MR-EOM, pCC                                   
  Robert Izsak           : Overlap fitted RIJCOSX, COSX-SCS-MP3, EOM     
  Riya Kayal             : Wick's Theorem for AUTO-CI, AUTO-CI UHF-CCSDT 
  Emily Kempfer          : AUTO-CI, RHF CISDT and CCSDT                  
  Christian Kollmar      : KDIIS, OOCD, Brueckner-CCSD(T), CCSD density, CASPT2, CASPT2-K, improved NEVPT2 
  Axel Koslowski         : Symmetry handling                             
  Simone Kossmann        : meta-GGA functionals, TD-DFT gradient, OOMP2, (MP2 Hessian; deprecated post 5.0) 
  Lucas Lang             : DCDCAS                                        
  Marvin Lechner         : AUTO-CI (C++ implementation), FIC-MRCC        
  Spencer Leger          : CASSCF response                               
  Dagmar Lenk            : GEPOL surface, SMD, ORCA-2-JSON               
  Dimitrios Liakos       : Extrapolation schemes; Compound Job, initial MDCI parallelization 
  Dimitrios Manganas     : Further ROCIS development; embedding schemes. LFT, Crystal Embedding 
  Dimitrios Pantazis     : SARC Basis sets                               
  Anastasios Papadopoulos: AUTO-CI, single reference methods and gradients 
  Taras Petrenko         : pre 6.0 DFT Hessian and TD-DFT gradient, (ASA, deprecated), ECA, 1-Electron XAS/XES, NRVS 
  Peter Pinski           : DLPNO-MP2, DLPNO-MP2 Gradient                 
  Christoph Reimann      : Effective Core Potentials                     
  Marius Retegan         : Local ZFS, SOC                                
  Christoph Riplinger    : Optimizer, TS searches, QM/MM, DLPNO-CCSD(T), (RO)-DLPNO pert. Triples 
  Michael Roemelt        : Original ROCIS implementation                 
  Masaaki Saitow         : Open-shell DLPNO-CCSD energy and density      
  Barbara Sandhoefer     : DKH picture change effects                    
  Kantharuban Sivalingam : CASSCF convergence/infrastructure, NEVPT2 and variants, FIC-MRCI 
  Bernardo de Souza      : ESD, SOC TD-DFT                               
  Georgi L. Stoychev     : AutoAux, RI-MP2 NMR, DLPNO-MP2 response, X2C  
  Van Anh Tran           : RI-MP2 g-tensors                              
  Willem Van den Heuvel  : Paramagnetic NMR                              
  Zikuan Wang            : NOTCH, Electric field optimization            
  Frank Wennmohs         : Technical directorship and infrastructure     
  Hang Xu                : AUTO-CI-Response properties                   
                                                                         
[FACCTs GmbH]                                                            
  Markus Bursch, Miquel Garcia-Rates, Christoph Riplinger, Bernardo de Souza, Georgi L. Stoychev 
                                                                 
  APM, Basis sets (HGBS, AHGBS, def-TZVP (Ac-Lr), def2-XVPD (La-Lu)), CI-OPT, improved COSX, DLPNO-Multilevel,           
  DOCKER, DRACO, updates on ESD, GOAT, IRC, LR-CPCM, MBIS, meta-GGA TD-DFT gradient, ML-optimized integration grids, 
  MM, NACMEs, nearIR, NEB, NEB-TS, NL-DFT gradient (VV10), 2- and 3-layer-ONIOM, interface openCOSMO-RS, QMMM,   
  Crystal-QMMM, SF, symmetry and pop. for TD-DFT, r2SCAN hybrids, SOLVATOR                                   
                                                                         
[Other institutions]                                                     
  V. Asgeirsson          : NEB                                           
  Christoph Bannwarth    : sTDA-DFT, sTD-DFT, PBEh-3c, B97-3c, D3        
  Sebastian Ehlert       : rSCAN, r2SCAN, r2SCAN-3c, D4, dhf basis sets  
  Marvin Friede          : D4 for Fr, Ra, Ac-Lr                          
  Lars Goerigk           : TD-DFT with DH, B97 family of functionals     
  Stefan Grimme          : VdW corrections, initial TS optimization, DFT functionals, gCP, sTDA/sTD-DF 
  Waldemar Hujo          : DFT-NL                                        
  H. Jonsson             : NEB                                           
  Holger Kruse           : gCP                                           
  Marcel Mueller         : wB97X-3c, vDZP basis set                      
  Hagen Neugebauer       : wr2SCAN                                       
  Tobias Risthaus        : range-separated hybrid DFT                    
  Lukas Wittmann         : regularized MP2, r2SCAN double-hybrids, wr2SCAN        
                                                                         
We gratefully acknowledge several colleagues who have allowed us to      
interface, adapt or use parts of their codes:                            
  Ed Valeev, F. Pavosevic, A. Kumar             : LibInt (2-el integral package), F12 methods 
  Garnet Chan, S. Sharma, J. Yang, R. Olivares  : DMRG                   
  Ulf Ekstrom                                   : XCFun DFT Library      
  Mihaly Kallay                                 : mrcc  (arbitrary order and MRCC methods)
  Frank Weinhold                                : gennbo (NPA and NBO analysis)           
  Simon Mueller                                 : openCOSMO-RS                            
  Christopher J. Cramer and Donald G. Truhlar   : smd solvation model                     
  S Lehtola, MJT Oliveira, MAL Marques          : LibXC Library                           
  Liviu Ungur et al                             : ANISO software                          


 Your calculation uses the libint2 library for the computation of 2-el integrals
 For citations please refer to: http://libint.valeyev.net

 Your ORCA version has been built with support for libXC version: 6.2.2
 For citations please refer to: https://libxc.gitlab.io

 This ORCA versions uses:
   CBLAS   interface :  Fast vector & matrix operations
   LAPACKE interface :  Fast linear algebra routines
   SCALAPACK package :  Parallel linear algebra routines
   Shared memory     :  Shared parallel matrices
   BLAS/LAPACK       :  OpenBLAS 0.3.27  USE64BITINT DYNAMIC_ARCH NO_AFFINITY Zen SINGLE_THREADED
        Core in use  :  Zen
   Copyright (c) 2011-2014, The OpenBLAS Project


Your calculation utilizes the geometrical counterpoise correction gCP
Please cite in your paper:
H.Kruse, S. Grimme J.Chem.Phys., 136, (2012), 154101 
   

Your calculation utilizes the atom-pairwise dispersion correction
based on EEQ partial charges (D4)


================================================================================

----- Orbital basis set information -----
Your calculation utilizes the basis: def2-SV(P)
   F. Weigend and R. Ahlrichs, Phys. Chem. Chem. Phys. 7, 3297 (2005).

----- AuxJ basis set information -----
Your calculation utilizes the auxiliary basis: def2/J
   F. Weigend, Phys. Chem. Chem. Phys. 8, 1057 (2006).

================================================================================
                                        WARNINGS
                       Please study these warnings very carefully!
================================================================================


================================================================================
                                       INPUT FILE
================================================================================
NAME = sp.inp
|  1> ! pbe def2-sv(p) def2/J RI DEFGRID1 loosescf d4 GCP(DFT/SV(P)) printgap
|  2> %output
|  3>     printlevel normal
|  4> end
|  5> * xyz 0 1
|  6> C -2.3790606595 -0.4065061975 -1.2005203603
|  7> C -1.7256531463 0.0617098385 0.06471985
|  8> C -2.3988332446 0.4796141114 1.1239253068
|  9> C -0.2426319337 0.0245785537 0.0501404878
| 10> C 0.485327085 1.1289839766 -0.3751969318
| 11> C 1.8679840474 1.0881509867 -0.4029382944
| 12> C 2.537371978 -0.0575396193 -0.0078399777
| 13> C 1.8186426525 -1.1620701687 0.4169551367
| 14> C 0.436106565 -1.122064652 0.4445082035
| 15> H -2.0845858748 -1.4339073174 -1.413799545
| 16> H -3.4621542532 -0.3556130598 -1.1232648701
| 17> H -2.0520824127 0.2091855528 -2.0382700949
| 18> H -1.8965603261 0.8095235762 2.0176521907
| 19> H -3.4757561551 0.5077047111 1.1387758753
| 20> H -0.0387992477 2.0236337535 -0.680451075
| 21> H 2.424788592 1.9530064377 -0.7338767178
| 22> H 3.6168882945 -0.0892167213 -0.0298703185
| 23> H 2.3369580112 -2.0575714874 0.7282845391
| 24> H -0.1265415642 -1.982129292 0.7792367894
| 25> *
| 26> 
| 27>                          ****END OF INPUT****
================================================================================

                       ****************************
                       * Single Point Calculation *
                       ****************************

---------------------------------
CARTESIAN COORDINATES (ANGSTROEM)
---------------------------------
  C     -2.379061   -0.406506   -1.200520
  C     -1.725653    0.061710    0.064720
  C     -2.398833    0.479614    1.123925
  C     -0.242632    0.024579    0.050140
  C      0.485327    1.128984   -0.375197
  C      1.867984    1.088151   -0.402938
  C      2.537372   -0.057540   -0.007840
  C      1.818643   -1.162070    0.416955
  C      0.436107   -1.122065    0.444508
  H     -2.084586   -1.433907   -1.413800
  H     -3.462154   -0.355613   -1.123265
  H     -2.052082    0.209186   -2.038270
  H     -1.896560    0.809524    2.017652
  H     -3.475756    0.507705    1.138776
  H     -0.038799    2.023634   -0.680451
  H      2.424789    1.953006   -0.733877
  H      3.616888   -0.089217   -0.029870
  H      2.336958   -2.057571    0.728285
  H     -0.126542   -1.982129    0.779237

----------------------------
CARTESIAN COORDINATES (A.U.)
----------------------------
  NO LB      ZA    FRAG     MASS         X           Y           Z
   0 C     6.0000    0    12.011   -4.495773   -0.768185   -2.268655
   1 C     6.0000    0    12.011   -3.261012    0.116615    0.122303
   2 C     6.0000    0    12.011   -4.533138    0.906339    2.123911
   3 C     6.0000    0    12.011   -0.458508    0.046447    0.094752
   4 C     6.0000    0    12.011    0.917135    2.133471   -0.709019
   5 C     6.0000    0    12.011    3.529978    2.056307   -0.761443
   6 C     6.0000    0    12.011    4.794938   -0.108734   -0.014815
   7 C     6.0000    0    12.011    3.436737   -2.195994    0.787931
   8 C     6.0000    0    12.011    0.824122   -2.120395    0.839999
   9 H     1.0000    0     1.008   -3.939296   -2.709692   -2.671694
  10 H     1.0000    0     1.008   -6.542523   -0.672011   -2.122663
  11 H     1.0000    0     1.008   -3.877874    0.395303   -3.851772
  12 H     1.0000    0     1.008   -3.583980    1.529778    3.812810
  13 H     1.0000    0     1.008   -6.568227    0.959423    2.151975
  14 H     1.0000    0     1.008   -0.073320    3.824114   -1.285866
  15 H     1.0000    0     1.008    4.582186    3.690647   -1.386826
  16 H     1.0000    0     1.008    6.834928   -0.168595   -0.056447
  17 H     1.0000    0     1.008    4.416211   -3.888247    1.376258
  18 H     1.0000    0     1.008   -0.239129   -3.745682    1.472544

--------------------------------
INTERNAL COORDINATES (ANGSTROEM)
--------------------------------
 C      0   0   0     0.000000000000     0.00000000     0.00000000
 C      1   0   0     1.498999808017     0.00000000     0.00000000
 C      2   1   0     1.322774215719   123.55393856     0.00000000
 C      2   1   3     1.483557618407   114.81094859   179.99777144
 C      4   2   1     1.389441467479   120.45402926    90.40866660
 C      5   4   2     1.383537925731   120.41553114   180.74077481
 C      6   5   4     1.384481796980   120.12489524     0.09928285
 C      7   6   5     1.384561471048   119.78374042   359.91460503
 C      8   7   6     1.383389188224   120.12071284     0.10722979
 H      1   2   3     1.089842406324   109.99006426   239.02270304
 H      1   2   3     1.087037375137   111.08199256   359.91745715
 H      1   2   3     1.089869589947   109.97255813   120.78873230
 H      3   2   1     1.076970790054   121.59651405   180.00242748
 H      3   2   1     1.077391561289   121.86829596     0.02672445
 H      5   4   2     1.080873132184   119.36083412     1.02367217
 H      6   5   4     1.080521398258   119.83482345   180.09946506
 H      7   6   5     1.080205652779   120.10802989   179.98287100
 H      8   7   6     1.080508870698   120.03608611   180.13537783
 H      9   8   7     1.080891913417   120.22367804   180.22249422

---------------------------
INTERNAL COORDINATES (A.U.)
---------------------------
 C      0   0   0     0.000000000000     0.00000000     0.00000000
 C      1   0   0     2.832699111952     0.00000000     0.00000000
 C      2   1   0     2.499681004721   123.55393856     0.00000000
 C      2   1   3     2.803517602682   114.81094859   179.99777144
 C      4   2   1     2.625663852649   120.45402926    90.40866660
 C      5   4   2     2.614507775525   120.41553114   180.74077481
 C      6   5   4     2.616291433691   120.12489524     0.09928285
 C      7   6   5     2.616441995859   119.78374042   359.91460503
 C      8   7   6     2.614226702372   120.12071284     0.10722979
 H      1   2   3     2.059503677086   109.99006426   239.02270304
 H      1   2   3     2.054202936346   111.08199256   359.91745715
 H      1   2   3     2.059555046688   109.97255813   120.78873230
 H      3   2   1     2.035179847434   121.59651405   180.00242748
 H      3   2   1     2.035974989833   121.86829596     0.02672445
 H      5   4   2     2.042554205342   119.36083412     1.02367217
 H      6   5   4     2.041889524550   119.83482345   180.09946506
 H      7   6   5     2.041292852067   120.10802989   179.98287100
 H      8   7   6     2.041865850891   120.03608611   180.13537783
 H      9   8   7     2.042589696727   120.22367804   180.22249422

---------------------
BASIS SET INFORMATION
---------------------
There are 2 groups of distinct atoms

 Group   1 Type C   : 7s4p1d contracted to 3s2p1d pattern {511/31/1}
 Group   2 Type H   : 4s contracted to 2s pattern {31}

Atom   0C    basis set group =>   1
Atom   1C    basis set group =>   1
Atom   2C    basis set group =>   1
Atom   3C    basis set group =>   1
Atom   4C    basis set group =>   1
Atom   5C    basis set group =>   1
Atom   6C    basis set group =>   1
Atom   7C    basis set group =>   1
Atom   8C    basis set group =>   1
Atom   9H    basis set group =>   2
Atom  10H    basis set group =>   2
Atom  11H    basis set group =>   2
Atom  12H    basis set group =>   2
Atom  13H    basis set group =>   2
Atom  14H    basis set group =>   2
Atom  15H    basis set group =>   2
Atom  16H    basis set group =>   2
Atom  17H    basis set group =>   2
Atom  18H    basis set group =>   2
---------------------------------
AUXILIARY/J BASIS SET INFORMATION
---------------------------------
There are 2 groups of distinct atoms

 Group   1 Type C   : 12s5p4d2f1g contracted to 6s4p3d1f1g pattern {711111/2111/211/2/1}
 Group   2 Type H   : 5s2p1d contracted to 3s1p1d pattern {311/2/1}

Atom   0C    basis set group =>   1
Atom   1C    basis set group =>   1
Atom   2C    basis set group =>   1
Atom   3C    basis set group =>   1
Atom   4C    basis set group =>   1
Atom   5C    basis set group =>   1
Atom   6C    basis set group =>   1
Atom   7C    basis set group =>   1
Atom   8C    basis set group =>   1
Atom   9H    basis set group =>   2
Atom  10H    basis set group =>   2
Atom  11H    basis set group =>   2
Atom  12H    basis set group =>   2
Atom  13H    basis set group =>   2
Atom  14H    basis set group =>   2
Atom  15H    basis set group =>   2
Atom  16H    basis set group =>   2
Atom  17H    basis set group =>   2
Atom  18H    basis set group =>   2
------------------------------------------------------------------------------
                             ORCA STARTUP CALCULATIONS
                           -- RI-GTO INTEGRALS CHOSEN --
------------------------------------------------------------------------------
------------------------------------------------------------------------------
                   ___                                                        
                  /   \      - P O W E R E D   B Y -                         
                 /     \                                                     
                 |  |  |   _    _      __       _____    __    __             
                 |  |  |  | |  | |    /  \     |  _  \  |  |  /  |          
                  \  \/   | |  | |   /    \    | | | |  |  | /  /          
                 / \  \   | |__| |  /  /\  \   | |_| |  |  |/  /          
                |  |  |   |  __  | /  /__\  \  |    /   |      \           
                |  |  |   | |  | | |   __   |  |    \   |  |\   \          
                \     /   | |  | | |  |  |  |  | |\  \  |  | \   \       
                 \___/    |_|  |_| |__|  |__|  |_| \__\ |__|  \__/        
                                                                              
                      - O R C A' S   B I G   F R I E N D -                    
                                      &                                       
                       - I N T E G R A L  F E E D E R -                       
                                                                              
 v1 FN, 2020, v2 2021, v3 2022-2024                                           
------------------------------------------------------------------------------


----------------------
SHARK INTEGRAL PACKAGE
----------------------

Number of atoms                             ...     19
Number of basis functions                   ...    146
Number of shells                            ...     74
Maximum angular momentum                    ...      2
Integral batch strategy                     ... SHARK/LIBINT Hybrid
RI-J (if used) integral strategy            ... SPLIT-RIJ (Revised 2003 algorithm where possible)
Printlevel                                  ...      1
Contraction scheme used                     ... SEGMENTED contraction
Prescreening option                         ... SCHWARTZ
   Thresh                                   ... 1.000e-09
   Tcut                                     ... 1.000e-10
   Tpresel                                  ... 1.000e-10 
Coulomb Range Separation                    ... NOT USED
Exchange Range Separation                   ... NOT USED
Multipole approximations                    ... NOT USED
Finite Nucleus Model                        ... NOT USED
CABS basis                                  ... NOT available
Auxiliary Coulomb fitting basis             ... AVAILABLE
   # of basis functions in Aux-J            ...    551
   # of shells in Aux-J                     ...    185
   Maximum angular momentum in Aux-J        ...      4
Auxiliary J/K fitting basis                 ... NOT available
Auxiliary Correlation fitting basis         ... NOT available
Auxiliary 'external' fitting basis          ... NOT available

Checking pre-screening integrals            ... done (  0.0 sec) Dimension = 74
Check shell pair data                       ... done (  0.0 sec)
Shell pair information
Shell pair cut-off parameter TPreSel        ...   1.0e-10
Total number of shell pairs                 ...      2775
Shell pairs after pre-screening             ...      2605
Total number of primitive shell pairs       ...     11173
Primitive shell pairs kept                  ...      7380
          la=0 lb=0:   1040 shell pairs
          la=1 lb=0:    815 shell pairs
          la=1 lb=1:    171 shell pairs
          la=2 lb=0:    382 shell pairs
          la=2 lb=1:    158 shell pairs
          la=2 lb=2:     39 shell pairs

Calculating one electron integrals          ... done (  0.0 sec)
Calculating RI/J V-Matrix + Cholesky decomp.... done (  0.0 sec)
Calculating Nuclear repulsion               ... done (  0.0 sec) ENN=    402.208814339062 Eh

Diagonalization of the overlap matrix:
Smallest eigenvalue                        ... 2.738e-04
Time for diagonalization                   ...    0.002 sec
Threshold for overlap eigenvalues          ... 1.000e-07
Number of eigenvalues below threshold      ... 0
Time for construction of square roots      ...    0.003 sec
Total time needed                          ...    0.006 sec

-------------------
DFT GRID GENERATION
-------------------

General Integration Accuracy     IntAcc      ... 4.159
Radial Grid Type                 RadialGrid  ... OptM3 with GC (2021)
Angular Grid (max. ang.)         AngularGrid ... 3 (Lebedev-194)
Angular grid pruning method      GridPruning ... 4 (adaptive)
Weight generation scheme         WeightScheme... mBecke (2022)
Basis function cutoff            BFCut       ... 1.0000e-10
Integration weight cutoff        WCut        ... 1.0000e-14
Partially contracted basis set               ... off
Rotationally invariant grid construction     ... off
Angular grids for H and He will be reduced by one unit

Total number of grid points                  ...    43418
Total number of batches                      ...      688
Average number of points per batch           ...       63
Average number of grid points per atom       ...     2285
Initializing property integral containers    ... done (  0.0 sec)

SHARK setup successfully completed in   0.4 seconds

Maximum memory used throughout the entire STARTUP-calculation: 21.3 MB
-------------------------------------------------------------------------------
                                 ORCA GUESS
                   Start orbitals & Density for SCF / CASSCF
-------------------------------------------------------------------------------

------------
SCF SETTINGS
------------
Hamiltonian:
 Density Functional     Method          .... DFT(GTOs)
 Exchange Functional    Exchange        .... PBE
   PBE kappa parameter   XKappa         ....  0.804000
   PBE mue parameter    XMuePBE         ....  0.219520
 Correlation Functional Correlation     .... PBE
   PBE beta parameter  CBetaPBE         ....  0.066725
 LDA part of GGA corr.  LDAOpt          .... PW91-LDA
 Gradients option       PostSCFGGA      .... off
   NL short-range parameter             ....  6.400000
 RI-approximation to the Coulomb term is turned on
   Number of AuxJ basis functions       .... 551


General Settings:
 Integral files         IntName         .... sp
 Hartree-Fock type      HFTyp           .... RHF
 Total Charge           Charge          ....    0
 Multiplicity           Mult            ....    1
 Number of Electrons    NEL             ....   64
 Basis Dimension        Dim             ....  146
 Nuclear Repulsion      ENuc            ....    402.2088143391 Eh

Convergence Acceleration:
 AO-DIIS                CNVDIIS         .... on
   Start iteration      DIISMaxIt       ....    12
   Startup error        DIISStart       ....  0.200000
   # of expansion vecs  DIISMaxEq       ....     5
   Bias factor          DIISBfac        ....   1.050
   Max. coefficient     DIISMaxC        ....  10.000
 MO-DIIS                CNVKDIIS        .... off
 Trust-Rad. Augm. Hess. CNVTRAH         .... auto
   Auto Start mean grad. ratio tolernc. ....  1.125000
   Auto Start start iteration           ....    50
   Auto Start num. interpolation iter.  ....    10
   Max. Number of Micro iterations      ....    24
   Max. Number of Macro iterations      .... Maxiter - #DIIS iter
   Number of Davidson start vectors     ....     2
   Converg. threshold    (grad. norm)   ....   1.000e-04
   Grad. Scal. Fac. for Micro threshold ....   0.100
   Minimum threshold for Micro iter.    ....   1.000e-02
   NR start threshold (gradient norm)   ....   1.000e-04
   Initial trust radius                 ....   0.400
   Minimum AH scaling param. (alpha)    ....   1.000
   Maximum AH scaling param. (alpha)    .... 1000.000
   Quad. conv. algorithm                .... NR
   White noise on init. David. guess    .... on
   Maximum white noise                  ....   0.010
   Pseudo random numbers                .... off
   Inactive MOs                         .... canonical
   Orbital update algorithm             .... Taylor
   Preconditioner                       .... Diag
   Full preconditioner red. dimension   ....   250
 SOSCF                  CNVSOSCF        .... on
   Start iteration      SOSCFMaxIt      ....   150
   Startup grad/error   SOSCFStart      ....  0.003300
   Hessian update       SOSCFHessUp     .... L-BFGS
 Level Shifting         CNVShift        .... on
   Level shift para.    LevelShift      ....    0.2500
   Turn off err/grad.   ShiftErr        ....    0.0010
 Zerner damping         CNVZerner       .... off
 Static damping         CNVDamp         .... on
   Fraction old density DampFac         ....    0.7000
   Max. Damping (<1)    DampMax         ....    0.9800
   Min. Damping (>=0)   DampMin         ....    0.0000
   Turn off err/grad.   DampErr         ....    0.1000

SCF Procedure:
 Maximum # iterations   MaxIter         ....   125
 SCF integral mode      SCFMode         .... Direct
   Integral package                     .... SHARK and LIBINT hybrid scheme
 Reset frequency        DirectResetFreq ....    20
 Integral Threshold     Thresh          ....  1.000e-09 Eh
 Primitive CutOff       TCut            ....  1.000e-10 Eh

Convergence Tolerance:
 Convergence Check Mode ConvCheckMode   .... Total+1el-Energy
 Convergence forced     ConvForced      .... 0
 Energy Change          TolE            ....  1.000e-05 Eh
 1-El. energy change                    ....  1.000e-02 Eh
 Orbital Gradient       TolG            ....  1.000e-04
 Orbital Rotation angle TolX            ....  1.000e-04
 DIIS Error             TolErr          ....  5.000e-04

------------------------------
INITIAL GUESS: MODEL POTENTIAL
------------------------------
Loading Hartree-Fock densities                     ... done
Calculating cut-offs                               ... done
Initializing the effective Hamiltonian             ... done
Setting up the integral package (SHARK)            ... done
Starting the Coulomb interaction                   ... done (   0.1 sec)
Making the grid                                    ... done (   0.2 sec)
Mapping shells                                     ... done
Starting the XC term evaluation                    ... done (   0.1 sec)
  promolecular density results
     # of electrons  =     63.998528912
     EX              =    -48.975654821
     EC              =     -2.093492256
     EX+EC           =    -51.069147077
Transforming the Hamiltonian                       ... done (   0.0 sec)
Diagonalizing the Hamiltonian                      ... done (   0.0 sec)
Back transforming the eigenvectors                 ... done (   0.0 sec)
Now organizing SCF variables                       ... done
                      ------------------
                      INITIAL GUESS DONE (   0.4 sec)
                      ------------------
             **** ENERGY FILE WAS UPDATED (sp.en.tmp) ****
Finished Guess after   0.5 sec
Maximum memory used throughout the entire GUESS-calculation: 16.7 MB

-------------------------------------------------------------------------------------------
                                      ORCA LEAN-SCF
                              memory conserving SCF solver
-------------------------------------------------------------------------------------------

----------------------------------------D-I-I-S--------------------------------------------
Iteration    Energy (Eh)           Delta-E    RMSDP     MaxDP     DIISErr   Damp  Time(sec)
-------------------------------------------------------------------------------------------
               ***  Starting incremental Fock matrix formation  ***
    1    -348.0225478870900133     0.00e+00  3.77e-03  7.86e-02  1.50e-01  0.700   0.5
    2    -348.1128544867518713    -9.03e-02  2.77e-03  4.61e-02  7.36e-02  0.700   0.4
                               ***Turning on AO-DIIS***
    3    -348.1479651325645364    -3.51e-02  1.12e-03  1.33e-02  2.37e-02  0.700   0.4
    4    -348.1678282367790871    -1.99e-02  1.98e-03  2.80e-02  9.55e-03  0.000   0.4
    5    -348.2113573757720815    -4.35e-02  4.09e-04  4.92e-03  4.82e-03  0.000   0.4
                              *** Initializing SOSCF ***
---------------------------------------S-O-S-C-F--------------------------------------
Iteration    Energy (Eh)           Delta-E    RMSDP     MaxDP     MaxGrad    Time(sec)
--------------------------------------------------------------------------------------
    6    -348.2116660514068371    -3.09e-04  1.54e-04  2.20e-03  9.12e-04     0.4
               *** Restarting incremental Fock matrix formation ***
    7    -348.2116814097879569    -1.54e-05  1.08e-04  2.13e-03  3.50e-04     0.5
    8    -348.2116720341288101     9.38e-06  5.50e-05  1.31e-03  9.70e-04     0.4
                 **** Energy Check signals convergence ****

               *****************************************************
               *                     SUCCESS                       *
               *           SCF CONVERGED AFTER   8 CYCLES          *
               *****************************************************

             **** ENERGY FILE WAS UPDATED (sp.en.tmp) ****

----------------
TOTAL SCF ENERGY
----------------

Total Energy       :       -348.21167203412881 Eh           -9475.32131 eV

Components:
Nuclear Repulsion  :        402.20881433906243 Eh           10944.65825 eV
Electronic Energy  :       -750.42048637319124 Eh          -20419.97957 eV
One Electron Energy:      -1265.37729004251628 Eh          -34432.66658 eV
Two Electron Energy:        514.95680366932504 Eh           14012.68702 eV

Virial components:
Potential Energy   :       -693.32858507982019 Eh          -18866.42995 eV
Kinetic Energy     :        345.11691304569143 Eh            9391.10864 eV
Virial Ratio       :          2.00896727709206

DFT components:
N(Alpha)           :       32.000065026768 electrons
N(Beta)            :       32.000065026768 electrons
N(Total)           :       64.000130053535 electrons
E(X)               :      -49.964075498585 Eh       
E(C)               :       -2.111400703607 Eh       
E(XC)              :      -52.075476202192 Eh       

---------------
SCF CONVERGENCE
---------------

  Last Energy change         ...   -9.3757e-06  Tolerance :   1.0000e-05
  Last MAX-Density change    ...    1.3056e-03  Tolerance :   1.0000e-03
  Last RMS-Density change    ...    5.5039e-05  Tolerance :   1.0000e-04
  Last DIIS Error            ...    9.1244e-04  Tolerance :   5.0000e-04
  Last Orbital Gradient      ...    9.6957e-04  Tolerance :   1.0000e-04
  Last Orbital Rotation      ...    1.2081e-03  Tolerance :   1.0000e-04


----------------
ORBITAL ENERGIES
----------------

  NO   OCC          E(Eh)            E(eV) 
   0   2.0000      -9.905144      -269.5327 
   1   2.0000      -9.903477      -269.4873 
   2   2.0000      -9.891923      -269.1729 
   3   2.0000      -9.891886      -269.1719 
   4   2.0000      -9.891036      -269.1488 
   5   2.0000      -9.890985      -269.1474 
   6   2.0000      -9.889548      -269.1083 
   7   2.0000      -9.884895      -268.9817 
   8   2.0000      -9.873485      -268.6712 
   9   2.0000      -0.781770       -21.2730 
  10   2.0000      -0.727099       -19.7854 
  11   2.0000      -0.669731       -18.2243 
  12   2.0000      -0.658136       -17.9088 
  13   2.0000      -0.615765       -16.7558 
  14   2.0000      -0.548315       -14.9204 
  15   2.0000      -0.542322       -14.7573 
  16   2.0000      -0.491176       -13.3656 
  17   2.0000      -0.449262       -12.2251 
  18   2.0000      -0.414657       -11.2834 
  19   2.0000      -0.409640       -11.1469 
  20   2.0000      -0.392158       -10.6711 
  21   2.0000      -0.388244       -10.5646 
  22   2.0000      -0.375258       -10.2113 
  23   2.0000      -0.366443        -9.9714 
  24   2.0000      -0.340378        -9.2622 
  25   2.0000      -0.327239        -8.9046 
  26   2.0000      -0.321180        -8.7398 
  27   2.0000      -0.302044        -8.2190 
  28   2.0000      -0.287319        -7.8183 
  29   2.0000      -0.231311        -6.2943 
  30   2.0000      -0.224360        -6.1051 
  31   2.0000      -0.222898        -6.0654 
  32   0.0000      -0.034788        -0.9466 
  33   0.0000      -0.033545        -0.9128 
  34   0.0000      -0.013868        -0.3774 
  35   0.0000       0.042113         1.1460 
  36   0.0000       0.059326         1.6144 
  37   0.0000       0.080030         2.1777 
  38   0.0000       0.087865         2.3909 
  39   0.0000       0.101064         2.7501 
  40   0.0000       0.105785         2.8785 
  41   0.0000       0.107969         2.9380 
  42   0.0000       0.109145         2.9700 
*Only the first 10 virtual orbitals were printed.

                    ********************************
                    * MULLIKEN POPULATION ANALYSIS *
                    ********************************

-----------------------
MULLIKEN ATOMIC CHARGES
-----------------------
   0 C :   -0.185558
   1 C :   -0.101709
   2 C :   -0.193648
   3 C :    0.067159
   4 C :   -0.088125
   5 C :   -0.050901
   6 C :   -0.045772
   7 C :   -0.050632
   8 C :   -0.088288
   9 H :    0.108672
  10 H :    0.097807
  11 H :    0.108795
  12 H :    0.092041
  13 H :    0.083067
  14 H :    0.044185
  15 H :    0.052729
  16 H :    0.053237
  17 H :    0.052703
  18 H :    0.044238
Sum of atomic charges:    0.0000000

--------------------------------
MULLIKEN REDUCED ORBITAL CHARGES
--------------------------------
  0 C s       :     3.003050  s :     3.003050
      pz      :     1.044973  p :     3.153396
      px      :     1.041556
      py      :     1.066866
      dz2     :     0.007150  d :     0.029113
      dxz     :     0.004098
      dyz     :     0.006849
      dx2y2   :     0.008568
      dxy     :     0.002448

  1 C s       :     3.073113  s :     3.073113
      pz      :     1.009814  p :     2.985737
      px      :     1.007227
      py      :     0.968697
      dz2     :     0.011350  d :     0.042859
      dxz     :     0.011707
      dyz     :     0.006951
      dx2y2   :     0.007196
      dxy     :     0.005656

  2 C s       :     3.173408  s :     3.173408
      pz      :     1.010111  p :     2.993251
      px      :     0.936367
      py      :     1.046772
      dz2     :     0.007999  d :     0.026989
      dxz     :     0.006835
      dyz     :     0.004097
      dx2y2   :     0.006076
      dxy     :     0.001982

  3 C s       :     3.004346  s :     3.004346
      pz      :     0.965428  p :     2.886956
      px      :     0.962500
      py      :     0.959028
      dz2     :     0.004030  d :     0.041539
      dxz     :     0.006542
      dyz     :     0.006054
      dx2y2   :     0.012552
      dxy     :     0.012361

  4 C s       :     3.252677  s :     3.252677
      pz      :     0.991704  p :     2.800743
      px      :     0.910563
      py      :     0.898475
      dz2     :     0.003202  d :     0.034705
      dxz     :     0.006283
      dyz     :     0.003774
      dx2y2   :     0.009493
      dxy     :     0.011953

  5 C s       :     3.187806  s :     3.187806
      pz      :     0.977819  p :     2.827991
      px      :     0.952107
      py      :     0.898065
      dz2     :     0.003018  d :     0.035104
      dxz     :     0.006347
      dyz     :     0.004118
      dx2y2   :     0.009422
      dxy     :     0.012199

  6 C s       :     3.177477  s :     3.177477
      pz      :     0.995099  p :     2.833343
      px      :     0.848434
      py      :     0.989810
      dz2     :     0.004349  d :     0.034952
      dxz     :     0.002823
      dyz     :     0.005962
      dx2y2   :     0.013477
      dxy     :     0.008342

  7 C s       :     3.187730  s :     3.187730
      pz      :     0.978826  p :     2.827794
      px      :     0.956785
      py      :     0.892183
      dz2     :     0.003181  d :     0.035108
      dxz     :     0.006428
      dyz     :     0.003872
      dx2y2   :     0.009709
      dxy     :     0.011918

  8 C s       :     3.252272  s :     3.252272
      pz      :     0.989052  p :     2.801313
      px      :     0.903367
      py      :     0.908894
      dz2     :     0.003054  d :     0.034702
      dxz     :     0.006217
      dyz     :     0.004030
      dx2y2   :     0.009203
      dxy     :     0.012198

  9 H s       :     0.891328  s :     0.891328

 10 H s       :     0.902193  s :     0.902193

 11 H s       :     0.891205  s :     0.891205

 12 H s       :     0.907959  s :     0.907959

 13 H s       :     0.916933  s :     0.916933

 14 H s       :     0.955815  s :     0.955815

 15 H s       :     0.947271  s :     0.947271

 16 H s       :     0.946763  s :     0.946763

 17 H s       :     0.947297  s :     0.947297

 18 H s       :     0.955762  s :     0.955762


------------------------
MULLIKEN OVERLAP CHARGES
------------------------
B(  0-C ,  1-C ) :   0.8972 B(  0-C ,  2-C ) :  -0.1339 B(  0-C ,  3-C ) :  -0.2313 
B(  0-C ,  9-H ) :   0.7004 B(  0-C , 10-H ) :   0.7043 B(  0-C , 11-H ) :   0.6998 
B(  0-C , 13-H ) :  -0.0561 B(  1-C ,  2-C ) :   1.5269 B(  1-C ,  3-C ) :   0.6757 
B(  1-C ,  4-C ) :  -0.1866 B(  1-C ,  8-C ) :  -0.1866 B(  2-C ,  3-C ) :  -0.1167 
B(  2-C , 12-H ) :   0.6962 B(  2-C , 13-H ) :   0.6834 B(  3-C ,  4-C ) :   0.3373 
B(  3-C ,  5-C ) :   0.3844 B(  3-C ,  6-C ) :  -0.4465 B(  3-C ,  7-C ) :   0.3846 
B(  3-C ,  8-C ) :   0.3353 B(  3-C , 14-H ) :  -0.1740 B(  3-C , 18-H ) :  -0.1737 
B(  4-C ,  5-C ) :   0.2922 B(  4-C ,  6-C ) :   0.3674 B(  4-C ,  7-C ) :  -0.4134 
B(  4-C ,  8-C ) :   0.2931 B(  4-C , 14-H ) :   0.8766 B(  4-C , 15-H ) :  -0.1797 
B(  5-C ,  6-C ) :   0.2563 B(  5-C ,  7-C ) :   0.3742 B(  5-C ,  8-C ) :  -0.4134 
B(  5-C , 14-H ) :  -0.1782 B(  5-C , 15-H ) :   0.8858 B(  5-C , 16-H ) :  -0.1758 
B(  6-C ,  7-C ) :   0.2563 B(  6-C ,  8-C ) :   0.3672 B(  6-C , 15-H ) :  -0.1830 
B(  6-C , 16-H ) :   0.8814 B(  6-C , 17-H ) :  -0.1830 B(  7-C ,  8-C ) :   0.2943 
B(  7-C , 16-H ) :  -0.1759 B(  7-C , 17-H ) :   0.8859 B(  7-C , 18-H ) :  -0.1780 
B(  8-C , 17-H ) :  -0.1798 B(  8-C , 18-H ) :   0.8760 B( 12-H , 13-H ) :  -0.1136 



                     *******************************
                     * LOEWDIN POPULATION ANALYSIS *
                     *******************************

----------------------
LOEWDIN ATOMIC CHARGES
----------------------
   0 C :   -0.315843
   1 C :   -0.049062
   2 C :   -0.252299
   3 C :   -0.026987
   4 C :   -0.115914
   5 C :   -0.121304
   6 C :   -0.126616
   7 C :   -0.121279
   8 C :   -0.115834
   9 H :    0.130825
  10 H :    0.123342
  11 H :    0.130993
  12 H :    0.122404
  13 H :    0.118221
  14 H :    0.124436
  15 H :    0.123689
  16 H :    0.123180
  17 H :    0.123689
  18 H :    0.124362

-------------------------------
LOEWDIN REDUCED ORBITAL CHARGES
-------------------------------
  0 C s       :     2.939513  s :     2.939513
      pz      :     1.081781  p :     3.304907
      px      :     1.106069
      py      :     1.117056
      dz2     :     0.017351  d :     0.071423
      dxz     :     0.010834
      dyz     :     0.016489
      dx2y2   :     0.021272
      dxy     :     0.005478

  1 C s       :     2.861192  s :     2.861192
      pz      :     1.074496  p :     3.077599
      px      :     1.047733
      py      :     0.955370
      dz2     :     0.029938  d :     0.110271
      dxz     :     0.032652
      dyz     :     0.015726
      dx2y2   :     0.018737
      dxy     :     0.013217

  2 C s       :     2.953376  s :     2.953376
      pz      :     1.091517  p :     3.228983
      px      :     1.079877
      py      :     1.057588
      dz2     :     0.021213  d :     0.069940
      dxz     :     0.020327
      dyz     :     0.009488
      dx2y2   :     0.013973
      dxy     :     0.004940

  3 C s       :     2.847181  s :     2.847181
      pz      :     0.960980  p :     3.069522
      px      :     1.034756
      py      :     1.073786
      dz2     :     0.009601  d :     0.110285
      dxz     :     0.014022
      dyz     :     0.015015
      dx2y2   :     0.036904
      dxy     :     0.034744

  4 C s       :     2.891632  s :     2.891632
      pz      :     1.003534  p :     3.132272
      px      :     1.074505
      py      :     1.054234
      dz2     :     0.007239  d :     0.092010
      dxz     :     0.014534
      dyz     :     0.008087
      dx2y2   :     0.028720
      dxy     :     0.033431

  5 C s       :     2.891257  s :     2.891257
      pz      :     0.991352  p :     3.137473
      px      :     1.084871
      py      :     1.061250
      dz2     :     0.007004  d :     0.092574
      dxz     :     0.014605
      dyz     :     0.008882
      dx2y2   :     0.028306
      dxy     :     0.033777

  6 C s       :     2.891041  s :     2.891041
      pz      :     1.000429  p :     3.143534
      px      :     1.063227
      py      :     1.079878
      dz2     :     0.009267  d :     0.092041
      dxz     :     0.006204
      dyz     :     0.015151
      dx2y2   :     0.035681
      dxy     :     0.025739

  7 C s       :     2.891223  s :     2.891223
      pz      :     0.991935  p :     3.137467
      px      :     1.085934
      py      :     1.059599
      dz2     :     0.007280  d :     0.092589
      dxz     :     0.014976
      dyz     :     0.008365
      dx2y2   :     0.028893
      dxy     :     0.033076

  8 C s       :     2.891578  s :     2.891578
      pz      :     1.002785  p :     3.132256
      px      :     1.074261
      py      :     1.055210
      dz2     :     0.007019  d :     0.092000
      dxz     :     0.014233
      dyz     :     0.008604
      dx2y2   :     0.028031
      dxy     :     0.034113

  9 H s       :     0.869175  s :     0.869175

 10 H s       :     0.876658  s :     0.876658

 11 H s       :     0.869007  s :     0.869007

 12 H s       :     0.877596  s :     0.877596

 13 H s       :     0.881779  s :     0.881779

 14 H s       :     0.875564  s :     0.875564

 15 H s       :     0.876311  s :     0.876311

 16 H s       :     0.876820  s :     0.876820

 17 H s       :     0.876311  s :     0.876311

 18 H s       :     0.875638  s :     0.875638


---------------------------------
LOEWDIN BOND ORDERS (THRESH 0.050000)
---------------------------------
B(  0-C ,  1-C ) :   1.0978 B(  0-C ,  2-C ) :   0.0864 B(  0-C ,  3-C ) :   0.0639 
B(  0-C ,  9-H ) :   0.9214 B(  0-C , 10-H ) :   0.9310 B(  0-C , 11-H ) :   0.9214 
B(  1-C ,  2-C ) :   1.9827 B(  1-C ,  3-C ) :   1.0101 B(  1-C ,  4-C ) :   0.0758 
B(  1-C ,  8-C ) :   0.0758 B(  2-C ,  3-C ) :   0.0924 B(  2-C , 12-H ) :   0.9189 
B(  2-C , 13-H ) :   0.9164 B(  3-C ,  4-C ) :   1.4319 B(  3-C ,  5-C ) :   0.0876 
B(  3-C ,  6-C ) :   0.1137 B(  3-C ,  7-C ) :   0.0876 B(  3-C ,  8-C ) :   1.4312 
B(  4-C ,  5-C ) :   1.5059 B(  4-C ,  6-C ) :   0.0865 B(  4-C ,  7-C ) :   0.1204 
B(  4-C ,  8-C ) :   0.0828 B(  4-C , 14-H ) :   0.8849 B(  5-C ,  6-C ) :   1.5020 
B(  5-C ,  7-C ) :   0.0865 B(  5-C ,  8-C ) :   0.1205 B(  5-C , 15-H ) :   0.8877 
B(  6-C ,  7-C ) :   1.5013 B(  6-C ,  8-C ) :   0.0866 B(  6-C , 16-H ) :   0.8896 
B(  7-C ,  8-C ) :   1.5066 B(  7-C , 17-H ) :   0.8877 B(  8-C , 18-H ) :   0.8849 


------------------------------------------
LOEWDIN REDUCED ORBITAL POPULATIONS PER MO
-------------------------------------------
THRESHOLD FOR PRINTING IS 0.1%%
                      0         1         2         3         4         5   
                  -9.90514  -9.90348  -9.89192  -9.89189  -9.89104  -9.89098
                   2.00000   2.00000   2.00000   2.00000   2.00000   2.00000
                  --------  --------  --------  --------  --------  --------
 1 C  s              99.5       0.0       0.0       0.0       0.0       0.0
 1 C  px              0.0       0.1       0.0       0.0       0.0       0.0
 2 C  pz              0.1       0.0       0.0       0.0       0.0       0.0
 3 C  s               0.0      99.5       0.0       0.0       0.0       0.0
 3 C  px              0.1       0.0       0.0       0.0       0.0       0.0
 4 C  s               0.0       0.0       0.0      97.5       0.5       1.6
 5 C  s               0.0       0.0       0.0       2.0      34.0      62.8
 5 C  px              0.0       0.0       0.0       0.1       0.0       0.0
 6 C  s               0.0       0.0       0.0       0.0       1.3       0.0
 6 C  py              0.0       0.0       0.0       0.0       0.0       0.2
 7 C  s               0.0       0.0       2.0       0.0      62.8      34.2
 7 C  px              0.0       0.0       0.1       0.0       0.0       0.0
 8 C  s               0.0       0.0      97.6       0.0       1.1       1.0
 8 C  py              0.0       0.1       0.0       0.0       0.0       0.0

                      6         7         8         9        10        11   
                  -9.88955  -9.88490  -9.87349  -0.78177  -0.72710  -0.66973
                   2.00000   2.00000   2.00000   2.00000   2.00000   2.00000
                  --------  --------  --------  --------  --------  --------
 0 C  s               0.0      99.7       0.0       1.3      10.7       0.0
 0 C  pz              0.0       0.0       0.0       0.4       1.7       0.0
 0 C  px              0.0       0.0       0.0       0.2       0.4       0.0
 0 C  py              0.0       0.0       0.0       0.1       0.2       0.0
 1 C  s               0.0       0.0       0.0       5.8      22.3       0.0
 1 C  pz              0.0       0.1       0.1       0.0       0.0       0.0
 1 C  px              0.0       0.0       0.0       1.3       0.2       0.0
 1 C  py              0.0       0.0       0.0       0.0       0.0       0.2
 2 C  s               0.0       0.0      99.6       1.4      10.6       0.0
 2 C  pz              0.0       0.0       0.0       0.5       2.3       0.0
 2 C  px              0.0       0.0       0.0       0.3       0.8       0.0
 2 C  py              0.0       0.0       0.0       0.1       0.4       0.0
 3 C  s               0.0       0.0       0.0      16.9       3.6       0.0
 3 C  pz              0.0       0.0       0.0       0.0       0.0       1.2
 3 C  px              0.0       0.0       0.0       0.7       6.8       0.0
 3 C  py              0.0       0.0       0.0       0.0       0.0       8.8
 3 C  dz2             0.0       0.0       0.0       0.1       0.0       0.0
 3 C  dxy             0.0       0.0       0.0       0.0       0.0       0.2
 4 C  s               0.0       0.0       0.0      11.9       0.1      14.5
 4 C  pz              0.0       0.0       0.0       0.3       0.0       0.1
 4 C  px              0.0       0.0       0.0       0.1       3.0       1.8
 4 C  py              0.0       0.0       0.0       2.2       0.1       0.4
 4 C  dz2             0.0       0.0       0.0       0.1       0.0       0.1
 4 C  dx2y2           0.0       0.0       0.0       0.0       0.0       0.1
 5 C  s               0.7       0.0       0.0       9.1       4.9      14.0
 5 C  pz              0.0       0.0       0.0       0.2       0.1       0.0
 5 C  px              0.0       0.0       0.0       0.9       0.2       2.0
 5 C  py              0.1       0.0       0.0       1.3       0.9       0.5
 5 C  dz2             0.0       0.0       0.0       0.1       0.0       0.1
 5 C  dx2y2           0.0       0.0       0.0       0.0       0.0       0.1
 6 C  s              98.2       0.0       0.0       8.4       7.9       0.0
 6 C  pz              0.0       0.0       0.0       0.0       0.0       1.1
 6 C  px              0.0       0.0       0.0       2.2       0.7       0.0
 6 C  py              0.0       0.0       0.0       0.0       0.0       8.0
 6 C  dxy             0.0       0.0       0.0       0.0       0.0       0.3
 7 C  s               0.7       0.0       0.0       9.1       4.9      14.1
 7 C  pz              0.0       0.0       0.0       0.2       0.1       0.1
 7 C  px              0.0       0.0       0.0       0.8       0.2       2.0
 7 C  py              0.1       0.0       0.0       1.4       0.9       0.4
 7 C  dz2             0.0       0.0       0.0       0.1       0.0       0.1
 7 C  dx2y2           0.0       0.0       0.0       0.0       0.0       0.1
 8 C  s               0.0       0.0       0.0      11.9       0.1      14.5
 8 C  pz              0.0       0.0       0.0       0.3       0.0       0.0
 8 C  px              0.0       0.0       0.0       0.2       3.0       1.8
 8 C  py              0.0       0.0       0.0       2.1       0.1       0.5
 8 C  dz2             0.0       0.0       0.0       0.1       0.0       0.1
 8 C  dx2y2           0.0       0.0       0.0       0.0       0.0       0.1
 9 H  s               0.0       0.1       0.0       0.2       1.9       0.0
10 H  s               0.0       0.1       0.0       0.2       2.0       0.0
11 H  s               0.0       0.1       0.0       0.2       1.9       0.0
12 H  s               0.0       0.0       0.1       0.2       1.6       0.0
13 H  s               0.0       0.0       0.1       0.2       1.7       0.0
14 H  s               0.0       0.0       0.0       1.6       0.0       3.3
15 H  s               0.0       0.0       0.0       1.1       0.7       3.1
16 H  s               0.1       0.0       0.0       1.0       1.2       0.0
17 H  s               0.0       0.0       0.0       1.1       0.7       3.1
18 H  s               0.0       0.0       0.0       1.6       0.0       3.3

                     12        13        14        15        16        17   
                  -0.65814  -0.61577  -0.54831  -0.54232  -0.49118  -0.44926
                   2.00000   2.00000   2.00000   2.00000   2.00000   2.00000
                  --------  --------  --------  --------  --------  --------
 0 C  s               7.8      22.9       1.3       0.0       1.1       0.7
 0 C  pz              0.2       1.1       0.2       0.0       1.5       6.6
 0 C  px              0.0       0.0       1.4       0.0       1.9       0.5
 0 C  py              0.0       0.2       0.0       0.1       0.2       0.9
 1 C  s               2.4       1.1       1.3       0.0       4.0       5.7
 1 C  pz              0.1      19.1       0.4       0.2       0.2       0.2
 1 C  px              7.5       0.1       9.5       0.0       2.5       1.3
 1 C  py              0.0       2.8       0.1       1.0       0.0       0.0
 1 C  dz2             0.1       0.0       0.1       0.0       0.0       0.0
 1 C  dxz             0.0       0.3       0.0       0.0       0.0       0.0
 2 C  s               4.2      20.5       4.4       0.0       2.8       2.1
 2 C  pz              0.5       0.2       0.2       0.0       2.0      10.8
 2 C  px              0.0       0.3       1.5       0.0       2.6       1.2
 2 C  py              0.1       0.0       0.0       0.1       0.3       1.6
 2 C  dxz             0.0       0.0       0.0       0.0       0.1       0.2
 3 C  s              10.6       0.0       5.8       0.0       0.5       0.5
 3 C  pz              0.0       0.7       0.0       1.9       0.0       0.0
 3 C  px              2.0       0.3       4.6       0.0      12.1       0.1
 3 C  py              0.0       0.1       0.0      14.2       0.0       0.0
 3 C  dx2y2           0.1       0.0       0.0       0.0       0.0       0.4
 3 C  dxy             0.0       0.0       0.0       0.1       0.0       0.0
 4 C  s               4.4       0.1       2.8       6.3       0.3       1.0
 4 C  pz              0.2       0.0       0.4       0.0       1.2       0.1
 4 C  px              2.8       0.0       4.3       6.6       0.0       4.5
 4 C  py              1.1       0.0       2.5       0.1       8.6       1.7
 4 C  dx2y2           0.1       0.0       0.0       0.0       0.1       0.1
 5 C  s               3.0       0.0       1.2       7.2       2.1       0.5
 5 C  pz              0.1       0.0       0.4       0.0       1.1       0.2
 5 C  px              4.5       0.1       6.2       5.0       0.4       1.7
 5 C  py              1.4       0.0       3.7       0.1       7.5       1.2
 5 C  dx2y2           0.1       0.0       0.1       0.0       0.0       0.0
 6 C  s              14.5       0.2       8.7       0.0       0.3       1.5
 6 C  pz              0.0       0.0       0.0       1.7       0.0       0.0
 6 C  px              0.1       0.0       2.6       0.0       1.6      14.3
 6 C  py              0.0       0.0       0.0      12.7       0.0       0.0
 6 C  dxy             0.0       0.0       0.0       0.2       0.0       0.0
 7 C  s               2.9       0.0       1.3       7.1       2.1       0.5
 7 C  pz              0.2       0.0       0.5       0.0       1.0       0.2
 7 C  px              4.8       0.1       6.5       5.1       0.3       1.6
 7 C  py              1.1       0.0       3.1       0.2       7.7       1.3
 8 C  s               4.4       0.1       2.7       6.4       0.3       1.0
 8 C  pz              0.1       0.0       0.3       0.0       1.1       0.3
 8 C  px              2.6       0.0       4.1       6.5       0.0       4.7
 8 C  py              1.3       0.0       2.8       0.1       8.8       1.3
 8 C  dx2y2           0.1       0.0       0.0       0.0       0.1       0.1
 9 H  s               1.5       6.9       0.3       0.0       0.5       1.6
10 H  s               2.1       5.3       1.3       0.0       1.7       0.7
11 H  s               1.5       6.9       0.3       0.0       0.5       1.6
12 H  s               0.6       5.6       1.2       0.0       1.8       5.9
13 H  s               1.1       4.2       2.8       0.0       3.4       2.8
14 H  s               0.9       0.0       1.2       4.0       2.6       3.4
15 H  s               0.7       0.0       0.6       4.3       5.1       0.4
16 H  s               3.5       0.1       5.1       0.0       0.1       8.6
17 H  s               0.7       0.0       0.6       4.2       5.1       0.4
18 H  s               0.9       0.0       1.2       4.0       2.6       3.4

                     18        19        20        21        22        23   
                  -0.41466  -0.40964  -0.39216  -0.38824  -0.37526  -0.36644
                   2.00000   2.00000   2.00000   2.00000   2.00000   2.00000
                  --------  --------  --------  --------  --------  --------
 0 C  s               0.2       0.0       0.3       0.1       0.0       0.0
 0 C  pz              7.6       0.6       4.1       0.4       0.7       5.5
 0 C  px              3.6       0.0       3.9      15.6       0.0       0.0
 0 C  py              1.1       3.8       0.6       0.0       4.8      37.6
 0 C  dz2             0.0       0.0       0.0       0.0       0.0       0.1
 0 C  dyz             0.1       0.0       0.0       0.0       0.0       0.2
 0 C  dxy             0.0       0.0       0.0       0.0       0.0       0.2
 1 C  s               0.2       0.0       0.0       0.1       0.0       0.0
 1 C  pz              0.2       0.6       9.7       6.1       0.1       0.6
 1 C  px             11.7       0.0       0.1       0.6       0.0       0.0
 1 C  py              0.0       4.9       1.3       0.8       0.9       4.1
 2 C  s               0.4       0.0       0.3       0.3       0.0       0.0
 2 C  pz             12.4       0.1       0.4       3.2       0.0       0.1
 2 C  px              4.9       0.0      22.1       2.8       0.0       0.0
 2 C  py              1.7       0.6       0.1       0.5       0.2       0.7
 3 C  s               0.3       0.0       1.6       2.1       0.0       0.0
 3 C  pz              0.0       1.5       4.3       3.0       0.4       0.1
 3 C  px              3.3       0.0       0.5       3.2       0.0       0.0
 3 C  py              0.0      11.7       0.6       0.3       2.7       0.5
 3 C  dx2y2           0.3       0.0       0.0       0.0       0.0       0.0
 3 C  dxy             0.0       0.0       0.0       0.0       0.6       0.0
 4 C  s               1.6       0.1       0.3       0.2       0.5       0.0
 4 C  pz              0.1       0.4       0.2       2.5       1.3       0.0
 4 C  px              1.4      10.8       0.1       0.1       2.3       4.1
 4 C  py              0.9       2.7       3.9       3.1       9.6       0.6
 4 C  dx2y2           0.1       0.0       0.0       0.0       0.1       0.1
 4 C  dxy             0.1       0.0       0.2       0.3       0.0       0.0
 5 C  s               1.4       0.0       0.4       0.3       0.3       0.1
 5 C  pz              0.1       0.2       1.3       0.2       1.4       0.0
 5 C  px              0.1      12.5       1.1       1.4       3.1       3.3
 5 C  py              0.5       2.5       2.5       5.6       9.7       0.1
 5 C  dx2y2           0.1       0.1       0.0       0.0       0.1       0.0
 5 C  dxy             0.1       0.0       0.2       0.2       0.0       0.0
 6 C  s               1.4       0.0       0.8       0.9       0.0       0.0
 6 C  pz              0.0       1.7       0.2       0.1       0.4       0.1
 6 C  px              6.0       0.0       0.8       3.5       0.0       0.0
 6 C  py              0.0      12.8       0.0       0.0       2.7       0.6
 6 C  dx2y2           0.2       0.0       0.1       0.0       0.0       0.0
 6 C  dxy             0.0       0.0       0.0       0.0       0.5       0.0
 7 C  s               1.4       0.0       0.4       0.3       0.3       0.1
 7 C  pz              0.1       0.4       0.0       1.5       1.3       0.0
 7 C  px              0.1      13.0       0.9       1.3       2.7       3.1
 7 C  py              0.5       1.8       4.0       4.4      10.4       0.2
 7 C  dx2y2           0.1       0.1       0.0       0.0       0.2       0.0
 7 C  dxy             0.1       0.0       0.2       0.3       0.0       0.0
 8 C  s               1.6       0.1       0.3       0.2       0.5       0.0
 8 C  pz              0.1       0.4       2.3       0.1       1.2       0.2
 8 C  px              1.6      10.2       0.1       0.1       2.8       4.2
 8 C  py              0.8       3.3       1.6       5.5       9.2       0.3
 8 C  dx2y2           0.1       0.0       0.0       0.1       0.1       0.1
 8 C  dxy             0.1       0.0       0.2       0.3       0.0       0.0
 9 H  s               2.3       1.2       0.6       0.1       1.8      14.1
10 H  s               1.1       0.0       1.7       7.7       0.0       0.0
11 H  s               2.4       1.2       0.5       0.1       1.8      14.2
12 H  s               9.2       0.0       0.5       0.8       0.0       0.0
13 H  s               0.8       0.0      11.8       1.9       0.0       0.0
14 H  s               3.1       0.0       2.4       3.1       5.8       1.6
15 H  s               1.7       0.1       3.8       5.1       6.7       0.6
16 H  s               5.6       0.0       0.0       0.6       0.0       0.0
17 H  s               1.6       0.2       3.8       5.0       6.8       0.6
18 H  s               3.1       0.0       2.4       3.1       5.7       1.6

                     24        25        26        27        28        29   
                  -0.34038  -0.32724  -0.32118  -0.30204  -0.28732  -0.23131
                   2.00000   2.00000   2.00000   2.00000   2.00000   2.00000
                  --------  --------  --------  --------  --------  --------
 0 C  s               0.0       0.0       0.3       0.0       0.3       0.0
 0 C  pz              1.5       1.5      15.9       0.1       3.3       0.0
 0 C  px             16.6       5.6       0.8       0.0       3.8       0.0
 0 C  py              0.3       0.2       2.4       0.4       0.4       0.2
 0 C  dz2             0.1       0.0       0.0       0.0       0.1       0.0
 0 C  dxz             0.0       0.0       0.1       0.0       0.0       0.0
 0 C  dx2y2           0.4       0.1       0.2       0.0       0.1       0.0
 1 C  s               0.2       0.0       0.2       0.0       0.2       0.0
 1 C  pz              0.6       0.0       9.4       0.2       1.0       0.8
 1 C  px              3.4       0.0       0.0       0.0      13.9       0.0
 1 C  py              0.1       0.0       1.4       1.0       0.1       5.6
 1 C  dz2             0.4       0.0       0.0       0.0       0.4       0.0
 1 C  dxz             0.1       0.0       0.6       0.0       0.0       0.0
 1 C  dx2y2           0.2       0.0       0.0       0.0       0.3       0.0
 2 C  s               0.3       0.0       0.3       0.0       0.1       0.0
 2 C  pz              1.2       1.5      11.8       0.0       0.4       1.3
 2 C  px              4.1       4.4       2.2       0.0       5.8       0.0
 2 C  py              0.2       0.2       1.6       0.3       0.0       8.9
 2 C  dz2             0.1       0.1       0.2       0.0       0.4       0.0
 2 C  dxz             0.0       0.0       0.3       0.0       0.1       0.0
 2 C  dx2y2           0.1       0.0       0.1       0.0       0.3       0.0
 3 C  s               0.6       0.0       0.1       0.0       0.3       0.0
 3 C  pz              0.3       7.8       0.6       1.2       0.1       0.0
 3 C  px              4.9       0.0       0.0       0.0      13.0       0.0
 3 C  py              0.1       1.0       0.1       9.2       0.0       0.2
 3 C  dz2             0.0       0.0       0.0       0.0       0.0       0.2
 3 C  dxz             0.0       0.1       0.1       0.0       0.0       0.0
 3 C  dyz             0.0       0.0       0.0       0.0       0.1       0.4
 3 C  dx2y2           0.0       0.0       0.1       0.0       0.7       0.1
 3 C  dxy             0.0       0.0       0.0       0.2       0.0       0.1
 4 C  s               0.3       0.0       0.0       0.1       0.0       0.1
 4 C  pz              0.1      10.3       2.1       1.2       0.1      16.5
 4 C  px              2.7       0.0       1.9       0.1       6.3       0.2
 4 C  py              1.2       1.4       0.1       8.0       0.1       3.2
 4 C  dxz             0.0       0.0       0.0       0.1       0.0       0.1
 4 C  dx2y2           0.0       0.0       0.0       0.1       0.4       0.0
 4 C  dxy             0.0       0.0       0.0       0.8       0.0       0.0
 5 C  s               0.3       0.0       0.0       0.1       0.0       0.0
 5 C  pz              0.4      12.0       2.7       1.1       0.1      17.8
 5 C  px              2.7       0.1       1.7       0.1       6.5       0.0
 5 C  py              0.5       1.5       0.6       9.2       0.0       2.0
 5 C  dxz             0.0       0.0       0.0       0.1       0.0       0.1
 5 C  dx2y2           0.3       0.0       0.1       0.0       0.1       0.0
 5 C  dxy             0.0       0.0       0.0       0.8       0.1       0.0
 6 C  s               0.1       0.0       0.0       0.0       0.0       0.0
 6 C  pz              0.3      12.4       2.9       1.5       0.2       0.0
 6 C  px             14.3       0.1       3.6       0.0       3.4       0.0
 6 C  py              0.1       1.7       0.4      11.2       0.0       0.0
 6 C  dz2             0.0       0.0       0.0       0.0       0.0       0.2
 6 C  dyz             0.1       0.0       0.0       0.0       0.1       0.3
 6 C  dx2y2           0.6       0.0       0.2       0.0       0.5       0.1
 6 C  dxy             0.0       0.0       0.0       0.2       0.0       0.0
 7 C  s               0.3       0.0       0.0       0.1       0.0       0.0
 7 C  pz              0.1      11.9       3.1       1.2       0.1      16.0
 7 C  px              2.9       0.1       1.8       0.2       6.5       0.0
 7 C  py              0.7       1.6       0.3       9.0       0.0       2.5
 7 C  dxz             0.0       0.0       0.0       0.1       0.0       0.2
 7 C  dx2y2           0.4       0.0       0.1       0.1       0.2       0.0
 7 C  dxy             0.0       0.0       0.0       0.8       0.0       0.0
 8 C  s               0.3       0.0       0.0       0.1       0.0       0.1
 8 C  pz              0.8      10.4       1.7       1.0       0.0      19.3
 8 C  px              2.9       0.0       1.9       0.1       6.2       0.2
 8 C  py              0.4       1.3       0.4       8.1       0.3       1.7
 8 C  dxz             0.0       0.0       0.0       0.1       0.0       0.1
 8 C  dx2y2           0.0       0.0       0.0       0.0       0.4       0.0
 8 C  dxy             0.0       0.0       0.0       0.8       0.1       0.0
 9 H  s               2.2       1.1       3.4       0.3       0.0       0.5
10 H  s              11.3       3.8       1.5       0.0       2.7       0.0
11 H  s               2.2       1.1       3.4       0.3       0.0       0.5
12 H  s               0.0       2.9       9.9       0.0       3.7       0.0
13 H  s               2.6       2.7       1.9       0.0       5.8       0.0
14 H  s               1.0       0.0       0.4       7.8       1.5       0.0
15 H  s               0.2       0.0       0.4       7.4       1.6       0.0
16 H  s              10.5       0.1       3.0       0.0       4.2       0.0
17 H  s               0.2       0.0       0.4       7.4       1.6       0.0
18 H  s               1.0       0.0       0.4       7.7       1.5       0.0

                     30        31        32        33        34        35   
                  -0.22436  -0.22290  -0.03479  -0.03355  -0.01387   0.04211
                   2.00000   2.00000   0.00000   0.00000   0.00000   0.00000
                  --------  --------  --------  --------  --------  --------
 0 C  s               0.3       0.0       0.0       0.5       0.0       4.4
 0 C  pz              0.5       0.6       0.0       0.8       0.0       0.7
 0 C  px              0.9       0.1       0.0       0.2       0.0       0.1
 0 C  py              0.5       1.6       0.2       0.1       0.1       0.1
 0 C  dz2             0.0       0.2       0.0       0.0       0.4       0.0
 0 C  dyz             0.0       0.3       0.0       0.0       0.7       0.0
 0 C  dx2y2           0.0       0.1       0.0       0.1       0.1       0.0
 1 C  pz              0.4       3.9       0.2       0.2       4.9       0.0
 1 C  px              0.0       0.0       0.0       0.0       0.0       0.6
 1 C  py              2.4      21.0       1.5       0.0      33.7       0.0
 1 C  dz2             0.0       0.1       0.0       0.0       0.3       0.0
 1 C  dxz             0.4       0.1       0.0       1.0       0.0       0.0
 1 C  dyz             0.0       0.2       0.0       0.0       0.5       0.0
 1 C  dx2y2           0.0       0.1       0.0       0.0       0.1       0.2
 1 C  dxy             0.1       0.1       0.0       0.1       0.3       0.0
 2 C  s               0.3       0.0       0.0       0.6       0.0       0.9
 2 C  pz              1.0       4.3       0.1       0.1       5.4       0.1
 2 C  px              0.6       0.0       0.0       0.2       0.0       0.3
 2 C  py              1.9      33.3       1.0       0.0      37.2       0.0
 2 C  dz2             0.0       0.1       0.0       0.0       0.4       0.0
 2 C  dyz             0.0       0.1       0.0       0.0       0.7       0.0
 2 C  dx2y2           0.0       0.0       0.0       0.1       0.2       0.0
 2 C  dxy             0.0       0.1       0.0       0.0       0.4       0.0
 3 C  s               0.0       0.0       0.0       0.0       0.0       0.7
 3 C  pz             22.4       2.6       0.3      25.4       0.0       0.0
 3 C  px              0.1       0.0       0.0       0.0       0.0       0.3
 3 C  py              3.7       0.3       0.0       3.3       0.3       0.0
 3 C  dz2             0.0       0.0       0.5       0.0       0.0       0.0
 3 C  dxz             0.1       0.1       0.0       0.2       0.2       0.0
 3 C  dyz             0.0       0.1       0.9       0.0       0.0       0.0
 3 C  dx2y2           0.0       0.0       0.2       0.0       0.0       0.7
 3 C  dxy             0.1       0.4       0.1       0.0       1.4       0.0
 4 C  s               0.0       0.3       0.0       0.0       0.5       2.3
 4 C  pz             11.6       1.5      17.6       9.2       0.4       0.2
 4 C  px              0.0       0.5       0.0       0.0       0.4       0.7
 4 C  py              1.1       0.1       2.0       1.2       0.7       1.4
 4 C  dz2             0.1       0.0       0.0       0.2       0.0       0.0
 4 C  dxz             0.2       0.1       0.7       0.5       0.0       0.1
 4 C  dyz             0.1       0.0       0.0       0.3       0.0       0.1
 4 C  dxy             0.0       0.0       0.1       0.1       0.0       0.3
 5 C  s               0.0       0.0       0.0       0.0       0.2       1.9
 5 C  pz              3.0       7.0      22.3       4.3       0.8       0.3
 5 C  px              0.0       0.2       0.0       0.0       0.1       0.8
 5 C  py              0.3       1.4       3.0       0.6       0.0       1.4
 5 C  dz2             0.1       0.0       0.0       0.2       0.0       0.0
 5 C  dxz             0.4       0.0       0.4       0.7       0.0       0.1
 5 C  dyz             0.1       0.0       0.0       0.4       0.0       0.1
 5 C  dx2y2           0.0       0.0       0.0       0.1       0.0       0.2
 5 C  dxy             0.0       0.0       0.0       0.1       0.0       0.5
 6 C  s               0.0       0.0       0.0       0.0       0.0       2.2
 6 C  pz             25.4       2.2       0.3      26.4       0.0       0.0
 6 C  px              0.0       0.0       0.0       0.0       0.0       2.5
 6 C  py              3.5       0.2       0.0       3.5       0.0       0.0
 6 C  dz2             0.0       0.0       0.5       0.0       0.0       0.1
 6 C  dxz             0.0       0.0       0.0       0.3       0.0       0.0
 6 C  dyz             0.0       0.1       0.9       0.0       0.0       0.0
 6 C  dx2y2           0.0       0.0       0.2       0.0       0.0       0.8
 7 C  s               0.0       0.0       0.0       0.0       0.2       1.9
 7 C  pz              9.7       2.1      17.7       9.1       0.4       0.1
 7 C  px              0.0       0.2       0.0       0.0       0.1       0.7
 7 C  py              1.2       0.1       2.3       1.2       0.1       1.7
 7 C  dz2             0.1       0.0       0.0       0.2       0.0       0.0
 7 C  dxz             0.3       0.1       0.6       0.5       0.0       0.1
 7 C  dyz             0.1       0.0       0.0       0.3       0.0       0.1
 7 C  dx2y2           0.0       0.0       0.0       0.1       0.0       0.2
 7 C  dxy             0.0       0.1       0.1       0.1       0.0       0.5
 8 C  s               0.0       0.3       0.0       0.0       0.6       2.4
 8 C  pz              4.5       5.9      21.6       4.4       1.2       0.2
 8 C  px              0.0       0.4       0.0       0.0       0.4       0.7
 8 C  py              0.4       2.3       3.3       0.6       0.1       1.3
 8 C  dz2             0.1       0.0       0.0       0.2       0.0       0.0
 8 C  dxz             0.3       0.0       0.5       0.7       0.0       0.0
 8 C  dyz             0.1       0.0       0.0       0.4       0.0       0.0
 8 C  dxy             0.0       0.0       0.1       0.1       0.0       0.4
 9 H  s               0.2       2.4       0.2       0.1       2.7       4.1
10 H  s               0.5       0.0       0.0       0.5       0.0       3.2
11 H  s               0.3       2.4       0.2       0.1       2.7       3.9
12 H  s               0.1       0.0       0.0       0.1       0.0       0.1
13 H  s               0.2       0.0       0.0       0.4       0.0       2.1
14 H  s               0.0       0.1       0.0       0.0       0.0      10.2
15 H  s               0.0       0.1       0.0       0.0       0.2       9.7
16 H  s               0.0       0.0       0.0       0.0       0.0      10.7
17 H  s               0.0       0.1       0.0       0.0       0.2       9.8
18 H  s               0.0       0.1       0.0       0.0       0.0      10.5

                     36        37        38        39        40        41   
                   0.05933   0.08003   0.08787   0.10106   0.10578   0.10797
                   0.00000   0.00000   0.00000   0.00000   0.00000   0.00000
                  --------  --------  --------  --------  --------  --------
 0 C  s              13.0       0.0       1.4       1.7       0.1       4.3
 0 C  pz              2.5       0.2       1.4       0.2       3.1       0.6
 0 C  px              1.0       0.0       9.3       1.6       0.1       2.6
 0 C  py              0.3       1.6       0.2       0.0       0.6       0.1
 0 C  dz2             0.0       0.0       0.1       0.2       0.1       0.0
 0 C  dxz             0.1       0.0       0.1       0.0       0.1       0.0
 0 C  dyz             0.0       0.0       0.0       0.0       0.1       0.0
 0 C  dx2y2           0.0       0.0       0.5       0.1       0.1       0.2
 1 C  s               0.7       0.0       0.9       0.1       0.2       0.1
 1 C  pz              0.0       0.1       0.5       0.2       0.9       0.6
 1 C  px              0.3       0.0       0.8       2.4       0.2       0.1
 1 C  py              0.0       0.3       0.1       0.0       0.1       0.1
 1 C  dz2             0.0       0.0       0.7       0.9       0.3       0.2
 1 C  dxz             0.0       0.0       0.0       0.0       1.1       0.4
 1 C  dyz             0.0       0.0       0.3       0.2       0.1       0.0
 1 C  dx2y2           0.0       0.0       0.0       0.5       0.1       0.1
 1 C  dxy             0.0       0.0       0.0       0.0       0.2       0.0
 2 C  s               3.6       0.0       4.6       1.4       0.4       8.5
 2 C  pz              0.7       0.0       1.3       2.8       3.0       3.4
 2 C  px              0.8       0.0       5.9       3.1       1.9       0.2
 2 C  py              0.1       0.5       0.2       0.4       0.4       0.5
 2 C  dz2             0.0       0.0       0.1       0.4       0.1       0.0
 2 C  dxz             0.2       0.0       0.0       0.2       0.1       0.0
 2 C  dyz             0.0       0.0       0.0       0.2       0.0       0.1
 2 C  dx2y2           0.0       0.0       0.3       0.0       0.1       0.3
 3 C  s               0.1       0.0       0.7       0.3       0.2       0.3
 3 C  pz              0.1       0.1       0.4       0.0       7.3       1.2
 3 C  px              0.0       0.0       0.2       2.8       0.0       0.0
 3 C  py              0.0       0.7       0.1       0.0       0.9       0.1
 3 C  dxz             0.0       0.0       0.0       0.0       0.3       0.4
 3 C  dx2y2           0.1       0.0       0.0       1.0       0.1       0.1
 3 C  dxy             0.0       0.1       0.0       0.0       0.0       0.0
 4 C  s               0.3       1.6       0.4       1.3       0.7       0.6
 4 C  pz              0.1       0.8       0.3       0.2       7.5       3.0
[...]
 3 C  dx2y2           0.0       6.3      12.1       0.0       0.5       6.4
 3 C  dxy             1.8       0.1       0.1      15.5       1.2       0.1
 4 C  s               2.5       0.7       0.1       0.8       0.0       0.2
 4 C  px              0.4       1.1       2.9       0.0       0.0       0.1
 4 C  py              0.6       0.1       0.4       0.7       0.0       0.0
 4 C  dz2             1.9       0.6       0.0       0.0       0.6       0.2
 4 C  dxz             2.0       0.1       0.6       0.1       0.1       0.0
 4 C  dyz             0.4       0.8       0.3       0.4       0.1       0.6
 4 C  dx2y2           1.6      14.9       0.5       2.2       0.1       0.0
 4 C  dxy            13.8       1.1       5.3       1.0       0.0       0.0
 5 C  s               0.1       0.2       0.9       2.0       0.0       0.2
 5 C  pz              0.0       0.0       0.0       0.2       0.0       0.0
 5 C  px              0.9       3.2       0.6       0.3       0.0       0.0
 5 C  py              0.4       0.5       0.1       1.6       0.0       0.0
 5 C  dz2             1.4       0.0       1.3       0.3       0.1       0.3
 5 C  dxz             0.8       1.0       0.0       0.8       0.0       0.0
 5 C  dyz             0.1       0.3       0.4       1.1       0.0       0.0
 5 C  dx2y2           5.7       3.7      10.8       4.2       0.0       0.8
 5 C  dxy             9.1       5.9       0.0       7.2       0.0       0.5
 6 C  s               0.0       3.3       0.1       0.0       0.0       0.1
 6 C  pz              0.1       0.0       0.0       0.7       0.0       0.0
 6 C  px              0.0       1.4       0.1       0.0       0.0       0.0
 6 C  py              0.8       0.0       0.0       5.5       0.0       0.0
 6 C  dz2             0.0       0.7       0.0       0.0       0.0       0.0
 6 C  dxz             0.8       0.0       0.0       2.5       0.0       0.0
 6 C  dyz             0.0       2.3       2.1       0.0       0.0       0.6
 6 C  dx2y2           0.0       5.1      10.5       0.1       0.0       2.4
 6 C  dxy             5.9       0.0       0.0      19.1       0.0       0.0
 7 C  s               0.1       0.2       1.0       1.9       0.0       0.2
 7 C  pz              0.1       0.1       0.0       0.2       0.0       0.0
 7 C  px              0.9       3.3       0.6       0.4       0.0       0.0
 7 C  py              0.3       0.3       0.2       1.5       0.0       0.1
 7 C  dz2             1.1       0.1       1.2       0.1       0.0       0.3
 7 C  dxz             1.4       0.8       0.0       1.2       0.1       0.2
 7 C  dyz             0.0       0.5       0.3       1.5       0.0       0.0
 7 C  dx2y2           7.2       2.6      11.0       3.1       0.1       0.6
 7 C  dxy             7.2       7.2       0.0       7.6       0.0       0.4
 8 C  s               2.5       0.7       0.1       0.8       0.1       0.2
 8 C  px              0.4       1.1       2.8       0.0       0.0       0.1
 8 C  py              0.6       0.1       0.5       0.7       0.0       0.0
 8 C  dz2             2.1       0.9       0.0       0.0       0.0       0.6
 8 C  dxz             1.8       0.2       0.7       0.2       0.1       0.0
 8 C  dyz             0.3       1.3       0.1       0.2       0.8       0.1
 8 C  dx2y2           0.8      14.5       1.2       2.1       0.0       0.2
 8 C  dxy            14.7       0.5       4.6       1.1       0.0       0.0
10 H  s               0.0       0.0       0.0       0.0       0.3       0.1
12 H  s               0.0       0.0       0.1       0.0       0.0       0.9
13 H  s               0.0       0.0       0.2       0.0       0.1       0.8
14 H  s               0.6       0.1       0.1       0.1       0.0       0.0
15 H  s               0.6       0.1       0.1       0.1       0.0       0.0
16 H  s               0.0       0.3       0.5       0.0       0.0       0.1
17 H  s               0.6       0.1       0.1       0.1       0.0       0.0
18 H  s               0.7       0.1       0.1       0.1       0.0       0.0

                    144       145   
                   2.95793   3.32321
                   0.00000   0.00000
                  --------  --------
 1 C  s               0.0       0.3
 1 C  px              0.0       0.3
 1 C  dz2             0.0       0.3
 1 C  dxz             0.4       0.0
 1 C  dx2y2           0.0       1.2
 1 C  dxy             4.3       0.0
 2 C  dz2             0.2       0.1
 2 C  dyz             0.1       0.0
 3 C  s               0.0       0.7
 3 C  pz              0.3       0.0
 3 C  px              0.0       0.3
 3 C  py              2.3       0.0
 3 C  dxz             2.7       0.0
 3 C  dyz             0.0       2.6
 3 C  dx2y2           0.1      14.3
 3 C  dxy            22.0       0.0
 4 C  s               0.0       1.3
 4 C  pz              0.2       0.0
 4 C  px              2.5       0.0
 4 C  py              1.0       0.1
 4 C  dz2             0.1       0.7
 4 C  dxz             0.3       1.3
 4 C  dyz             1.4       0.0
 4 C  dx2y2           9.6       4.0
 4 C  dxy             2.7       8.3
 5 C  s               0.1       1.3
 5 C  px              2.1       0.0
 5 C  py              0.5       0.1
 5 C  dz2             0.1       0.8
 5 C  dxz             0.2       1.0
 5 C  dyz             0.6       0.0
 5 C  dx2y2           6.3       2.6
 5 C  dxy             1.2       9.3
 6 C  s               0.0       1.5
 6 C  pz              0.2       0.0
 6 C  px              0.0       0.1
 6 C  py              1.7       0.0
 6 C  dz2             0.0       0.1
 6 C  dxz             0.9       0.0
 6 C  dyz             0.0       2.6
 6 C  dx2y2           0.0      10.7
 6 C  dxy             6.4       0.0
 7 C  s               0.1       1.3
 7 C  px              2.2       0.0
 7 C  py              0.4       0.1
 7 C  dz2             0.1       0.7
 7 C  dxz             0.1       1.3
 7 C  dyz             0.6       0.0
 7 C  dx2y2           5.9       3.7
 7 C  dxy             1.7       8.1
 8 C  s               0.0       1.3
 8 C  pz              0.1       0.0
 8 C  px              2.4       0.0
 8 C  py              1.2       0.1
 8 C  dz2             0.1       0.8
 8 C  dxz             0.3       1.0
 8 C  dyz             1.2       0.0
 8 C  dx2y2          10.7       2.9
 8 C  dxy             1.7       9.6
14 H  s               0.0       0.5
15 H  s               0.0       0.5
16 H  s               0.0       0.5
17 H  s               0.0       0.5
18 H  s               0.0       0.5


                      *****************************
                      * MAYER POPULATION ANALYSIS *
                      *****************************

  NA   - Mulliken gross atomic population
  ZA   - Total nuclear charge
  QA   - Mulliken gross atomic charge
  VA   - Mayer's total valence
  BVA  - Mayer's bonded valence
  FA   - Mayer's free valence

  ATOM       NA         ZA         QA         VA         BVA        FA
  0 C      6.1856     6.0000    -0.1856     3.9177     3.9177     0.0000
  1 C      6.1017     6.0000    -0.1017     4.2378     4.2378    -0.0000
  2 C      6.1936     6.0000    -0.1936     3.9519     3.9519     0.0000
  3 C      5.9328     6.0000     0.0672     3.8894     3.8894    -0.0000
  4 C      6.0881     6.0000    -0.0881     3.8448     3.8448     0.0000
  5 C      6.0509     6.0000    -0.0509     3.8204     3.8204     0.0000
  6 C      6.0458     6.0000    -0.0458     3.8181     3.8181    -0.0000
  7 C      6.0506     6.0000    -0.0506     3.8208     3.8208    -0.0000
  8 C      6.0883     6.0000    -0.0883     3.8447     3.8447    -0.0000
  9 H      0.8913     1.0000     0.1087     0.9583     0.9583    -0.0000
 10 H      0.9022     1.0000     0.0978     0.9679     0.9679     0.0000
 11 H      0.8912     1.0000     0.1088     0.9580     0.9580     0.0000
 12 H      0.9080     1.0000     0.0920     0.9466     0.9466     0.0000
 13 H      0.9169     1.0000     0.0831     0.9500     0.9500     0.0000
 14 H      0.9558     1.0000     0.0442     0.9594     0.9594    -0.0000
 15 H      0.9473     1.0000     0.0527     0.9492     0.9492     0.0000
 16 H      0.9468     1.0000     0.0532     0.9492     0.9492    -0.0000
 17 H      0.9473     1.0000     0.0527     0.9492     0.9492     0.0000
 18 H      0.9558     1.0000     0.0442     0.9592     0.9592    -0.0000

  Mayer bond orders larger than 0.100000
B(  0-C ,  1-C ) :   1.1197 B(  0-C ,  9-H ) :   0.9299 B(  0-C , 10-H ) :   0.9390 
B(  0-C , 11-H ) :   0.9298 B(  1-C ,  2-C ) :   2.0538 B(  1-C ,  3-C ) :   0.9573 
B(  2-C , 12-H ) :   0.9131 B(  2-C , 13-H ) :   0.9059 B(  3-C ,  4-C ) :   1.3985 
B(  3-C ,  8-C ) :   1.3976 B(  4-C ,  5-C ) :   1.3627 B(  4-C , 14-H ) :   0.9646 
B(  5-C ,  6-C ) :   1.3821 B(  5-C , 15-H ) :   0.9633 B(  6-C ,  7-C ) :   1.3814 
B(  6-C , 16-H ) :   0.9649 B(  7-C ,  8-C ) :   1.3637 B(  7-C , 17-H ) :   0.9633 
B(  8-C , 18-H ) :   0.9643 

-------
TIMINGS
-------

Total SCF time: 0 days 0 hours 0 min 6 sec 

Total time                  ....       6.010 sec
Sum of individual times     ....       5.981 sec  ( 99.5%)

SCF preparation             ....       0.413 sec  (  6.9%)
Fock matrix formation       ....       3.395 sec  ( 56.5%)
  Startup                   ....       0.007 sec  (  0.2% of F)
  Split-RI-J                ....       1.541 sec  ( 45.4% of F)
  XC integration            ....       1.772 sec  ( 52.2% of F)
    XC Preparation          ....       0.000 sec  (  0.0% of XC)
    Basis function eval.    ....       0.730 sec  ( 41.2% of XC)
    Density eval.           ....       0.374 sec  ( 21.1% of XC)
    XC-Functional eval.     ....       0.126 sec  (  7.1% of XC)
    XC-Potential eval.      ....       0.409 sec  ( 23.1% of XC)
Diagonalization             ....       0.000 sec  (  0.0%)
Density matrix formation    ....       0.025 sec  (  0.4%)
Total Energy calculation    ....       0.002 sec  (  0.0%)
Population analysis         ....       2.063 sec  ( 34.3%)
Orbital Transformation      ....       0.012 sec  (  0.2%)
Orbital Orthonormalization  ....       0.000 sec  (  0.0%)
DIIS solution               ....       0.056 sec  (  0.9%)
  MO trafo                  ....       0.000 sec  (  0.0 % of DIIS)
  Orb grad                  ....       0.000 sec  (  0.0 % of DIIS)
  Energy W gradient         ....       0.000 sec  (  0.0 % of DIIS)
  DIIS error                ....       0.003 sec  (  4.7 % of DIIS)
  DIIS work                 ....       0.047 sec  ( 83.2 % of DIIS)
  Form Q                    ....       0.000 sec  (  0.0 % of DIIS)
  Form QpQm                 ....       0.000 sec  (  0.0 % of DIIS)
  Exp/Cayley                ....       0.000 sec  (  0.0 % of DIIS)
  Orb update                ....       0.000 sec  (  0.0 % of DIIS)
  Wake-sleep                ....       0.001 sec  (  1.6 % of DIIS)
SOSCF solution              ....       0.015 sec  (  0.3%)
  MO trafo                  ....       0.010 sec  ( 63.2 % of SOSCF)
  Orb grad                  ....       0.000 sec  (  1.0 % of SOSCF)
  Rot update                ....       0.001 sec  (  8.7 % of SOSCF)
  Step                      ....       0.004 sec  ( 26.9 % of SOSCF)
Finished LeanSCF after   9.5 sec

Maximum memory used throughout the entire LEANSCF-calculation: 14.2 MB


-------------------------------------------------------------------------------
                          DFT DISPERSION CORRECTION                            
                                                                               
                                DFTD4 V3.4.0                                   
-------------------------------------------------------------------------------
The PBE functional is recognized
Active option DFTDOPT                   ...         5   

-------------------------   ----------------
Dispersion correction           -0.019863628
-------------------------   ----------------

------------------   -----------------
gCP correction             0.068992051
------------------   -----------------

-------------------------   --------------------
FINAL SINGLE POINT ENERGY      -348.162543611365
-------------------------   --------------------


------------------------------------------------------------------------------
                              ORCA PROPERTY CALCULATIONS
------------------------------------------------------------------------------

GBWName                                 ... sp.gbw
Number of atoms                         ...     19
Number of basis functions               ...    146
Max core memory                         ...   1024 MB

Electric properties:
Dipole moment                           ... YES
Quadrupole moment                       ...  NO
Static polarizability (Dipole/Dipole)   ...  NO
Static polarizability (Dipole/Quad.)    ...  NO
Static polarizability (Quad./Quad.)     ...  NO
Static polarizability (Velocity)        ...  NO

Atomic electric properties:
Dipole moment                           ...  NO
Quadrupole moment                       ...  NO
Static polarizability                   ...  NO

Choice of electric origin               ... Center of mass
Position of electric origin             ...    -0.000008    -0.000001    -0.000002

General magnetic properties:
Magnetizability                         ...  NO

EPR properties:
g-Tensor (aka g-matrix)                 ...  NO
Zero-Field splitting spin-orbit         ...  NO
Zero-field splitting spin-spin          ...  NO
Hyperfine couplings                     ...  NO (   0 nuclei)
Quadrupole couplings                    ...  NO (   0 nuclei)
Contact density                         ...  NO (   0 nuclei)

NMR properties:
Chemical shifts                         ...  NO (   0 nuclei)
Spin-rotation constants                 ...  NO (   0 nuclei)
Spin-spin couplings                     ...  NO (   0 nuclei,    0 pairs)

Choice of magnetic origin               ... GIAO
Position of magnetic origin             ...     0.000000     0.000000     0.000000

Properties with geometric perturbations:
SCF Hessian                             ...  NO
IR spectrum                             ...  NO
VCD spectrum                            ...  NO
X-ray spectroscopy properties:
SCF XES/XAS/RIXS spectra                ...  NO


-------------
DIPOLE MOMENT
-------------

Method             : SCF
Type of density    : Electron Density
Multiplicity       :   1
Irrep              :   0
Energy             :  -348.2116720341288101 Eh
Relativity type    : 
Basis              : AO
                                X                 Y                 Z
Electronic contribution:      4.475721906       0.333307131       1.124156561
Nuclear contribution   :     -4.463660141      -0.389700031      -1.271765452
                        -----------------------------------------
Total Dipole Moment    :      0.012061765      -0.056392900      -0.147608891
                        -----------------------------------------
Magnitude (a.u.)       :      0.158474068
Magnitude (Debye)      :      0.402809068



--------------------
Rotational spectrum 
--------------------
 
Rotational constants in cm-1:             0.119840             0.037402             0.034558 
Rotational constants in MHz :          3592.707950          1121.280923          1036.030647 

Dipole components along the rotational axes: 
x,y,z [a.u.] :     0.011485    -0.005365    -0.157966 
x,y,z [Debye]:     0.029193    -0.013636    -0.401518 

 

Dipole moment calculation done in   0.7 sec 

Maximum memory used throughout the entire PROP-calculation: 9.1 MB

--------------------------------
SUGGESTED CITATIONS FOR THIS RUN
--------------------------------

Below you find a list of papers that are relevant to this ORCA run
We neither can nor want to force you to cite these papers, but we appreciate if you do
You receive ORCA, which is the product of decades of hard work by many enthusiastic individuals, for free
The only thing we kindly ask in return is that you cite our papers,
We deeply appreciate it, if you show your appreciation for ORCA by not just citing the generic ORCA reference.

Please note that relegating all ORCA citations to the supporting information does *not* help us.
SI sections are not indexed - citations you put there will not count into any citation statistics
But we need these citations in order to attract the funding resources that allow us to do what we are doing

Therefore, if you are a happy ORCA user, please consider citing a few of the papers listed below in the main body of your paper

In addition to the list printed below, the program has created the file sp.bibtex that contains the list in bibtex format
You can import this file easily into all common literature databanks and citation aid programs


List of essential papers. We consider these as the minimum necessary citations

  1. Neese,F.
     Software update: the ORCA program system, version 5.0
     WIRES Comput. Molec. Sci., 2022 12(1)e1606
     doi.org/10.1002/wcms.1606

List of papers to cite with high priority. The work reported in these papers was absolutely
necessary for this run to complete.
Our perspective: the developers of density functionals and basis sets usually get cited in chemistry papers
Good! But without the algorithms to do something with them, the functionals or basis sets would not do anything.
Hence, in our opinion, the algorithm design and method developments papers are equally worthy of getting cited

  1. Neese,F.
     An improvement of the resolution of the identity approximation for the formation of the Coulomb matrix
     J. Comp. Chem., 2003 24(14)1740-1747
     doi.org/10.1002/jcc.10318
  2. Neese,F.
     The SHARK Integral Generation and Digestion System
     J. Comp. Chem., 2022  1-16
     doi.org/10.1002/jcc.26942
  3. Caldeweyher,E.; Bannwarth,C.; Grimme,S.
     Extension of the D3 dispersion coefficient model
     J. Chem. Phys., 2017 147 034112
     doi.org/10.1063/1.4993215
  4. Caldeweyher,E.; Ehlert,S.; Hansen,A.; Neugebauer,H.; Spicher,S.; Bannwarth,C.; Grimme,S.
     A generally applicable atomic-charge dependent London dispersion correction
     J. Chem. Phys., 2019 150 154122
     doi.org/10.1063/1.5090222
  5. Caldeweyher,E.; Mewes,J.; Ehlert,S.; Grimme,S.
     Extension and evaluation of the D4 London-dispersion model for periodic systems
     Phys. Chem. Chem. Phys., 2020 22(16)8499-8512
     doi.org/10.1039/D0CP00502A
  6. Wittmann,L.; Gordiy,I.; Friede,M.; Helmich-Paris,B.; Grimme,S.; Hansen,A.; Bursch,M.
     Extension of the D3 and D4 London Dispersion Corrections to the full Actinides Series
     Phys. Chem. Chem. Phys., 2024 26(32)21379-21394
     doi.org/https://doi.org/10.1039/D4CP01514B 

List of suggested additional citations. These are papers that are important in the 'surrounding' of 
of this run, or papers that preceded the highly important papers. If you like your results we are grateful for a citation.

  1. Neese,F.
     The ORCA program system
     WIRES Comput. Molec. Sci., 2012 2(1)73-78
     doi.org/10.1002/wcms.81
  2. Neese,F.
     Software update: the ORCA program system, version 4.0
     WIRES Comput. Molec. Sci., 2018 8(1)1-6
     doi.org/10.1002/wcms.1327
  3. Neese,F.; Wennmohs,F.; Becker,U.; Riplinger,C.
     The ORCA quantum chemistry program package
     J. Chem. Phys., 2020 152 Art. No. L224108
     doi.org/10.1063/5.0004608

List of optional additional citations

  1. Neese,F.
     Approximate second-order SCF convergence for spin unrestricted wavefunctions
     Chem. Phys. Lett., 2000 325(1-3)93-98
     doi.org/10.1016/s0009-2614(00)00662-x

Timings for individual modules:

Sum of individual times          ...       11.207 sec (=   0.187 min)
Startup calculation              ...        0.406 sec (=   0.007 min)   3.6 %
SCF iterations                   ...       10.022 sec (=   0.167 min)  89.4 %
Property calculations            ...        0.778 sec (=   0.013 min)   6.9 %
                             ****ORCA TERMINATED NORMALLY****
TOTAL RUN TIME: 0 days 0 hours 0 minutes 14 seconds 167 msec
