 Entering Gaussian System
 *********************************************
 Gaussian 98:
 frequency output generated by the xtb code
 *********************************************
                         Standard orientation:
 --------------------------------------------------------------------
  Center     Atomic     Atomic              Coordinates (Angstroms)
  Number     Number      Type              X           Y           Z
 --------------------------------------------------------------------
    1          6             0       -2.884866   -0.075520   -0.004105
    2          6             0       -1.390471    0.002475    0.003538
    3          6             0       -0.712827    1.216519   -0.008025
    4          6             0        0.669788    1.225751   -0.009945
    5          6             0        1.353426    0.012500   -0.000616
    6          7             0        0.710918   -1.147529    0.011141
    7          6             0       -0.608770   -1.148022    0.013195
    8          6             0        2.849606   -0.040919   -0.003724
    9          1             0       -3.236299   -0.748682    0.775989
   10          1             0       -3.325068    0.906400    0.152985
   11          1             0       -3.236016   -0.462608   -0.960626
   12          1             0       -1.265577    2.146379   -0.014401
   13          1             0        1.216627    2.157076   -0.017734
   14          1             0       -1.071409   -2.127647    0.024333
   15          1             0        3.250570    0.493738    0.855814
   16          1             0        3.175041   -1.076106    0.033063
   17          1             0        3.242659    0.426185   -0.905526
 --------------------------------------------------------------------
     1 basis functions        1 primitive gaussians
     1 alpha electrons        1 beta electrons
 
 Harmonic frequencies (cm**-1), IR intensities (km*mol⁻¹),
 Raman scattering activities (A**4/amu), Raman depolarization ratios,
 reduced masses (AMU), force constants (mDyne/A) and normal coordinates:
                      1                      2                      3
                        a                      a                      a 
 Frequencies --   -30.6776                58.2075               119.5548
 Red. masses --     1.4204                 1.4342                 9.0861
 Frc consts  --     0.0000                 0.0000                 0.0000
 IR Inten    --     0.7237                 0.2419                 1.1052
 Raman Activ --     0.0000                 0.0000                 0.0000
 Depolar     --     0.0000                 0.0000                 0.0000
 Atom AN      X      Y      Z        X      Y      Z        X      Y      Z
   1   6    -0.00   0.01  -0.04     0.00  -0.00  -0.05    -0.00   0.01   0.46
   2   6     0.00  -0.01   0.04    -0.00   0.00  -0.01     0.00  -0.00  -0.06
   3   6    -0.00  -0.01  -0.06    -0.00   0.00   0.10    -0.00  -0.00  -0.21
   4   6    -0.01  -0.00  -0.08    -0.00   0.00   0.12    -0.00  -0.00  -0.25
   5   6    -0.00  -0.00  -0.01     0.00   0.00   0.05     0.00  -0.00  -0.07
   6   7     0.01  -0.00   0.09     0.00   0.00  -0.04     0.00  -0.00  -0.27
   7   6     0.00  -0.01   0.11     0.00  -0.00  -0.07     0.00  -0.00  -0.29
   8   6    -0.00   0.01  -0.03    -0.00  -0.00  -0.06     0.00   0.00   0.48
   9   1    -0.00  -0.43  -0.39    -0.01  -0.00  -0.02     0.09  -0.03   0.15
  10   1     0.00  -0.08   0.52    -0.00  -0.00  -0.01     0.02  -0.00   0.23
  11   1    -0.00   0.54  -0.23     0.01   0.00  -0.02    -0.11   0.04   0.16
  12   1    -0.00  -0.00  -0.03    -0.00   0.00   0.05    -0.00  -0.00  -0.06
  13   1    -0.00  -0.00  -0.04    -0.00   0.00   0.06    -0.00  -0.00  -0.09
  14   1     0.00  -0.00   0.06     0.00  -0.00  -0.04     0.00  -0.00  -0.12
  15   1     0.00   0.01  -0.01     0.05   0.48  -0.34    -0.10   0.07   0.14
  16   1     0.00   0.00   0.00     0.00   0.02   0.51    -0.00   0.00   0.25
  17   1    -0.00  -0.01  -0.01    -0.05  -0.50  -0.30     0.10  -0.06   0.15
                      4                      5                      6
                        a                      a                      a 
 Frequencies --   274.7879               310.7093               366.3053
 Red. masses --     8.4625                 9.2610                 8.8327
 Frc consts  --     0.0000                 0.0000                 0.0000
 IR Inten    --     1.4309                 0.1261                 1.1223
 Raman Activ --     0.0000                 0.0000                 0.0000
 Depolar     --     0.0000                 0.0000                 0.0000
 Atom AN      X      Y      Z        X      Y      Z        X      Y      Z
   1   6    -0.03   0.46  -0.00    -0.01   0.00   0.21    -0.08   0.29  -0.00
   2   6     0.01  -0.18  -0.00    -0.00  -0.00  -0.44    -0.04  -0.32  -0.01
   3   6     0.03  -0.20   0.00     0.00  -0.00  -0.37    -0.16  -0.26   0.03
   4   6    -0.02  -0.20   0.00     0.00   0.00   0.35    -0.15   0.18  -0.03
   5   6    -0.01  -0.19   0.00     0.00   0.00   0.39     0.06   0.30   0.01
   6   7     0.03  -0.23   0.00     0.00   0.00   0.19     0.18   0.27   0.03
   7   6    -0.01  -0.21  -0.00     0.00   0.00  -0.16     0.17  -0.18  -0.03
   8   6     0.01   0.46  -0.01     0.00  -0.00  -0.19     0.05  -0.28  -0.00
   9   1    -0.12   0.20   0.01     0.14  -0.01   0.11    -0.14   0.15   0.01
  10   1     0.15   0.20  -0.02     0.03  -0.00   0.16     0.14   0.16  -0.01
  11   1    -0.07   0.18   0.00    -0.17   0.02   0.12    -0.09   0.14   0.00
  12   1     0.01  -0.06   0.00     0.00  -0.00  -0.18    -0.11  -0.11   0.02
  13   1     0.00  -0.06   0.00     0.00   0.00   0.18    -0.13   0.10  -0.02
  14   1    -0.00  -0.06  -0.00     0.00  -0.00  -0.05     0.14  -0.10  -0.02
  15   1    -0.09   0.21  -0.00     0.14  -0.03  -0.10     0.11  -0.15   0.00
  16   1     0.18   0.19  -0.00     0.00  -0.00  -0.15    -0.17  -0.14  -0.00
  17   1    -0.08   0.20  -0.00    -0.14   0.03  -0.10     0.09  -0.15  -0.00
                      7                      8                      9
                        a                      a                      a 
 Frequencies --   376.9721               456.7991               466.4814
 Red. masses --    10.0428                 8.6613                10.5595
 Frc consts  --     0.0000                 0.0000                 0.0000
 IR Inten    --     3.6658                 0.7246                 0.3920
 Raman Activ --     0.0000                 0.0000                 0.0000
 Depolar     --     0.0000                 0.0000                 0.0000
 Atom AN      X      Y      Z        X      Y      Z        X      Y      Z
   1   6     0.00  -0.02   0.02    -0.09  -0.01   0.02     0.48   0.05   0.01
   2   6     0.00   0.02  -0.10    -0.06   0.00  -0.56     0.36  -0.04  -0.10
   3   6     0.01   0.02   0.35     0.00  -0.02   0.21    -0.01   0.15   0.03
   4   6     0.01  -0.02  -0.38     0.02  -0.03   0.05    -0.08   0.19   0.01
   5   6    -0.00  -0.02   0.16     0.06  -0.01  -0.48    -0.35   0.04  -0.08
   6   7    -0.01  -0.01   0.52    -0.00   0.03   0.22     0.02  -0.14   0.04
   7   6    -0.01   0.01  -0.43    -0.01   0.04   0.15     0.06  -0.21   0.02
   8   6    -0.00   0.02  -0.06     0.08   0.01   0.03    -0.47  -0.03   0.01
   9   1     0.03  -0.01   0.01     0.10  -0.00   0.07     0.14   0.03   0.01
  10   1    -0.00  -0.01   0.03    -0.00  -0.00   0.08     0.16   0.03   0.01
  11   1    -0.02  -0.01   0.01    -0.18  -0.00   0.07     0.10   0.02   0.01
  12   1     0.01   0.01   0.24     0.02   0.00   0.29    -0.08  -0.01   0.05
  13   1     0.01  -0.01  -0.26    -0.00  -0.00   0.21     0.04   0.02   0.04
  14   1    -0.01   0.00  -0.29     0.01   0.01   0.26    -0.03  -0.03   0.05
  15   1     0.05  -0.01  -0.04    -0.12   0.02   0.07    -0.14  -0.02   0.01
  16   1     0.01   0.01  -0.06     0.03   0.01   0.08    -0.17  -0.02   0.01
  17   1    -0.07   0.03  -0.04     0.16  -0.01   0.07    -0.10  -0.02   0.01
                     10                     11                     12
                        a                      a                      a 
 Frequencies --   621.6108               689.4758               760.3147
 Red. masses --    11.8191                10.9757                10.5942
 Frc consts  --     0.0000                 0.0000                 0.0000
 IR Inten    --     2.3226                 4.5567                 1.6423
 Raman Activ --     0.0000                 0.0000                 0.0000
 Depolar     --     0.0000                 0.0000                 0.0000
 Atom AN      X      Y      Z        X      Y      Z        X      Y      Z
   1   6     0.02   0.08  -0.00    -0.01  -0.00  -0.05     0.46   0.03   0.01
   2   6     0.01   0.14  -0.00     0.00  -0.00  -0.35     0.08  -0.01  -0.01
   3   6    -0.42   0.30  -0.00     0.00   0.00   0.30    -0.25   0.03  -0.00
   4   6    -0.40  -0.28   0.00     0.00  -0.00  -0.34    -0.25  -0.07  -0.01
   5   6     0.04  -0.11  -0.00    -0.00   0.00   0.47     0.08  -0.01   0.01
   6   7     0.36  -0.31   0.00     0.01  -0.01  -0.44    -0.36   0.14  -0.01
   7   6     0.32   0.25  -0.00     0.01   0.00   0.35    -0.32  -0.12  -0.00
   8   6     0.07  -0.07   0.00    -0.01   0.00   0.07     0.47  -0.01   0.00
   9   1    -0.01   0.04   0.00     0.08   0.00   0.03     0.13   0.00  -0.00
  10   1     0.03   0.03  -0.00     0.02   0.00   0.03     0.12   0.00  -0.00
  11   1    -0.00   0.03  -0.00    -0.11  -0.00   0.03     0.14   0.00  -0.00
  12   1    -0.08   0.11  -0.00     0.00   0.00   0.10    -0.12  -0.02   0.02
  13   1    -0.08  -0.10   0.00     0.00  -0.00  -0.12    -0.13   0.02   0.01
  14   1     0.02   0.10  -0.00     0.00   0.00   0.17    -0.10  -0.02   0.01
  15   1     0.04  -0.04   0.00     0.15  -0.01  -0.05     0.13   0.00  -0.00
  16   1    -0.03  -0.04   0.00     0.00  -0.00  -0.06     0.17   0.01  -0.00
  17   1     0.04  -0.04  -0.00    -0.16   0.01  -0.05     0.12   0.01  -0.00
                     13                     14                     15
                        a                      a                      a 
 Frequencies --   804.8075               875.4218               901.1872
 Red. masses --     3.7798                11.0490                 3.2476
 Frc consts  --     0.0000                 0.0000                 0.0000
 IR Inten    --     5.0117                 1.7764                 0.3332
 Raman Activ --     0.0000                 0.0000                 0.0000
 Depolar     --     0.0000                 0.0000                 0.0000
 Atom AN      X      Y      Z        X      Y      Z        X      Y      Z
   1   6     0.01   0.00  -0.06     0.30   0.02   0.00    -0.00   0.00   0.02
   2   6     0.01  -0.00  -0.17    -0.11   0.01  -0.01    -0.00   0.00   0.01
   3   6    -0.01   0.01   0.27     0.06  -0.41   0.01    -0.00   0.01   0.05
   4   6    -0.01   0.01   0.28    -0.07  -0.44   0.01     0.00   0.01   0.22
   5   6    -0.00  -0.00  -0.14     0.10   0.00  -0.00    -0.00   0.00   0.03
   6   7    -0.01  -0.00  -0.01    -0.07   0.35  -0.00     0.00  -0.01  -0.01
   7   6    -0.01  -0.01   0.21     0.08   0.42  -0.01    -0.00  -0.01  -0.39
   8   6     0.02  -0.00  -0.06    -0.31   0.01   0.00     0.00   0.00   0.02
   9   1     0.12   0.01   0.04     0.10  -0.00   0.00    -0.03  -0.00  -0.01
  10   1     0.03  -0.00   0.06     0.09   0.01  -0.00    -0.01   0.00  -0.01
  11   1    -0.14  -0.01   0.04     0.10  -0.00  -0.00     0.04   0.00  -0.01
  12   1    -0.01  -0.00  -0.51     0.12  -0.06  -0.01    -0.00   0.00  -0.03
  13   1    -0.00  -0.00  -0.54    -0.11  -0.07  -0.02     0.00  -0.00  -0.49
  14   1    -0.01  -0.01  -0.34     0.07   0.10   0.00     0.00   0.01   0.74
  15   1    -0.11   0.01   0.04    -0.10   0.01   0.00     0.03  -0.00  -0.01
  16   1     0.00   0.00   0.05    -0.11  -0.00   0.00     0.00  -0.00  -0.01
  17   1     0.13  -0.01   0.04    -0.10   0.01  -0.00    -0.02  -0.00  -0.01
                     16                     17                     18
                        a                      a                      a 
 Frequencies --   927.7344               986.6473              1014.9314
 Red. masses --     3.8550                 4.5103                 3.8851
 Frc consts  --     0.0000                 0.0000                 0.0000
 IR Inten    --     0.2418                11.5704                 0.8937
 Raman Activ --     0.0000                 0.0000                 0.0000
 Depolar     --     0.0000                 0.0000                 0.0000
 Atom AN      X      Y      Z        X      Y      Z        X      Y      Z
   1   6     0.00  -0.00   0.00     0.02  -0.21  -0.00    -0.02   0.38  -0.00
   2   6     0.00   0.00   0.02     0.01  -0.11   0.00    -0.02   0.06  -0.00
   3   6     0.00   0.00   0.38    -0.04   0.10  -0.00    -0.04  -0.16   0.00
   4   6     0.00  -0.00  -0.26    -0.01   0.17   0.00    -0.05   0.11  -0.00
   5   6     0.00  -0.00  -0.01    -0.01  -0.14  -0.00    -0.01  -0.01  -0.01
   6   7    -0.00   0.00   0.07     0.02   0.15  -0.00     0.10  -0.03   0.00
   7   6    -0.00   0.00  -0.20     0.05   0.17  -0.00     0.08  -0.04  -0.00
   8   6    -0.00  -0.00  -0.00    -0.02  -0.38   0.00    -0.02  -0.23   0.01
   9   1    -0.00   0.00   0.00    -0.21   0.08   0.02     0.37  -0.14  -0.03
  10   1     0.01   0.00   0.01     0.31   0.09  -0.01    -0.52  -0.14   0.01
  11   1    -0.00  -0.00   0.00    -0.12   0.09  -0.01     0.21  -0.16   0.02
  12   1    -0.00  -0.01  -0.69    -0.06   0.00   0.00    -0.12  -0.11  -0.00
  13   1     0.00   0.00   0.46    -0.01   0.06  -0.00    -0.14   0.10   0.00
  14   1     0.00   0.00   0.23     0.04   0.04  -0.00     0.07  -0.04   0.00
  15   1    -0.00  -0.00  -0.00    -0.28   0.16  -0.03    -0.16   0.09  -0.02
  16   1     0.00   0.00  -0.00     0.54   0.08  -0.00     0.31   0.04  -0.00
  17   1    -0.00   0.00  -0.00    -0.26   0.17   0.02    -0.16   0.10   0.01
                     19                     20                     21
                        a                      a                      a 
 Frequencies --  1026.4582              1032.3239              1035.7430
 Red. masses --     4.7887                 4.6535                 9.0541
 Frc consts  --     0.0000                 0.0000                 0.0000
 IR Inten    --     7.7517                14.2971                13.8385
 Raman Activ --     0.0000                 0.0000                 0.0000
 Depolar     --     0.0000                 0.0000                 0.0000
 Atom AN      X      Y      Z        X      Y      Z        X      Y      Z
   1   6    -0.00   0.01   0.11     0.01   0.00  -0.41     0.11  -0.05  -0.01
   2   6    -0.00   0.00  -0.09     0.01   0.00   0.35    -0.13   0.02   0.01
   3   6    -0.00  -0.00  -0.01    -0.00   0.01  -0.06     0.06  -0.37   0.00
   4   6     0.00   0.00  -0.06    -0.01  -0.02  -0.05     0.05   0.36  -0.00
   5   6     0.00   0.00   0.38     0.00   0.00   0.11    -0.12  -0.00   0.00
   6   7     0.00   0.00  -0.04    -0.01   0.02  -0.01     0.04  -0.44   0.00
   7   6     0.00  -0.00  -0.02    -0.00  -0.01  -0.08    -0.03   0.40  -0.01
   8   6    -0.00  -0.01  -0.41    -0.00  -0.00  -0.10     0.11   0.05  -0.01
   9   1    -0.12  -0.02  -0.05     0.45   0.06   0.16     0.00   0.02   0.01
  10   1    -0.03   0.00  -0.06     0.09  -0.01   0.22     0.12   0.03   0.01
  11   1     0.16   0.01  -0.04    -0.55  -0.05   0.13    -0.01   0.02  -0.00
  12   1    -0.00  -0.00   0.05     0.01   0.01   0.09    -0.13  -0.19   0.01
  13   1    -0.00   0.00   0.03     0.00  -0.01   0.06    -0.19   0.22  -0.00
  14   1     0.00  -0.00   0.05     0.01  -0.01   0.09    -0.28   0.23   0.00
  15   1    -0.50  -0.00   0.14    -0.13  -0.00   0.04     0.08  -0.03   0.00
  16   1    -0.01   0.01   0.22    -0.00   0.00   0.06    -0.04  -0.01   0.00
  17   1     0.51   0.01   0.14     0.13   0.00   0.03     0.09  -0.03   0.00
                     22                     23                     24
                        a                      a                      a 
 Frequencies --  1152.8550              1231.0004              1253.1170
 Red. masses --     2.5120                 5.8850                 3.9700
 Frc consts  --     0.0000                 0.0000                 0.0000
 IR Inten    --     1.3879                31.2154                 1.1748
 Raman Activ --     0.0000                 0.0000                 0.0000
 Depolar     --     0.0000                 0.0000                 0.0000
 Atom AN      X      Y      Z        X      Y      Z        X      Y      Z
   1   6     0.02   0.04  -0.00     0.18   0.03   0.01     0.08  -0.03   0.00
   2   6    -0.03  -0.10   0.00    -0.41  -0.04  -0.00    -0.16   0.07  -0.00
   3   6    -0.14  -0.04  -0.00    -0.05  -0.11   0.00     0.01   0.17  -0.00
   4   6     0.13   0.05  -0.00    -0.04   0.17  -0.00     0.14   0.09  -0.00
   5   6    -0.10  -0.09   0.00    -0.37   0.09  -0.00     0.17  -0.31   0.00
   6   7    -0.08   0.08  -0.00    -0.01  -0.14   0.00    -0.11  -0.11   0.00
   7   6     0.07   0.21  -0.00     0.08   0.05   0.00    -0.06   0.09   0.00
   8   6     0.05   0.04  -0.00     0.15  -0.03  -0.00    -0.08   0.10  -0.00
   9   1     0.03  -0.01  -0.00     0.11  -0.03  -0.01     0.00   0.01  -0.00
  10   1    -0.04  -0.01   0.00     0.09   0.02  -0.01     0.07   0.02  -0.01
  11   1     0.02  -0.01   0.00     0.09  -0.02  -0.00     0.01   0.01  -0.00
  12   1    -0.52  -0.29   0.00     0.47   0.26  -0.01    -0.23  -0.09   0.00
  13   1     0.61  -0.33   0.00     0.26  -0.12   0.00    -0.31   0.23  -0.00
  14   1     0.12   0.01  -0.00     0.35  -0.14  -0.00     0.64  -0.29  -0.00
  15   1     0.04  -0.03   0.01     0.06  -0.01  -0.01     0.02  -0.03   0.01
  16   1    -0.01   0.00   0.00     0.12   0.02   0.00    -0.14  -0.02  -0.00
  17   1     0.04  -0.03  -0.01     0.06  -0.01   0.01     0.02  -0.04  -0.01
                     25                     26                     27
                        a                      a                      a 
 Frequencies --  1282.9581              1294.2547              1389.4984
 Red. masses --    11.0234                11.2371                 3.6895
 Frc consts  --     0.0000                 0.0000                 0.0000
 IR Inten    --     0.4336                 3.6791                 8.9771
 Raman Activ --     0.0000                 0.0000                 0.0000
 Depolar     --     0.0000                 0.0000                 0.0000
 Atom AN      X      Y      Z        X      Y      Z        X      Y      Z
   1   6     0.17  -0.02   0.00     0.13   0.07   0.00     0.02   0.02   0.00
   2   6    -0.38   0.19  -0.00    -0.27  -0.36   0.00    -0.04  -0.08   0.00
   3   6    -0.39  -0.02   0.00     0.10   0.17  -0.00    -0.05   0.05  -0.00
   4   6     0.36   0.00  -0.00    -0.17   0.21  -0.00     0.06   0.00  -0.00
   5   6     0.45   0.29  -0.00     0.27  -0.29   0.00     0.07  -0.07   0.00
   6   7    -0.02  -0.20   0.00     0.43   0.12  -0.00     0.00   0.05  -0.00
   7   6     0.03  -0.24   0.00    -0.43   0.06  -0.00     0.02  -0.01  -0.00
   8   6    -0.18  -0.06   0.00    -0.08   0.04  -0.00    -0.46   0.02   0.00
   9   1     0.04   0.01   0.01     0.11  -0.05  -0.02     0.00  -0.01  -0.01
  10   1     0.12   0.03  -0.00    -0.01  -0.01   0.00    -0.01  -0.00   0.00
  11   1     0.04   0.02  -0.01     0.08  -0.06   0.01    -0.00  -0.02   0.01
  12   1    -0.04   0.04  -0.00     0.06   0.07  -0.00    -0.00   0.02  -0.00
  13   1     0.11   0.00  -0.00     0.13  -0.04  -0.00    -0.03   0.03  -0.00
  14   1    -0.16   0.00  -0.00    -0.16   0.04  -0.00    -0.06   0.03  -0.00
  15   1    -0.12   0.07  -0.01    -0.05  -0.01   0.03     0.47  -0.11  -0.17
  16   1    -0.03  -0.00   0.00    -0.14  -0.03  -0.00     0.45   0.16  -0.01
  17   1    -0.11   0.07   0.01    -0.05  -0.02  -0.03     0.47  -0.10   0.17
                     28                     29                     30
                        a                      a                      a 
 Frequencies --  1396.4963              1404.4150              1459.9547
 Red. masses --    10.0691                 3.3684                 5.1678
 Frc consts  --     0.0000                 0.0000                 0.0000
 IR Inten    --    14.5786                 5.5906                44.2588
 Raman Activ --     0.0000                 0.0000                 0.0000
 Depolar     --     0.0000                 0.0000                 0.0000
 Atom AN      X      Y      Z        X      Y      Z        X      Y      Z
   1   6     0.00  -0.13  -0.00     0.44   0.04   0.02     0.09  -0.01   0.01
   2   6    -0.14   0.44  -0.00    -0.06   0.05   0.00    -0.25   0.08   0.00
   3   6     0.32  -0.08   0.00     0.03  -0.03  -0.00    -0.01   0.08  -0.00
   4   6    -0.22  -0.16   0.00    -0.03  -0.00  -0.00     0.21  -0.11   0.00
   5   6    -0.12   0.27  -0.00     0.00   0.05  -0.00    -0.27  -0.12  -0.00
   6   7     0.38  -0.04  -0.00     0.05  -0.03   0.00     0.16   0.20  -0.00
   7   6    -0.34  -0.15   0.00    -0.05   0.00  -0.00     0.12  -0.15   0.00
   8   6    -0.02  -0.09   0.00     0.00  -0.02   0.00     0.07   0.19  -0.02
   9   1     0.01   0.07   0.08    -0.48   0.02  -0.22     0.02  -0.01  -0.01
  10   1     0.12   0.03  -0.02    -0.42  -0.19  -0.07     0.02   0.01  -0.04
  11   1     0.03   0.11  -0.06    -0.50  -0.01   0.20    -0.01   0.03   0.00
  12   1    -0.21  -0.20   0.00     0.01  -0.01  -0.00    -0.11  -0.03   0.00
  13   1     0.03  -0.11   0.00     0.02  -0.02   0.00    -0.14   0.08  -0.00
  14   1     0.11  -0.13   0.00     0.04  -0.02  -0.00    -0.16   0.05  -0.00
  15   1     0.05   0.04  -0.06    -0.00   0.01  -0.01    -0.11  -0.40   0.31
  16   1     0.12   0.02   0.00     0.00  -0.00   0.00     0.23   0.09   0.02
  17   1     0.05   0.05   0.05    -0.00   0.01   0.01    -0.13  -0.39  -0.27
                     31                     32                     33
                        a                      a                      a 
 Frequencies --  1472.3946              1478.4416              1479.3339
 Red. masses --     1.5698                 3.5228                 3.2003
 Frc consts  --     0.0000                 0.0000                 0.0000
 IR Inten    --     7.3102                15.7344                15.0264
 Raman Activ --     0.0000                 0.0000                 0.0000
 Depolar     --     0.0000                 0.0000                 0.0000
 Atom AN      X      Y      Z        X      Y      Z        X      Y      Z
   1   6     0.00  -0.00   0.00    -0.00  -0.07  -0.16     0.04   0.12  -0.15
   2   6    -0.01   0.01  -0.00     0.18   0.05  -0.03    -0.18  -0.02  -0.02
   3   6    -0.00  -0.00  -0.00    -0.06  -0.14   0.00     0.06   0.12  -0.00
   4   6     0.00  -0.00  -0.01    -0.15   0.13   0.00     0.14  -0.13   0.00
   5   6    -0.01  -0.00   0.04     0.23   0.05  -0.00    -0.21  -0.01   0.00
   6   7     0.01   0.01   0.00    -0.06  -0.11   0.00     0.07   0.09  -0.00
   7   6     0.01  -0.01  -0.00    -0.10   0.07   0.00     0.06  -0.06   0.00
   8   6     0.01   0.02   0.22    -0.08   0.08  -0.00     0.07  -0.06   0.01
   9   1     0.00   0.00   0.00    -0.19   0.41   0.26    -0.26   0.06  -0.09
  10   1    -0.00  -0.00  -0.01    -0.17  -0.15   0.45     0.14  -0.02   0.55
  11   1    -0.00   0.01  -0.00     0.20   0.00  -0.09     0.19  -0.50   0.13
  12   1    -0.00  -0.00   0.00     0.11   0.04  -0.00    -0.10  -0.03   0.00
  13   1    -0.00   0.00   0.00     0.11  -0.05  -0.00    -0.10   0.05  -0.00
  14   1    -0.01   0.00   0.00     0.11  -0.05  -0.00    -0.08   0.03  -0.00
  15   1    -0.26   0.35  -0.08    -0.07  -0.20   0.15     0.04   0.14  -0.10
  16   1     0.00  -0.02  -0.73     0.15   0.06  -0.00    -0.09  -0.04  -0.01
  17   1     0.25  -0.39  -0.07    -0.07  -0.21  -0.13     0.05   0.14   0.09
                     34                     35                     36
                        a                      a                      a 
 Frequencies --  1486.9857              1568.7372              1594.8417
 Red. masses --     3.8135                11.3269                11.7678
 Frc consts  --     0.0000                 0.0000                 0.0000
 IR Inten    --     4.5633                31.4418                19.5762
 Raman Activ --     0.0000                 0.0000                 0.0000
 Depolar     --     0.0000                 0.0000                 0.0000
 Atom AN      X      Y      Z        X      Y      Z        X      Y      Z
   1   6    -0.12   0.14   0.04     0.03   0.02  -0.00     0.06  -0.01  -0.00
   2   6     0.19   0.07   0.01    -0.07  -0.51   0.00    -0.34   0.02  -0.00
   3   6     0.04  -0.08  -0.00     0.20   0.34  -0.00     0.46   0.15  -0.00
   4   6    -0.17   0.04  -0.00     0.12  -0.29   0.00    -0.43   0.13  -0.00
   5   6     0.21   0.18  -0.00    -0.04   0.52  -0.00     0.22  -0.04  -0.00
   6   7    -0.06  -0.16   0.00    -0.09  -0.26   0.00    -0.33  -0.05   0.00
   7   6    -0.13   0.07  -0.00    -0.12   0.22  -0.00     0.46  -0.17   0.00
   8   6    -0.07   0.06  -0.00     0.01  -0.03   0.00    -0.03   0.01  -0.00
   9   1    -0.05  -0.37  -0.34     0.06   0.04   0.06     0.01   0.02   0.02
  10   1     0.29   0.15  -0.01    -0.09  -0.04  -0.02     0.01  -0.00   0.01
  11   1    -0.08  -0.42   0.20     0.04   0.06  -0.04     0.02   0.01  -0.01
  12   1     0.03  -0.02   0.00    -0.11  -0.01   0.00    -0.09  -0.08   0.00
  13   1     0.09  -0.07   0.00    -0.11   0.01   0.00     0.05  -0.06   0.00
  14   1     0.11  -0.05   0.00     0.06   0.01  -0.00    -0.12   0.05  -0.00
  15   1    -0.08  -0.17   0.14    -0.05  -0.04   0.04    -0.01  -0.01   0.01
  16   1     0.16   0.06  -0.01     0.11   0.03  -0.00    -0.00   0.00   0.00
  17   1    -0.07  -0.19  -0.12    -0.04  -0.04  -0.04    -0.01  -0.01  -0.01
                     37                     38                     39
                        a                      a                      a 
 Frequencies --  3003.7062              3010.8368              3021.2081
 Red. masses --     1.8559                 1.9357                 1.4778
 Frc consts  --     0.0000                 0.0000                 0.0000
 IR Inten    --    23.1814                24.3709                17.9000
 Raman Activ --     0.0000                 0.0000                 0.0000
 Depolar     --     0.0000                 0.0000                 0.0000
 Atom AN      X      Y      Z        X      Y      Z        X      Y      Z
   1   6    -0.04  -0.05  -0.27     0.00   0.00   0.00     0.01   0.01  -0.01
   2   6    -0.00  -0.00  -0.01     0.00   0.00   0.00    -0.00  -0.00  -0.00
   3   6     0.00   0.00  -0.00    -0.00  -0.00  -0.00    -0.00   0.00  -0.00
   4   6     0.00   0.00   0.00     0.00   0.00  -0.00    -0.01  -0.01   0.00
   5   6     0.00   0.00   0.00    -0.00  -0.00   0.01     0.01   0.00   0.00
   6   7    -0.00  -0.00   0.00     0.00   0.00   0.00    -0.00  -0.00   0.00
   7   6     0.00   0.00   0.00    -0.00   0.00  -0.00    -0.00  -0.00  -0.00
   8   6    -0.00  -0.00   0.00    -0.01  -0.01   0.29     0.13   0.16   0.03
   9   1    -0.10  -0.20   0.18     0.00   0.00  -0.00    -0.01  -0.03   0.03
  10   1    -0.03   0.05  -0.03     0.00  -0.00   0.00    -0.00   0.01   0.00
  11   1     0.29   0.33   0.80    -0.00  -0.00  -0.01    -0.00  -0.00  -0.01
  12   1     0.00  -0.00  -0.00    -0.00   0.00  -0.00     0.00  -0.01   0.00
  13   1    -0.00  -0.00   0.00    -0.00  -0.00   0.00     0.02   0.03  -0.00
  14   1    -0.01  -0.02  -0.00     0.00  -0.00  -0.00     0.00   0.01  -0.00
  15   1    -0.00  -0.00  -0.00    -0.22  -0.30  -0.44    -0.27  -0.37  -0.63
  16   1     0.00  -0.00   0.00    -0.00   0.00   0.04     0.01   0.04   0.00
  17   1     0.00   0.01  -0.01     0.28   0.34  -0.62    -0.20  -0.24   0.51
                     40                     41                     42
                        a                      a                      a 
 Frequencies --  3024.5164              3038.8008              3043.3864
 Red. masses --     1.6474                 1.6325                 1.8010
 Frc consts  --     0.0000                 0.0000                 0.0000
 IR Inten    --    13.8779                15.9651                49.7658
 Raman Activ --     0.0000                 0.0000                 0.0000
 Depolar     --     0.0000                 0.0000                 0.0000
 Atom AN      X      Y      Z        X      Y      Z        X      Y      Z
   1   6    -0.09  -0.20   0.10     0.11  -0.20  -0.03     0.01  -0.05   0.00
   2   6    -0.01  -0.01   0.00     0.01  -0.01  -0.00    -0.01  -0.01   0.00
   3   6    -0.00   0.01   0.00    -0.02   0.03  -0.00     0.01  -0.01   0.00
   4   6    -0.00  -0.00  -0.00    -0.00  -0.00   0.00    -0.00   0.00   0.00
   5   6     0.00   0.00   0.00    -0.00  -0.00   0.00     0.00   0.00  -0.00
   6   7    -0.00   0.00  -0.00     0.00   0.00   0.00    -0.01  -0.01   0.00
   7   6     0.01   0.03  -0.00     0.01   0.04  -0.00    -0.10  -0.24   0.00
   8   6     0.01   0.01   0.00    -0.00  -0.00  -0.00    -0.00  -0.00  -0.00
   9   1     0.28   0.56  -0.67    -0.02  -0.08   0.06     0.03   0.05  -0.07
  10   1    -0.05   0.06   0.03    -0.37   0.86   0.14    -0.06   0.14   0.02
  11   1     0.08   0.07   0.27    -0.02  -0.06  -0.09     0.01   0.00   0.03
  12   1     0.01  -0.02   0.00     0.05  -0.09   0.00    -0.03   0.06  -0.00
  13   1     0.00   0.00   0.00     0.01   0.01  -0.00     0.00   0.00  -0.00
  14   1    -0.05  -0.10   0.00    -0.06  -0.12   0.00     0.40   0.85  -0.01
  15   1    -0.01  -0.02  -0.03     0.00   0.01   0.01     0.00   0.00   0.00
  16   1     0.00  -0.00   0.00    -0.00   0.00  -0.00     0.00  -0.00   0.00
  17   1    -0.01  -0.01   0.02     0.00   0.00  -0.01     0.00   0.00  -0.00
                     43                     44                     45
                        a                      a                      a 
 Frequencies --  3058.1030              3065.9402              3081.0831
 Red. masses --     1.7986                 1.7336                 1.8629
 Frc consts  --     0.0000                 0.0000                 0.0000
 IR Inten    --    40.9566                 7.3764                49.1992
 Raman Activ --     0.0000                 0.0000                 0.0000
 Depolar     --     0.0000                 0.0000                 0.0000
 Atom AN      X      Y      Z        X      Y      Z        X      Y      Z
   1   6     0.01  -0.02  -0.00    -0.00   0.00   0.00    -0.00   0.00   0.00
   2   6     0.01  -0.00  -0.00    -0.00   0.00   0.00    -0.00  -0.00   0.00
   3   6     0.13  -0.22   0.00    -0.01   0.01  -0.00    -0.04   0.07  -0.00
   4   6     0.04   0.06  -0.00     0.01   0.01  -0.00     0.13   0.23  -0.00
   5   6     0.00   0.00  -0.00     0.00  -0.01   0.00     0.01  -0.00   0.00
   6   7    -0.00   0.00   0.00    -0.00   0.00  -0.00    -0.00  -0.00   0.00
   7   6     0.00   0.02  -0.00    -0.00  -0.00   0.00    -0.00  -0.01   0.00
   8   6     0.01  -0.01   0.00     0.07  -0.25   0.01    -0.00   0.02  -0.00
   9   1     0.00   0.00  -0.01     0.00   0.00  -0.00    -0.00  -0.00   0.00
  10   1    -0.04   0.08   0.01     0.00  -0.01  -0.00     0.01  -0.01  -0.00
  11   1    -0.00  -0.00  -0.00     0.00   0.00   0.00    -0.00   0.00  -0.00
  12   1    -0.47   0.79  -0.01     0.03  -0.05   0.00     0.14  -0.23   0.00
  13   1    -0.14  -0.24   0.00    -0.02  -0.04   0.00    -0.46  -0.79   0.01
  14   1    -0.03  -0.07   0.00     0.00   0.01  -0.00     0.01   0.02  -0.00
  15   1    -0.00  -0.01  -0.01     0.01  -0.02   0.01    -0.01  -0.01  -0.02
  16   1    -0.01   0.04  -0.00    -0.28   0.92  -0.03     0.02  -0.06   0.00
  17   1    -0.00  -0.01   0.01     0.01  -0.03  -0.00    -0.01  -0.01   0.02
