      -----------------------------------------------------------      
     |                   =====================                   |     
     |                           x T B                           |     
     |                   =====================                   |     
     |                         S. Grimme                         |     
     |          Mulliken Center for Theoretical Chemistry        |     
     |                    University of Bonn                     |     
      -----------------------------------------------------------      

   * xtb version 6.7.1 (edcfbbe) compiled by 'albert@albert-system' on 2024-07-22

   xtb is free software: you can redistribute it and/or modify it under
   the terms of the GNU Lesser General Public License as published by
   the Free Software Foundation, either version 3 of the License, or
   (at your option) any later version.
   
   xtb is distributed in the hope that it will be useful,
   but WITHOUT ANY WARRANTY; without even the implied warranty of
   MERCHANTABILITY or FITNESS FOR A PARTICULAR PURPOSE.  See the
   GNU Lesser General Public License for more details.
   
   Cite this work as:
   * C. Bannwarth, E. Caldeweyher, S. Ehlert, A. Hansen, P. Pracht,
     J. Seibert, S. Spicher, S. Grimme, WIREs Comput. Mol. Sci., 2020, 11,
     e01493. DOI: 10.1002/wcms.1493
   
   for GFN2-xTB:
   * C. Bannwarth, S. Ehlert and S. Grimme., J. Chem. Theory Comput., 2019,
     15, 1652-1671. DOI: 10.1021/acs.jctc.8b01176
   for GFN1-xTB:
   * S. Grimme, C. Bannwarth, P. Shushkov, J. Chem. Theory Comput., 2017,
     13, 1989-2009. DOI: 10.1021/acs.jctc.7b00118
   for GFN0-xTB:
   * P. Pracht, E. Caldeweyher, S. Ehlert, S. Grimme, ChemRxiv, 2019, preprint.
     DOI: 10.26434/chemrxiv.8326202.v1
   for GFN-FF:
   * S. Spicher and S. Grimme, Angew. Chem. Int. Ed., 2020, 59, 15665-15673.
     DOI: 10.1002/anie.202004239
   
   for ALPB and GBSA implicit solvation:
   * S. Ehlert, M. Stahn, S. Spicher, S. Grimme, J. Chem. Theory Comput.,
     2021, 17, 4250-4261. DOI: 10.1021/acs.jctc.1c00471
   
   for ddCOSMO and CPCM-X implicit solvation:
   * M. Stahn, S. Ehlert, S. Grimme, J. Phys. Chem. A,
     2023, XX, XXXX-XXXX. DOI: 10.1021/acs.jpca.3c04382
   
   for DFT-D4:
   * E. Caldeweyher, C. Bannwarth and S. Grimme, J. Chem. Phys., 2017,
     147, 034112. DOI: 10.1063/1.4993215
   * E. Caldeweyher, S. Ehlert, A. Hansen, H. Neugebauer, S. Spicher,
     C. Bannwarth and S. Grimme, J. Chem. Phys., 2019, 150, 154122.
     DOI: 10.1063/1.5090222
   * E. Caldeweyher, J.-M. Mewes, S. Ehlert and S. Grimme, Phys. Chem. Chem. Phys.
     2020, 22, 8499-8512. DOI: 10.1039/D0CP00502A
   
   for sTDA-xTB:
   * S. Grimme and C. Bannwarth, J. Chem. Phys., 2016, 145, 054103.
     DOI: 10.1063/1.4959605
   
   in the mass-spec context:
   * V. Asgeirsson, C. Bauer and S. Grimme, Chem. Sci., 2017, 8, 4879.
     DOI: 10.1039/c7sc00601b
   * J. Koopman and S. Grimme, ACS Omega 2019, 4, 12, 15120-15133.
     DOI: 10.1021/acsomega.9b02011
   
   for metadynamics refer to:
   * S. Grimme, J. Chem. Theory Comput., 2019, 155, 2847-2862
     DOI: 10.1021/acs.jctc.9b00143
   
   for SPH calculations refer to:
   * S. Spicher and S. Grimme, J. Chem. Theory Comput., 2021, 17, 1701-1714
     DOI: 10.1021/acs.jctc.0c01306
   
   for ONIOM refer to:
   * C. Plett, A. Katbashev, S. Ehlert, S. Grimme, M. Bursch,
     Phys. Chem. Chem. Phys., 2023, 25, 17860-17868. DOI: 10.1039/D3CP02178E
   
   for DIPRO refer to:
   * J. Kohn, N. Gildemeister, S. Grimme, D. Fazzi, A. Hansen,
     J. Chem. Phys., 2023, just accepted.
   
   for PTB refer to:
   * S. Grimme, M. Mueller, A. Hansen, J. Chem. Phys., 2023, 158, 124111.
     DOI: 10.1063/5.0137838
   
   with help from (in alphabetical order)
   P. Atkinson, C. Bannwarth, F. Bohle, G. Brandenburg, E. Caldeweyher
   M. Checinski, S. Dohm, S. Ehlert, S. Ehrlich, I. Gerasimov, C. Hölzer
   A. Katbashev, J. Kohn, J. Koopman, C. Lavigne, S. Lehtola, F. März, M. Müller,
   F. Musil, H. Neugebauer, J. Pisarek, C. Plett, P. Pracht, F. Pultar,
   J. Seibert, P. Shushkov, S. Spicher, M. Stahn, M. Steiner, T. Strunk,
   J. Stückrath, T. Rose, and J. Unsleber
   
 * started run on 2025/04/15 at 20:04:13.927     
   ID    Z sym.   atoms
    1    6 C      1, 2, 4-7, 9
    2    8 O      3
    3    7 N      8
    4    1 H      10-16

           -------------------------------------------------
          |                Calculation Setup                |
           -------------------------------------------------

          program call               : /software/projects/pawsey0265/mwang1/xtb/bin/xtb xtb_opt.coord --opt normal --orca -I xtb_opt-xcontrol-inp
          hostname                   : nid002793
          coordinate file            : xtb_opt.coord
          omp threads                :                    16

           -------------------------------------------------
          |                   Orca driver                   |
           -------------------------------------------------
orca executable           : /software/projects/pawsey0265/mwang1/orca_avx2/orca
orca input file           : xtb_opt.inp
orca input line           : 
orca parallel             : true
orca number of threads    : 16
                         * ORCA takes the control...
  ------------------------------------------------------------------------

                                 *****************
                                 * O   R   C   A *
                                 *****************

                                            #,                                       
                                            ###                                      
                                            ####                                     
                                            #####                                    
                                            ######                                   
                                           ########,                                 
                                     ,,################,,,,,                         
                               ,,#################################,,                 
                          ,,##########################################,,             
                       ,#########################################, ''#####,          
                    ,#############################################,,   '####,        
                  ,##################################################,,,,####,       
                ,###########''''           ''''###############################       
              ,#####''   ,,,,##########,,,,          '''####'''          '####       
            ,##' ,,,,###########################,,,                        '##       
           ' ,,###''''                  '''############,,,                           
         ,,##''                                '''############,,,,        ,,,,,,###''
      ,#''                                            '''#######################'''  
     '                                                          ''''####''''         
             ,#######,   #######,   ,#######,      ##                                
            ,#'     '#,  ##    ##  ,#'     '#,    #''#        ,####,   ,####,        
            ##       ##  ##   ,#'  ##            #'  '#       #'       #'  '#        
            ##       ##  #######   ##           ,######,      #####,   #    #        
            '#,     ,#'  ##    ##  '#,     ,#' ,#      #,     #,   #   #,  ,#        
             '#######'   ##     ##  '#######'  #'      '#     '####' # '####'        



                #########################################################
                #                        -***-                          #
                #          Department of theory and spectroscopy        #
                #                                                       #
                #                      Frank Neese                      #
                #                                                       #
                #     Directorship, Architecture, Infrastructure        #
                #                    SHARK, DRIVERS                     #
                #        Core code/Algorithms in most modules           #
                #                                                       #
                #        Max Planck Institute fuer Kohlenforschung      #
                #                Kaiser Wilhelm Platz 1                 #
                #                 D-45470 Muelheim/Ruhr                 #
                #                      Germany                          #
                #                                                       #
                #                  All rights reserved                  #
                #                        -***-                          #
                #########################################################


                         Program Version 6.0.1  -  RELEASE   -


 With contributions from (in alphabetic order):
[Max-Planck-Institut fuer Kohlenforschung]                               
  Daniel Aravena         : Magnetic Suceptibility                        
  Michael Atanasov       : Ab Initio Ligand Field Theory (pilot matlab implementation)
  Alexander A. Auer      : GIAO ZORA, VPT2 properties, NMR spectrum      
  Ute Becker             : All parallelization in ORCA, NUMFREQ, NUMCALC 
  Giovanni Bistoni       : ED, misc. LED, open-shell LED, HFLD           
  Martin Brehm           : Molecular dynamics                            
  Dmytro Bykov           : pre 5.0 version of the SCF Hessian            
  Marcos Casanova-Páez   : Triplet and SCS-CIS(D). UHF-(DLPNO)-IP/EA/STEOM-CCSD. UHF-CVS-IP/STEOM-CCSD   
  Vijay G. Chilkuri      : MRCI spin determinant printing, contributions to CSF-ICE 
  Pauline Colinet        : FMM embedding                                 
  Dipayan Datta          : RHF DLPNO-CCSD density                        
  Achintya Kumar Dutta   : EOM-CC, STEOM-CC                              
  Nicolas Foglia         : Exact transition moments, OPA infrastructure, MCD improvements    
  Dmitry Ganyushin       : Spin-Orbit,Spin-Spin,Magnetic field MRCI      
  Miquel Garcia-Rates    : C-PCM and meta-GGA Hessian, CCSD/C-PCM, Gaussian charge scheme 
  Tiago L. C. Gouveia    : GS-ROHF, GS-ROCIS                             
  Yang Guo               : DLPNO-NEVPT2, F12-NEVPT2, CIM, IAO-localization        
  Andreas Hansen         : Spin unrestricted coupled pair/coupled cluster methods 
  Ingolf Harden          : AUTO-CI MPn and infrastructure                
  Benjamin Helmich-Paris : MC-RPA, TRAH-(SCF,CASSCF), AVAS, COSX integrals, SCF dyn. polar. 
  Lee Huntington         : MR-EOM, pCC                                   
  Robert Izsak           : Overlap fitted RIJCOSX, COSX-SCS-MP3, EOM     
  Riya Kayal             : Wick's Theorem for AUTO-CI, AUTO-CI UHF-CCSDT 
  Emily Kempfer          : AUTO-CI, RHF CISDT and CCSDT                  
  Christian Kollmar      : KDIIS, OOCD, Brueckner-CCSD(T), CCSD density, CASPT2, CASPT2-K, improved NEVPT2 
  Axel Koslowski         : Symmetry handling                             
  Simone Kossmann        : meta-GGA functionals, TD-DFT gradient, OOMP2, (MP2 Hessian; deprecated post 5.0) 
  Lucas Lang             : DCDCAS                                        
  Marvin Lechner         : AUTO-CI (C++ implementation), FIC-MRCC        
  Spencer Leger          : CASSCF response                               
  Dagmar Lenk            : GEPOL surface, SMD, ORCA-2-JSON               
  Dimitrios Liakos       : Extrapolation schemes; Compound Job, initial MDCI parallelization 
  Dimitrios Manganas     : Further ROCIS development; embedding schemes. LFT, Crystal Embedding 
  Dimitrios Pantazis     : SARC Basis sets                               
  Anastasios Papadopoulos: AUTO-CI, single reference methods and gradients 
  Taras Petrenko         : pre 6.0 DFT Hessian and TD-DFT gradient, (ASA, deprecated), ECA, 1-Electron XAS/XES, NRVS 
  Peter Pinski           : DLPNO-MP2, DLPNO-MP2 Gradient                 
  Christoph Reimann      : Effective Core Potentials                     
  Marius Retegan         : Local ZFS, SOC                                
  Christoph Riplinger    : Optimizer, TS searches, QM/MM, DLPNO-CCSD(T), (RO)-DLPNO pert. Triples 
  Michael Roemelt        : Original ROCIS implementation                 
  Masaaki Saitow         : Open-shell DLPNO-CCSD energy and density      
  Barbara Sandhoefer     : DKH picture change effects                    
  Kantharuban Sivalingam : CASSCF convergence/infrastructure, NEVPT2 and variants, FIC-MRCI 
  Bernardo de Souza      : ESD, SOC TD-DFT                               
  Georgi L. Stoychev     : AutoAux, RI-MP2 NMR, DLPNO-MP2 response, X2C  
  Van Anh Tran           : RI-MP2 g-tensors                              
  Willem Van den Heuvel  : Paramagnetic NMR                              
  Zikuan Wang            : NOTCH, Electric field optimization            
  Frank Wennmohs         : Technical directorship and infrastructure     
  Hang Xu                : AUTO-CI-Response properties                   
                                                                         
[FACCTs GmbH]                                                            
  Markus Bursch, Miquel Garcia-Rates, Christoph Riplinger, Bernardo de Souza, Georgi L. Stoychev 
                                                                 
  APM, Basis sets (HGBS, AHGBS, def-TZVP (Ac-Lr), def2-XVPD (La-Lu)), CI-OPT, improved COSX, DLPNO-Multilevel,           
  DOCKER, DRACO, updates on ESD, GOAT, IRC, LR-CPCM, MBIS, meta-GGA TD-DFT gradient, ML-optimized integration grids, 
  MM, NACMEs, nearIR, NEB, NEB-TS, NL-DFT gradient (VV10), 2- and 3-layer-ONIOM, interface openCOSMO-RS, QMMM,   
  Crystal-QMMM, SF, symmetry and pop. for TD-DFT, r2SCAN hybrids, SOLVATOR                                   
                                                                         
[Other institutions]                                                     
  V. Asgeirsson          : NEB                                           
  Christoph Bannwarth    : sTDA-DFT, sTD-DFT, PBEh-3c, B97-3c, D3        
  Sebastian Ehlert       : rSCAN, r2SCAN, r2SCAN-3c, D4, dhf basis sets  
  Marvin Friede          : D4 for Fr, Ra, Ac-Lr                          
  Lars Goerigk           : TD-DFT with DH, B97 family of functionals     
  Stefan Grimme          : VdW corrections, initial TS optimization, DFT functionals, gCP, sTDA/sTD-DF 
  Waldemar Hujo          : DFT-NL                                        
  H. Jonsson             : NEB                                           
  Holger Kruse           : gCP                                           
  Marcel Mueller         : wB97X-3c, vDZP basis set                      
  Hagen Neugebauer       : wr2SCAN                                       
  Tobias Risthaus        : range-separated hybrid DFT                    
  Lukas Wittmann         : regularized MP2, r2SCAN double-hybrids, wr2SCAN        
                                                                         
We gratefully acknowledge several colleagues who have allowed us to      
interface, adapt or use parts of their codes:                            
  Ed Valeev, F. Pavosevic, A. Kumar             : LibInt (2-el integral package), F12 methods 
  Garnet Chan, S. Sharma, J. Yang, R. Olivares  : DMRG                   
  Ulf Ekstrom                                   : XCFun DFT Library      
  Mihaly Kallay                                 : mrcc  (arbitrary order and MRCC methods)
  Frank Weinhold                                : gennbo (NPA and NBO analysis)           
  Simon Mueller                                 : openCOSMO-RS                            
  Christopher J. Cramer and Donald G. Truhlar   : smd solvation model                     
  S Lehtola, MJT Oliveira, MAL Marques          : LibXC Library                           
  Liviu Ungur et al                             : ANISO software                          


 Your calculation uses the libint2 library for the computation of 2-el integrals
 For citations please refer to: http://libint.valeyev.net

 Your ORCA version has been built with support for libXC version: 6.2.2
 For citations please refer to: https://libxc.gitlab.io

 This ORCA versions uses:
   CBLAS   interface :  Fast vector & matrix operations
   LAPACKE interface :  Fast linear algebra routines
   SCALAPACK package :  Parallel linear algebra routines
   Shared memory     :  Shared parallel matrices
   BLAS/LAPACK       :  OpenBLAS 0.3.27  USE64BITINT DYNAMIC_ARCH NO_AFFINITY Zen SINGLE_THREADED
        Core in use  :  Zen
   Copyright (c) 2011-2014, The OpenBLAS Project




***************************************
The coordinates will be read from file: xtb_opt.xyz
***************************************


Your calculation utilizes the geometrical counterpoise correction gCP
Please cite in your paper:
H.Kruse, S. Grimme J.Chem.Phys., 136, (2012), 154101 
   

Your calculation utilizes the atom-pairwise dispersion correction
based on EEQ partial charges (D4)


================================================================================

----- Orbital basis set information -----
Your calculation utilizes the basis: def2-mTZVPP
   Stefan Grimme, Andreas Hansen, Sebastian Ehlert, and Jan-Michael Mewes 
   J. Chem. Phys. 154, 064103 (2021). DOI: 10.1063/5.0040021

----- AuxJ basis set information -----
Your calculation utilizes the auxiliary basis: def2/J
   F. Weigend, Phys. Chem. Chem. Phys. 8, 1057 (2006).

================================================================================
                                        WARNINGS
                       Please study these warnings very carefully!
================================================================================



WARNING: SCAN, rSCAN, or r2SCAN functional requested.
  ===> : libXC variant has now been activated.



================================================================================
                                       INPUT FILE
================================================================================
NAME = xtb_opt.inp
|  1> ! r2scan-3c def2/J RI DEFGRID2 scfconv7 ENGRAD tightSCF miniprint
|  2> * xyzfile 0 1 xtb_opt.xyz
|  3> 
|  4>                          ****END OF INPUT****
================================================================================

                     *******************************
                     * Energy+Gradient Calculation *
                     *******************************

---------------------------------
CARTESIAN COORDINATES (ANGSTROEM)
---------------------------------
  C      2.453192   -1.201157    0.001282
  C      1.702242    0.105187   -0.000050
  O      2.270010    1.173384   -0.001209
  C      0.215774    0.027637   -0.000001
  C     -0.513824    1.219018    0.000628
  C     -1.894708    1.169232    0.000670
  C     -2.503013   -0.078656    0.000073
  N     -1.826708   -1.215176   -0.000647
  C     -0.508292   -1.165441   -0.000694
  H      3.521564   -1.000538    0.002901
  H      2.196055   -1.780809   -0.882653
  H      2.193221   -1.781042    0.884201
  H      0.022564    2.157002    0.001084
  H     -2.486189    2.071453    0.001175
  H     -3.580491   -0.178941    0.000176
  H     -0.018885   -2.129757   -0.001443

----------------------------
CARTESIAN COORDINATES (A.U.)
----------------------------
  NO LB      ZA    FRAG     MASS         X           Y           Z
   0 C     6.0000    0    12.011    4.635860   -2.269858    0.002422
   1 C     6.0000    0    12.011    3.216772    0.198775   -0.000094
   2 O     8.0000    0    15.999    4.289697    2.217375   -0.002284
   3 C     6.0000    0    12.011    0.407753    0.052226   -0.000002
   4 C     6.0000    0    12.011   -0.970987    2.303610    0.001188
   5 C     6.0000    0    12.011   -3.580479    2.209529    0.001267
   6 C     6.0000    0    12.011   -4.730009   -0.148639    0.000138
   7 N     7.0000    0    14.007   -3.451977   -2.296350   -0.001223
   8 C     6.0000    0    12.011   -0.960533   -2.202365   -0.001312
   9 H     1.0000    0     1.008    6.654791   -1.890742    0.005482
  10 H     1.0000    0     1.008    4.149943   -3.365241   -1.667972
  11 H     1.0000    0     1.008    4.144587   -3.365681    1.670898
  12 H     1.0000    0     1.008    0.042640    4.076143    0.002048
  13 H     1.0000    0     1.008   -4.698217    3.914479    0.002220
  14 H     1.0000    0     1.008   -6.766148   -0.338149    0.000332
  15 H     1.0000    0     1.008   -0.035687   -4.024657   -0.002726

------------------------------------------------------------------------------
                   ___                                                        
                  /   \      - P O W E R E D   B Y -                         
                 /     \                                                     
                 |  |  |   _    _      __       _____    __    __             
                 |  |  |  | |  | |    /  \     |  _  \  |  |  /  |          
                  \  \/   | |  | |   /    \    | | | |  |  | /  /          
                 / \  \   | |__| |  /  /\  \   | |_| |  |  |/  /          
                |  |  |   |  __  | /  /__\  \  |    /   |      \           
                |  |  |   | |  | | |   __   |  |    \   |  |\   \          
                \     /   | |  | | |  |  |  |  | |\  \  |  | \   \       
                 \___/    |_|  |_| |__|  |__|  |_| \__\ |__|  \__/        
                                                                              
                      - O R C A' S   B I G   F R I E N D -                    
                                      &                                       
                       - I N T E G R A L  F E E D E R -                       
                                                                              
 v1 FN, 2020, v2 2021, v3 2022-2024                                           
------------------------------------------------------------------------------


----------------------
SHARK INTEGRAL PACKAGE
----------------------

Number of atoms                             ...     16
Number of basis functions                   ...    216
Number of shells                            ...    104
Maximum angular momentum                    ...      2
Integral batch strategy                     ... SHARK/LIBINT Hybrid
RI-J (if used) integral strategy            ... SPLIT-RIJ (Revised 2003 algorithm where possible)
Printlevel                                  ...      1
Contraction scheme used                     ... SEGMENTED contraction
Prescreening option                         ... SCHWARTZ
   Thresh                                   ... 3.000e-11
   Tcut                                     ... 1.000e-12
   Tpresel                                  ... 1.000e-12 
Coulomb Range Separation                    ... NOT USED
Exchange Range Separation                   ... NOT USED
Multipole approximations                    ... NOT USED
Finite Nucleus Model                        ... NOT USED
CABS basis                                  ... NOT available
Auxiliary Coulomb fitting basis             ... AVAILABLE
   # of basis functions in Aux-J            ...    518
   # of shells in Aux-J                     ...    170
   Maximum angular momentum in Aux-J        ...      4
Auxiliary J/K fitting basis                 ... NOT available
Auxiliary Correlation fitting basis         ... NOT available
Auxiliary 'external' fitting basis          ... NOT available

Checking pre-screening integrals            ... done (  0.0 sec) Dimension = 104
Check shell pair data                       ... done (  0.0 sec)
Shell pair information
Shell pair cut-off parameter TPreSel        ...   1.0e-12
Total number of shell pairs                 ...      5460
Shell pairs after pre-screening             ...      4927
Total number of primitive shell pairs       ...     20119
Primitive shell pairs kept                  ...     12924
          la=0 lb=0:   1538 shell pairs
          la=1 lb=0:   1829 shell pairs
          la=1 lb=1:    559 shell pairs
          la=2 lb=0:    587 shell pairs
          la=2 lb=1:    352 shell pairs
          la=2 lb=2:     62 shell pairs

Calculating one electron integrals          ... done (  0.0 sec)
Calculating RI/J V-Matrix + Cholesky decomp.... done (  0.0 sec)
Calculating Nuclear repulsion               ... done (  0.0 sec) ENN=    407.034834621760 Eh

Diagonalization of the overlap matrix:
Smallest eigenvalue                        ... 7.384e-05
Time for diagonalization                   ...    0.004 sec
Threshold for overlap eigenvalues          ... 1.000e-07
Number of eigenvalues below threshold      ... 0
Time for construction of square roots      ...    0.004 sec
Total time needed                          ...    0.009 sec

-------------------
DFT GRID GENERATION
-------------------

General Integration Accuracy     IntAcc      ... 4.388
Radial Grid Type                 RadialGrid  ... OptM3 with GC (2021)
Angular Grid (max. ang.)         AngularGrid ... 4 (Lebedev-302)
Angular grid pruning method      GridPruning ... 4 (adaptive)
Weight generation scheme         WeightScheme... mBecke (2022)
Basis function cutoff            BFCut       ... 1.0000e-11
Integration weight cutoff        WCut        ... 1.0000e-14
Partially contracted basis set               ... off
Rotationally invariant grid construction     ... off
Angular grids for H and He will be reduced by one unit
Diffuse basis detected: some atoms will have their outermost
                        angular grid increased by 1.

Total number of grid points                  ...    77013
Total number of batches                      ...     1212
Average number of points per batch           ...       63
Average number of grid points per atom       ...     4813
Initializing property integral containers    ... done (  0.0 sec)

SHARK setup successfully completed in   0.8 seconds

Maximum memory used throughout the entire STARTUP-calculation: 36.6 MB
Occupation numbers will be reassigned to an Aufbau configuration
             **** ENERGY FILE WAS UPDATED (xtb_opt.en.tmp) ****
Finished Guess after   0.1 sec
Maximum memory used throughout the entire GUESS-calculation: 15.8 MB
----------------------------------------D-I-I-S--------------------------------------------
Iteration    Energy (Eh)           Delta-E    RMSDP     MaxDP     DIISErr   Damp  Time(sec)
-------------------------------------------------------------------------------------------
               ***  Starting incremental Fock matrix formation  ***
                              *** Initializing SOSCF ***
---------------------------------------S-O-S-C-F--------------------------------------
Iteration    Energy (Eh)           Delta-E    RMSDP     MaxDP     MaxGrad    Time(sec)
--------------------------------------------------------------------------------------
    1    -400.8351958787316676     0.00e+00  1.66e-06  4.26e-05  7.40e-06     2.5
               *** Restarting incremental Fock matrix formation ***
    2    -400.8351958809360553    -2.20e-09  2.55e-06  9.01e-05  7.44e-06     1.8
                  *** Gradient check signals convergence ***

               *****************************************************
               *                     SUCCESS                       *
               *           SCF CONVERGED AFTER   2 CYCLES          *
               *****************************************************

             **** ENERGY FILE WAS UPDATED (xtb_opt.en.tmp) ****

----------------
TOTAL SCF ENERGY
----------------

Total Energy       :       -400.83519588093606 Eh          -10907.28020 eV

Components:
Nuclear Repulsion  :        407.03483462175990 Eh           11075.98094 eV
Electronic Energy  :       -807.87003050269595 Eh          -21983.26114 eV
One Electron Energy:      -1348.85344012834003 Eh          -36704.16811 eV
Two Electron Energy:        540.98340962564407 Eh           14720.90697 eV

Virial components:
Potential Energy   :       -800.16679037923529 Eh          -21773.64532 eV
Kinetic Energy     :        399.33159449829924 Eh           10866.36512 eV
Virial Ratio       :          2.00376529531686

DFT components:
N(Alpha)           :       31.999991000454 electrons
N(Beta)            :       31.999991000454 electrons
N(Total)           :       63.999982000907 electrons
E(X)               :      -53.878752545002 Eh       
E(C)               :       -2.078767348468 Eh       
E(XC)              :      -55.957519893470 Eh       

---------------
SCF CONVERGENCE
---------------

  Last Energy change         ...    2.2044e-09  Tolerance :   1.0000e-07
  Last MAX-Density change    ...    9.0146e-05  Tolerance :   1.0000e-07
  Last RMS-Density change    ...    2.5467e-06  Tolerance :   5.0000e-09
  Last DIIS Error            ...    3.3016e-05  Tolerance :   1.0000e-07
  Last Orbital Gradient      ...    7.4392e-06  Tolerance :   1.0000e-04
  Last Orbital Rotation      ...    4.5088e-05  Tolerance :   1.0000e-04


----------------
ORBITAL ENERGIES
----------------

  NO   OCC          E(Eh)            E(eV) 
   0   2.0000     -18.946620      -515.5637 
   1   2.0000     -14.168740      -385.5510 
   2   2.0000     -10.131626      -275.6956 
   3   2.0000     -10.086389      -274.4646 
   4   2.0000     -10.084344      -274.4089 
   5   2.0000     -10.066367      -273.9198 
   6   2.0000     -10.062499      -273.8145 
   7   2.0000     -10.058462      -273.7047 
   8   2.0000     -10.042070      -273.2586 
   9   2.0000      -1.018501       -27.7148 
  10   2.0000      -0.932057       -25.3626 
  11   2.0000      -0.793805       -21.6005 
  12   2.0000      -0.762066       -20.7369 
  13   2.0000      -0.716477       -19.4963 
  14   2.0000      -0.632119       -17.2008 
  15   2.0000      -0.610842       -16.6219 
  16   2.0000      -0.538909       -14.6645 
  17   2.0000      -0.501405       -13.6439 
  18   2.0000      -0.474320       -12.9069 
  19   2.0000      -0.446255       -12.1432 
  20   2.0000      -0.431099       -11.7308 
  21   2.0000      -0.428791       -11.6680 
  22   2.0000      -0.401555       -10.9269 
  23   2.0000      -0.390837       -10.6352 
  24   2.0000      -0.381280       -10.3752 
  25   2.0000      -0.369850       -10.0641 
  26   2.0000      -0.350205        -9.5296 
  27   2.0000      -0.347863        -9.4658 
  28   2.0000      -0.283764        -7.7216 
  29   2.0000      -0.264599        -7.2001 
  30   2.0000      -0.243038        -6.6134 
  31   2.0000      -0.224772        -6.1163 
  32   0.0000      -0.099614        -2.7106 
  33   0.0000      -0.064300        -1.7497 
  34   0.0000      -0.005428        -0.1477 
  35   0.0000       0.070205         1.9104 
  36   0.0000       0.096561         2.6276 
  37   0.0000       0.105742         2.8774 
  38   0.0000       0.110357         3.0030 
  39   0.0000       0.121079         3.2947 
  40   0.0000       0.124726         3.3940 
  41   0.0000       0.141410         3.8480 
  42   0.0000       0.146265         3.9801 
*Only the first 10 virtual orbitals were printed.
Total SCF time: 0 days 0 hours 0 min 5 sec 
Finished LeanSCF after   5.9 sec

Maximum memory used throughout the entire LEANSCF-calculation: 24.1 MB


-------------------------------------------------------------------------------
                          DFT DISPERSION CORRECTION                            
                                                                               
                                DFTD4 V3.4.0                                   
-------------------------------------------------------------------------------
-------------------------   ----------------
Dispersion correction           -0.005270796
-------------------------   ----------------

------------------   -----------------
gCP correction             0.007454568
------------------   -----------------

-------------------------   --------------------
FINAL SINGLE POINT ENERGY      -400.833012108964
-------------------------   --------------------

------------------------------------------------------------------------------
                         ORCA SCF GRADIENT CALCULATION
------------------------------------------------------------------------------

Nuc. rep. gradient        (SHARK) ... done (  0.0 sec)
HCore & Overlap gradient  (SHARK) ... done (  0.2 sec)
Split-RIJ-J gradient      (SHARK) ... done (  1.7 sec)
XC gradient                       ... done (  7.7 sec)
Dispersion correction             ... done (  0.0 sec)

-------------------
DISPERSION GRADIENT
-------------------

   1   C   :    0.000083954   -0.000048536    0.000000045
   2   C   :    0.000089574    0.000005978   -0.000000006
   3   O   :    0.000081013    0.000053627   -0.000000052
   4   C   :    0.000009300    0.000006345   -0.000000014
   5   C   :   -0.000028250    0.000068419    0.000000018
   6   C   :   -0.000077088    0.000048533    0.000000028
   7   C   :   -0.000090877    0.000002300    0.000000002
   8   N   :   -0.000085071   -0.000056017   -0.000000045
   9   C   :   -0.000024995   -0.000053431   -0.000000042
  10   H   :    0.000033302   -0.000007543    0.000000029
  11   H   :    0.000036573   -0.000022340   -0.000010736
  12   H   :    0.000036573   -0.000022369    0.000010777
  13   H   :    0.000005604    0.000042848    0.000000014
  14   H   :   -0.000027220    0.000030214    0.000000019
  15   H   :   -0.000035996   -0.000005125    0.000000001
  16   H   :   -0.000006397   -0.000042902   -0.000000036

Difference to translation invariance:
           :   -0.0000000000    0.0000000000    0.0000000000

Difference to rotation invariance:
           :   -0.0000000000   -0.0000000000   -0.0000000000

Norm of the Dispersion gradient    ...    0.0002733517
RMS gradient                       ...    0.0000394549
MAX gradient                       ...    0.0000908773
gCP correction                   ... done

------------------
CARTESIAN GRADIENT
------------------

   1   C   :   -0.004624550   -0.004945179   -0.000003790
   2   C   :    0.003592973    0.012418432   -0.000005541
   3   O   :   -0.005681231   -0.010783897    0.000003264
   4   C   :    0.002878048   -0.005907736    0.000000588
   5   C   :    0.000023045    0.000261878    0.000003883
   6   C   :   -0.001995341   -0.001030862   -0.000002396
   7   C   :    0.004056410   -0.005110051   -0.000003594
   8   N   :    0.009401675    0.013908069    0.000011747
   9   C   :   -0.008937540   -0.001531006   -0.000003077
  10   H   :   -0.002067048   -0.000539102    0.000000746
  11   H   :    0.001276522    0.003922405    0.002747141
  12   H   :    0.001283256    0.003921497   -0.002743474
  13   H   :   -0.001947961   -0.002653963   -0.000000673
  14   H   :    0.002465511   -0.003377908   -0.000003090
  15   H   :    0.005084115   -0.001804755   -0.000001009
  16   H   :   -0.004807882    0.003252180   -0.000000726

Difference to translation invariance:
           :    0.0000000000   -0.0000000000    0.0000000000

Difference to rotation invariance:
           :   -0.0000047592    0.0000003752   -0.0003187015

Norm of the Cartesian gradient     ...    0.0310040760
RMS gradient                       ...    0.0044750529
MAX gradient                       ...    0.0139080687

-------
TIMINGS
-------

Total SCF gradient time     ....        9.666 sec

Densities                   ....       0.000 sec  (  0.0%)
One electron gradient       ....       0.215 sec  (  2.2%)
RI-J Coulomb gradient       ....       1.681 sec  ( 17.4%)
XC gradient                 ....       7.715 sec  ( 79.8%)

Maximum memory used throughout the entire SCFGRAD-calculation: 36.1 MB

------------------------------------------------------------------------------
                              ORCA PROPERTY CALCULATIONS
------------------------------------------------------------------------------

GBWName                                 ... xtb_opt.gbw
Number of atoms                         ...     16
Number of basis functions               ...    216
Max core memory                         ...   1024 MB

Electric properties:
Dipole moment                           ... YES
Quadrupole moment                       ...  NO
Static polarizability (Dipole/Dipole)   ...  NO
Static polarizability (Dipole/Quad.)    ...  NO
Static polarizability (Quad./Quad.)     ...  NO
Static polarizability (Velocity)        ...  NO

Atomic electric properties:
Dipole moment                           ...  NO
Quadrupole moment                       ...  NO
Static polarizability                   ...  NO

Choice of electric origin               ... Center of mass
Position of electric origin             ...    -0.000020    -0.000017     0.000000

General magnetic properties:
Magnetizability                         ...  NO

EPR properties:
g-Tensor (aka g-matrix)                 ...  NO
Zero-Field splitting spin-orbit         ...  NO
Zero-field splitting spin-spin          ...  NO
Hyperfine couplings                     ...  NO (   0 nuclei)
Quadrupole couplings                    ...  NO (   0 nuclei)
Contact density                         ...  NO (   0 nuclei)

NMR properties:
Chemical shifts                         ...  NO (   0 nuclei)
Spin-rotation constants                 ...  NO (   0 nuclei)
Spin-spin couplings                     ...  NO (   0 nuclei,    0 pairs)

Choice of magnetic origin               ... GIAO
Position of magnetic origin             ...     0.000000     0.000000     0.000000

Properties with geometric perturbations:
SCF Hessian                             ...  NO
IR spectrum                             ...  NO
VCD spectrum                            ...  NO
X-ray spectroscopy properties:
SCF XES/XAS/RIXS spectra                ...  NO


-------------
DIPOLE MOMENT
-------------

Method             : SCF
Type of density    : Electron Density
Multiplicity       :   1
Irrep              :   0
Energy             :  -400.8351958809360553 Eh
Relativity type    : 
Basis              : AO
                                X                 Y                 Z
Electronic contribution:     -2.095302357       2.266320890      -0.003736402
Nuclear contribution   :      1.757180527      -2.468531293       0.005082704
                        -----------------------------------------
Total Dipole Moment    :     -0.338121830      -0.202210402       0.001346302
                        -----------------------------------------
Magnitude (a.u.)       :      0.393976181
Magnitude (Debye)      :      1.001407869



--------------------
Rotational spectrum 
--------------------
 
Rotational constants in cm-1:             0.126335             0.041685             0.031527 
Rotational constants in MHz :          3787.433403          1249.675610           945.168961 

Dipole components along the rotational axes: 
x,y,z [a.u.] :    -0.338120     0.202213     0.001346 
x,y,z [Debye]:    -0.859434     0.513984     0.003422 

 

Dipole moment calculation done in   0.1 sec 

Maximum memory used throughout the entire PROP-calculation: 14.6 MB

--------------------------------
SUGGESTED CITATIONS FOR THIS RUN
--------------------------------

Below you find a list of papers that are relevant to this ORCA run
We neither can nor want to force you to cite these papers, but we appreciate if you do
You receive ORCA, which is the product of decades of hard work by many enthusiastic individuals, for free
The only thing we kindly ask in return is that you cite our papers,
We deeply appreciate it, if you show your appreciation for ORCA by not just citing the generic ORCA reference.

Please note that relegating all ORCA citations to the supporting information does *not* help us.
SI sections are not indexed - citations you put there will not count into any citation statistics
But we need these citations in order to attract the funding resources that allow us to do what we are doing

Therefore, if you are a happy ORCA user, please consider citing a few of the papers listed below in the main body of your paper

In addition to the list printed below, the program has created the file xtb_opt.bibtex that contains the list in bibtex format
You can import this file easily into all common literature databanks and citation aid programs


List of essential papers. We consider these as the minimum necessary citations

  1. Neese,F.
     Software update: the ORCA program system, version 5.0
     WIRES Comput. Molec. Sci., 2022 12(1)e1606
     doi.org/10.1002/wcms.1606
  2. Grimme,S.; Hansen,A.; Ehlert,S.; Mewes,J.
     r2SCAN-3c: A 'Swiss army knife' composite electronic-structure method
     J. Chem. Phys., 2021 154 064103
     doi.org/10.1063/5.0040021

List of papers to cite with high priority. The work reported in these papers was absolutely
necessary for this run to complete.
Our perspective: the developers of density functionals and basis sets usually get cited in chemistry papers
Good! But without the algorithms to do something with them, the functionals or basis sets would not do anything.
Hence, in our opinion, the algorithm design and method developments papers are equally worthy of getting cited

  1. Neese,F.
     An improvement of the resolution of the identity approximation for the formation of the Coulomb matrix
     J. Comp. Chem., 2003 24(14)1740-1747
     doi.org/10.1002/jcc.10318
  2. Neese,F.
     The SHARK Integral Generation and Digestion System
     J. Comp. Chem., 2022  1-16
     doi.org/10.1002/jcc.26942
  3. Lehtola,S.; Steigemann,C.; Oliveira,M.; Marques,M.
     Recent developments in Libxc - A comprehensive library of functionals for density functional theory
     Software X, 2018 7 
     doi.org/10.1016/j.softx.2017.11.002
  4. Caldeweyher,E.; Bannwarth,C.; Grimme,S.
     Extension of the D3 dispersion coefficient model
     J. Chem. Phys., 2017 147 034112
     doi.org/10.1063/1.4993215
  5. Caldeweyher,E.; Ehlert,S.; Hansen,A.; Neugebauer,H.; Spicher,S.; Bannwarth,C.; Grimme,S.
     A generally applicable atomic-charge dependent London dispersion correction
     J. Chem. Phys., 2019 150 154122
     doi.org/10.1063/1.5090222
  6. Caldeweyher,E.; Mewes,J.; Ehlert,S.; Grimme,S.
     Extension and evaluation of the D4 London-dispersion model for periodic systems
     Phys. Chem. Chem. Phys., 2020 22(16)8499-8512
     doi.org/10.1039/D0CP00502A
  7. Wittmann,L.; Gordiy,I.; Friede,M.; Helmich-Paris,B.; Grimme,S.; Hansen,A.; Bursch,M.
     Extension of the D3 and D4 London Dispersion Corrections to the full Actinides Series
     Phys. Chem. Chem. Phys., 2024 26(32)21379-21394
     doi.org/https://doi.org/10.1039/D4CP01514B 

List of suggested additional citations. These are papers that are important in the 'surrounding' of 
of this run, or papers that preceded the highly important papers. If you like your results we are grateful for a citation.

  1. Neese,F.
     The ORCA program system
     WIRES Comput. Molec. Sci., 2012 2(1)73-78
     doi.org/10.1002/wcms.81
  2. Neese,F.
     Software update: the ORCA program system, version 4.0
     WIRES Comput. Molec. Sci., 2018 8(1)1-6
     doi.org/10.1002/wcms.1327
  3. Neese,F.; Wennmohs,F.; Becker,U.; Riplinger,C.
     The ORCA quantum chemistry program package
     J. Chem. Phys., 2020 152 Art. No. L224108
     doi.org/10.1063/5.0004608

List of optional additional citations

  1. Neese,F.
     Approximate second-order SCF convergence for spin unrestricted wavefunctions
     Chem. Phys. Lett., 2000 325(1-3)93-98
     doi.org/10.1016/s0009-2614(00)00662-x

Timings for individual modules:

Sum of individual times          ...       16.780 sec (=   0.280 min)
Startup calculation              ...        0.792 sec (=   0.013 min)   4.7 %
SCF iterations                   ...        5.980 sec (=   0.100 min)  35.6 %
Property calculations            ...        0.218 sec (=   0.004 min)   1.3 %
SCF Gradient evaluation          ...        9.790 sec (=   0.163 min)  58.3 %
                             ****ORCA TERMINATED NORMALLY****
TOTAL RUN TIME: 0 days 0 hours 0 minutes 17 seconds 571 msec
  ------------------------------------------------------------------------
          * successful ORCA run, taking over control again...

         :::::::::::::::::::::::::::::::::::::::::::::::::::::
         ::                  ORCA SUMMARY                   ::
         :::::::::::::::::::::::::::::::::::::::::::::::::::::
         :: total energy            -400.833012108964 Eh    ::
         :: gradient norm              0.031004075996 Eh/a0 ::
         :: HOMO-LUMO gap              0.000000000000 eV    ::
         :::::::::::::::::::::::::::::::::::::::::::::::::::::

      ----------------------------------------------------------- 
     |                       L-ANC optimizer                     |
      ----------------------------------------------------------- 
          low memory version by Sebastian Ehlert

          ...................................................
          :                      SETUP                      :
          :.................................................:
          :   energy convergence        0.5000000E-05 Eh    :
          :   grad. convergence         0.1000000E-02 Eh/a0 :
          :   optimization log               true           :
          :   writing optlog all                1     steps :
          :   Hessian reset                     8     steps :
          :   maximium step len.        1.0000000     a0    :
          :   LBFGS images                      8           :
          ...................................................
 * calculating model hessian...
Using Lindh-Hessian (1995)
 Shifting diagonal of input Hessian by   1.000000000000000E-002
 Lowest  eigenvalues of input Hessian
    0.000000    0.000000    0.000000    0.000000    0.000000    0.000000
    0.012712    0.016021    0.018944    0.022888    0.028352    0.036503
    0.039739    0.057295    0.065763    0.067884    0.077072    0.093938
 Highest eigenvalues
    1.559820    1.643050    1.930864    2.019621    2.134469    2.210944
 

........................................................................
.............................. CYCLE    1 ..............................
........................................................................
                         * ORCA takes the control...
  ------------------------------------------------------------------------

                                 *****************
                                 * O   R   C   A *
                                 *****************

                                            #,                                       
                                            ###                                      
                                            ####                                     
                                            #####                                    
                                            ######                                   
                                           ########,                                 
                                     ,,################,,,,,                         
                               ,,#################################,,                 
                          ,,##########################################,,             
                       ,#########################################, ''#####,          
                    ,#############################################,,   '####,        
                  ,##################################################,,,,####,       
                ,###########''''           ''''###############################       
              ,#####''   ,,,,##########,,,,          '''####'''          '####       
            ,##' ,,,,###########################,,,                        '##       
           ' ,,###''''                  '''############,,,                           
         ,,##''                                '''############,,,,        ,,,,,,###''
      ,#''                                            '''#######################'''  
     '                                                          ''''####''''         
             ,#######,   #######,   ,#######,      ##                                
            ,#'     '#,  ##    ##  ,#'     '#,    #''#        ,####,   ,####,        
            ##       ##  ##   ,#'  ##            #'  '#       #'       #'  '#        
            ##       ##  #######   ##           ,######,      #####,   #    #        
            '#,     ,#'  ##    ##  '#,     ,#' ,#      #,     #,   #   #,  ,#        
             '#######'   ##     ##  '#######'  #'      '#     '####' # '####'        



                #########################################################
                #                        -***-                          #
                #          Department of theory and spectroscopy        #
                #                                                       #
                #                      Frank Neese                      #
                #                                                       #
                #     Directorship, Architecture, Infrastructure        #
                #                    SHARK, DRIVERS                     #
                #        Core code/Algorithms in most modules           #
                #                                                       #
                #        Max Planck Institute fuer Kohlenforschung      #
                #                Kaiser Wilhelm Platz 1                 #
                #                 D-45470 Muelheim/Ruhr                 #
                #                      Germany                          #
                #                                                       #
                #                  All rights reserved                  #
                #                        -***-                          #
                #########################################################


                         Program Version 6.0.1  -  RELEASE   -


 With contributions from (in alphabetic order):
[Max-Planck-Institut fuer Kohlenforschung]                               
  Daniel Aravena         : Magnetic Suceptibility                        
  Michael Atanasov       : Ab Initio Ligand Field Theory (pilot matlab implementation)
  Alexander A. Auer      : GIAO ZORA, VPT2 properties, NMR spectrum      
  Ute Becker             : All parallelization in ORCA, NUMFREQ, NUMCALC 
  Giovanni Bistoni       : ED, misc. LED, open-shell LED, HFLD           
  Martin Brehm           : Molecular dynamics                            
  Dmytro Bykov           : pre 5.0 version of the SCF Hessian            
  Marcos Casanova-Páez   : Triplet and SCS-CIS(D). UHF-(DLPNO)-IP/EA/STEOM-CCSD. UHF-CVS-IP/STEOM-CCSD   
  Vijay G. Chilkuri      : MRCI spin determinant printing, contributions to CSF-ICE 
  Pauline Colinet        : FMM embedding                                 
  Dipayan Datta          : RHF DLPNO-CCSD density                        
  Achintya Kumar Dutta   : EOM-CC, STEOM-CC                              
  Nicolas Foglia         : Exact transition moments, OPA infrastructure, MCD improvements    
  Dmitry Ganyushin       : Spin-Orbit,Spin-Spin,Magnetic field MRCI      
  Miquel Garcia-Rates    : C-PCM and meta-GGA Hessian, CCSD/C-PCM, Gaussian charge scheme 
  Tiago L. C. Gouveia    : GS-ROHF, GS-ROCIS                             
  Yang Guo               : DLPNO-NEVPT2, F12-NEVPT2, CIM, IAO-localization        
  Andreas Hansen         : Spin unrestricted coupled pair/coupled cluster methods 
  Ingolf Harden          : AUTO-CI MPn and infrastructure                
  Benjamin Helmich-Paris : MC-RPA, TRAH-(SCF,CASSCF), AVAS, COSX integrals, SCF dyn. polar. 
  Lee Huntington         : MR-EOM, pCC                                   
  Robert Izsak           : Overlap fitted RIJCOSX, COSX-SCS-MP3, EOM     
  Riya Kayal             : Wick's Theorem for AUTO-CI, AUTO-CI UHF-CCSDT 
  Emily Kempfer          : AUTO-CI, RHF CISDT and CCSDT                  
  Christian Kollmar      : KDIIS, OOCD, Brueckner-CCSD(T), CCSD density, CASPT2, CASPT2-K, improved NEVPT2 
  Axel Koslowski         : Symmetry handling                             
  Simone Kossmann        : meta-GGA functionals, TD-DFT gradient, OOMP2, (MP2 Hessian; deprecated post 5.0) 
  Lucas Lang             : DCDCAS                                        
  Marvin Lechner         : AUTO-CI (C++ implementation), FIC-MRCC        
  Spencer Leger          : CASSCF response                               
  Dagmar Lenk            : GEPOL surface, SMD, ORCA-2-JSON               
  Dimitrios Liakos       : Extrapolation schemes; Compound Job, initial MDCI parallelization 
  Dimitrios Manganas     : Further ROCIS development; embedding schemes. LFT, Crystal Embedding 
  Dimitrios Pantazis     : SARC Basis sets                               
  Anastasios Papadopoulos: AUTO-CI, single reference methods and gradients 
  Taras Petrenko         : pre 6.0 DFT Hessian and TD-DFT gradient, (ASA, deprecated), ECA, 1-Electron XAS/XES, NRVS 
  Peter Pinski           : DLPNO-MP2, DLPNO-MP2 Gradient                 
  Christoph Reimann      : Effective Core Potentials                     
  Marius Retegan         : Local ZFS, SOC                                
  Christoph Riplinger    : Optimizer, TS searches, QM/MM, DLPNO-CCSD(T), (RO)-DLPNO pert. Triples 
  Michael Roemelt        : Original ROCIS implementation                 
  Masaaki Saitow         : Open-shell DLPNO-CCSD energy and density      
  Barbara Sandhoefer     : DKH picture change effects                    
  Kantharuban Sivalingam : CASSCF convergence/infrastructure, NEVPT2 and variants, FIC-MRCI 
  Bernardo de Souza      : ESD, SOC TD-DFT                               
  Georgi L. Stoychev     : AutoAux, RI-MP2 NMR, DLPNO-MP2 response, X2C  
  Van Anh Tran           : RI-MP2 g-tensors                              
  Willem Van den Heuvel  : Paramagnetic NMR                              
  Zikuan Wang            : NOTCH, Electric field optimization            
  Frank Wennmohs         : Technical directorship and infrastructure     
  Hang Xu                : AUTO-CI-Response properties                   
                                                                         
[FACCTs GmbH]                                                            
  Markus Bursch, Miquel Garcia-Rates, Christoph Riplinger, Bernardo de Souza, Georgi L. Stoychev 
                                                                 
  APM, Basis sets (HGBS, AHGBS, def-TZVP (Ac-Lr), def2-XVPD (La-Lu)), CI-OPT, improved COSX, DLPNO-Multilevel,           
  DOCKER, DRACO, updates on ESD, GOAT, IRC, LR-CPCM, MBIS, meta-GGA TD-DFT gradient, ML-optimized integration grids, 
  MM, NACMEs, nearIR, NEB, NEB-TS, NL-DFT gradient (VV10), 2- and 3-layer-ONIOM, interface openCOSMO-RS, QMMM,   
  Crystal-QMMM, SF, symmetry and pop. for TD-DFT, r2SCAN hybrids, SOLVATOR                                   
                                                                         
[Other institutions]                                                     
  V. Asgeirsson          : NEB                                           
  Christoph Bannwarth    : sTDA-DFT, sTD-DFT, PBEh-3c, B97-3c, D3        
  Sebastian Ehlert       : rSCAN, r2SCAN, r2SCAN-3c, D4, dhf basis sets  
  Marvin Friede          : D4 for Fr, Ra, Ac-Lr                          
  Lars Goerigk           : TD-DFT with DH, B97 family of functionals     
  Stefan Grimme          : VdW corrections, initial TS optimization, DFT functionals, gCP, sTDA/sTD-DF 
  Waldemar Hujo          : DFT-NL                                        
  H. Jonsson             : NEB                                           
  Holger Kruse           : gCP                                           
  Marcel Mueller         : wB97X-3c, vDZP basis set                      
  Hagen Neugebauer       : wr2SCAN                                       
  Tobias Risthaus        : range-separated hybrid DFT                    
  Lukas Wittmann         : regularized MP2, r2SCAN double-hybrids, wr2SCAN        
                                                                         
We gratefully acknowledge several colleagues who have allowed us to      
interface, adapt or use parts of their codes:                            
  Ed Valeev, F. Pavosevic, A. Kumar             : LibInt (2-el integral package), F12 methods 
  Garnet Chan, S. Sharma, J. Yang, R. Olivares  : DMRG                   
  Ulf Ekstrom                                   : XCFun DFT Library      
  Mihaly Kallay                                 : mrcc  (arbitrary order and MRCC methods)
  Frank Weinhold                                : gennbo (NPA and NBO analysis)           
  Simon Mueller                                 : openCOSMO-RS                            
  Christopher J. Cramer and Donald G. Truhlar   : smd solvation model                     
  S Lehtola, MJT Oliveira, MAL Marques          : LibXC Library                           
  Liviu Ungur et al                             : ANISO software                          


 Your calculation uses the libint2 library for the computation of 2-el integrals
 For citations please refer to: http://libint.valeyev.net

 Your ORCA version has been built with support for libXC version: 6.2.2
 For citations please refer to: https://libxc.gitlab.io

 This ORCA versions uses:
   CBLAS   interface :  Fast vector & matrix operations
   LAPACKE interface :  Fast linear algebra routines
   SCALAPACK package :  Parallel linear algebra routines
   Shared memory     :  Shared parallel matrices
   BLAS/LAPACK       :  OpenBLAS 0.3.27  USE64BITINT DYNAMIC_ARCH NO_AFFINITY Zen SINGLE_THREADED
        Core in use  :  Zen
   Copyright (c) 2011-2014, The OpenBLAS Project




***************************************
The coordinates will be read from file: xtb_opt.xyz
***************************************


Your calculation utilizes the geometrical counterpoise correction gCP
Please cite in your paper:
H.Kruse, S. Grimme J.Chem.Phys., 136, (2012), 154101 
   

Your calculation utilizes the atom-pairwise dispersion correction
based on EEQ partial charges (D4)


================================================================================

----- Orbital basis set information -----
Your calculation utilizes the basis: def2-mTZVPP
   Stefan Grimme, Andreas Hansen, Sebastian Ehlert, and Jan-Michael Mewes 
   J. Chem. Phys. 154, 064103 (2021). DOI: 10.1063/5.0040021

----- AuxJ basis set information -----
Your calculation utilizes the auxiliary basis: def2/J
   F. Weigend, Phys. Chem. Chem. Phys. 8, 1057 (2006).

================================================================================
                                        WARNINGS
                       Please study these warnings very carefully!
================================================================================

WARNING: Old DensityContainer found on disk!
         Will remove this file - 
         If you want to keep old densities, please start your calculation with a different basename. 



WARNING: SCAN, rSCAN, or r2SCAN functional requested.
  ===> : libXC variant has now been activated.



================================================================================
                                       INPUT FILE
================================================================================
NAME = xtb_opt.inp
|  1> ! r2scan-3c def2/J RI DEFGRID2 scfconv7 ENGRAD tightSCF miniprint
|  2> * xyzfile 0 1 xtb_opt.xyz
|  3> 
|  4>                          ****END OF INPUT****
================================================================================

                     *******************************
                     * Energy+Gradient Calculation *
                     *******************************

---------------------------------
CARTESIAN COORDINATES (ANGSTROEM)
---------------------------------
  C      2.465987   -1.204076    0.001269
  C      1.703056    0.099173   -0.000036
  O      2.273448    1.173656   -0.001114
  C      0.210849    0.032623   -0.000008
  C     -0.518700    1.224696    0.000601
  C     -1.901615    1.172837    0.000669
  C     -2.515241   -0.077886    0.000054
  N     -1.838320   -1.225042   -0.000677
  C     -0.509600   -1.166215   -0.000687
  H      3.535462   -0.996713    0.002842
  H      2.208261   -1.795002   -0.881966
  H      2.205496   -1.795237    0.883503
  H      0.021241    2.164928    0.001054
  H     -2.495646    2.078938    0.001194
  H     -3.598974   -0.167040    0.000160
  H     -0.003193   -2.128240   -0.001365

----------------------------
CARTESIAN COORDINATES (A.U.)
----------------------------
  NO LB      ZA    FRAG     MASS         X           Y           Z
   0 C     6.0000    0    12.011    4.660040   -2.275373    0.002398
   1 C     6.0000    0    12.011    3.218310    0.187410   -0.000069
   2 O     8.0000    0    15.999    4.296194    2.217889   -0.002106
   3 C     6.0000    0    12.011    0.398448    0.061648   -0.000015
   4 C     6.0000    0    12.011   -0.980201    2.314339    0.001136
   5 C     6.0000    0    12.011   -3.593532    2.216341    0.001265
   6 C     6.0000    0    12.011   -4.753118   -0.147184    0.000103
   7 N     7.0000    0    14.007   -3.473921   -2.314994   -0.001279
   8 C     6.0000    0    12.011   -0.963004   -2.203828   -0.001298
   9 H     1.0000    0     1.008    6.681055   -1.883515    0.005370
  10 H     1.0000    0     1.008    4.173008   -3.392063   -1.666674
  11 H     1.0000    0     1.008    4.167783   -3.392506    1.669580
  12 H     1.0000    0     1.008    0.040140    4.091121    0.001992
  13 H     1.0000    0     1.008   -4.716087    3.928623    0.002257
  14 H     1.0000    0     1.008   -6.801075   -0.315660    0.000302
  15 H     1.0000    0     1.008   -0.006035   -4.021791   -0.002580

------------------------------------------------------------------------------
                   ___                                                        
                  /   \      - P O W E R E D   B Y -                         
                 /     \                                                     
                 |  |  |   _    _      __       _____    __    __             
                 |  |  |  | |  | |    /  \     |  _  \  |  |  /  |          
                  \  \/   | |  | |   /    \    | | | |  |  | /  /          
                 / \  \   | |__| |  /  /\  \   | |_| |  |  |/  /          
                |  |  |   |  __  | /  /__\  \  |    /   |      \           
                |  |  |   | |  | | |   __   |  |    \   |  |\   \          
                \     /   | |  | | |  |  |  |  | |\  \  |  | \   \       
                 \___/    |_|  |_| |__|  |__|  |_| \__\ |__|  \__/        
                                                                              
                      - O R C A' S   B I G   F R I E N D -                    
                                      &                                       
                       - I N T E G R A L  F E E D E R -                       
                                                                              
 v1 FN, 2020, v2 2021, v3 2022-2024                                           
------------------------------------------------------------------------------


----------------------
SHARK INTEGRAL PACKAGE
----------------------

Number of atoms                             ...     16
Number of basis functions                   ...    216
Number of shells                            ...    104
Maximum angular momentum                    ...      2
Integral batch strategy                     ... SHARK/LIBINT Hybrid
RI-J (if used) integral strategy            ... SPLIT-RIJ (Revised 2003 algorithm where possible)
Printlevel                                  ...      1
Contraction scheme used                     ... SEGMENTED contraction
Prescreening option                         ... SCHWARTZ
   Thresh                                   ... 3.000e-11
   Tcut                                     ... 1.000e-12
   Tpresel                                  ... 1.000e-12 
Coulomb Range Separation                    ... NOT USED
Exchange Range Separation                   ... NOT USED
Multipole approximations                    ... NOT USED
Finite Nucleus Model                        ... NOT USED
CABS basis                                  ... NOT available
Auxiliary Coulomb fitting basis             ... AVAILABLE
   # of basis functions in Aux-J            ...    518
   # of shells in Aux-J                     ...    170
   Maximum angular momentum in Aux-J        ...      4
Auxiliary J/K fitting basis                 ... NOT available
Auxiliary Correlation fitting basis         ... NOT available
Auxiliary 'external' fitting basis          ... NOT available

Checking pre-screening integrals            ... done (  0.0 sec) Dimension = 104
Check shell pair data                       ... done (  0.0 sec)
Shell pair information
Shell pair cut-off parameter TPreSel        ...   1.0e-12
Total number of shell pairs                 ...      5460
Shell pairs after pre-screening             ...      4924
Total number of primitive shell pairs       ...     20119
Primitive shell pairs kept                  ...     12910
          la=0 lb=0:   1536 shell pairs
          la=1 lb=0:   1829 shell pairs
          la=1 lb=1:    559 shell pairs
          la=2 lb=0:    586 shell pairs
          la=2 lb=1:    352 shell pairs
          la=2 lb=2:     62 shell pairs

Calculating one electron integrals          ... done (  0.0 sec)
Calculating RI/J V-Matrix + Cholesky decomp.... done (  0.0 sec)
Calculating Nuclear repulsion               ... done (  0.0 sec) ENN=    405.501117623308 Eh

Diagonalization of the overlap matrix:
Smallest eigenvalue                        ... 7.434e-05
Time for diagonalization                   ...    0.006 sec
Threshold for overlap eigenvalues          ... 1.000e-07
Number of eigenvalues below threshold      ... 0
Time for construction of square roots      ...    0.005 sec
Total time needed                          ...    0.012 sec

-------------------
DFT GRID GENERATION
-------------------

General Integration Accuracy     IntAcc      ... 4.388
Radial Grid Type                 RadialGrid  ... OptM3 with GC (2021)
Angular Grid (max. ang.)         AngularGrid ... 4 (Lebedev-302)
Angular grid pruning method      GridPruning ... 4 (adaptive)
Weight generation scheme         WeightScheme... mBecke (2022)
Basis function cutoff            BFCut       ... 1.0000e-11
Integration weight cutoff        WCut        ... 1.0000e-14
Partially contracted basis set               ... off
Rotationally invariant grid construction     ... off
Angular grids for H and He will be reduced by one unit
Diffuse basis detected: some atoms will have their outermost
                        angular grid increased by 1.

Total number of grid points                  ...    77024
Total number of batches                      ...     1211
Average number of points per batch           ...       63
Average number of grid points per atom       ...     4814
Initializing property integral containers    ... done (  0.0 sec)

SHARK setup successfully completed in   1.1 seconds

Maximum memory used throughout the entire STARTUP-calculation: 36.6 MB
Occupation numbers will be reassigned to an Aufbau configuration
             **** ENERGY FILE WAS UPDATED (xtb_opt.en.tmp) ****
Finished Guess after   0.1 sec
Maximum memory used throughout the entire GUESS-calculation: 15.8 MB
----------------------------------------D-I-I-S--------------------------------------------
Iteration    Energy (Eh)           Delta-E    RMSDP     MaxDP     DIISErr   Damp  Time(sec)
-------------------------------------------------------------------------------------------
               ***  Starting incremental Fock matrix formation  ***
    1    -400.8358515451558901     0.00e+00  9.14e-05  2.25e-03  4.78e-03  0.700   2.9
                              *** Initializing SOSCF ***
---------------------------------------S-O-S-C-F--------------------------------------
Iteration    Energy (Eh)           Delta-E    RMSDP     MaxDP     MaxGrad    Time(sec)
--------------------------------------------------------------------------------------
    2    -400.8359280564489495    -7.65e-05  2.75e-04  6.91e-03  3.26e-03     2.3
               *** Restarting incremental Fock matrix formation ***
    3    -400.8360883844100613    -1.60e-04  1.64e-04  6.78e-03  4.12e-04     2.8
    4    -400.8360717848117361     1.66e-05  9.05e-05  3.80e-03  1.09e-03     2.2
    5    -400.8360964635084542    -2.47e-05  5.18e-05  2.12e-03  2.27e-04     2.1
    6    -400.8360947543356474     1.71e-06  3.39e-05  1.45e-03  2.41e-04     2.2
    7    -400.8360984950995203    -3.74e-06  1.30e-05  4.85e-04  7.31e-05     2.2
    8    -400.8360981521897770     3.43e-07  1.09e-05  4.66e-04  1.65e-04     1.6
    9    -400.8360985710027649    -4.19e-07  3.01e-06  1.19e-04  1.17e-05     1.4
                  *** Gradient check signals convergence ***

               *****************************************************
               *                     SUCCESS                       *
               *           SCF CONVERGED AFTER   9 CYCLES          *
               *****************************************************

             **** ENERGY FILE WAS UPDATED (xtb_opt.en.tmp) ****

----------------
TOTAL SCF ENERGY
----------------

Total Energy       :       -400.83609857100276 Eh          -10907.30476 eV

Components:
Nuclear Repulsion  :        405.50111762330772 Eh           11034.24638 eV
Electronic Energy  :       -806.33721619431049 Eh          -21941.55114 eV
One Electron Energy:      -1345.82586256713716 Eh          -36621.78354 eV
Two Electron Energy:        539.48864637282668 Eh           14680.23240 eV

Virial components:
Potential Energy   :       -799.99560735659338 Eh          -21768.98719 eV
Kinetic Energy     :        399.15950878559056 Eh           10861.68243 eV
Virial Ratio       :          2.00420030025218

DFT components:
N(Alpha)           :       31.999992804769 electrons
N(Beta)            :       31.999992804769 electrons
N(Total)           :       63.999985609538 electrons
E(X)               :      -53.838367737523 Eh       
E(C)               :       -2.076811322213 Eh       
E(XC)              :      -55.915179059735 Eh       

---------------
SCF CONVERGENCE
---------------

  Last Energy change         ...    4.1881e-07  Tolerance :   1.0000e-07
  Last MAX-Density change    ...    1.1878e-04  Tolerance :   1.0000e-07
  Last RMS-Density change    ...    3.0123e-06  Tolerance :   5.0000e-09
  Last DIIS Error            ...    3.2582e-03  Tolerance :   1.0000e-07
  Last Orbital Gradient      ...    1.1715e-05  Tolerance :   1.0000e-04
  Last Orbital Rotation      ...    6.8519e-05  Tolerance :   1.0000e-04


----------------
ORBITAL ENERGIES
----------------

  NO   OCC          E(Eh)            E(eV) 
   0   2.0000     -18.946881      -515.5708 
   1   2.0000     -14.171554      -385.6276 
   2   2.0000     -10.133526      -275.7473 
   3   2.0000     -10.088692      -274.5273 
   4   2.0000     -10.086878      -274.4779 
   5   2.0000     -10.067756      -273.9576 
   6   2.0000     -10.064321      -273.8641 
   7   2.0000     -10.060267      -273.7538 
   8   2.0000     -10.044774      -273.3322 
   9   2.0000      -1.014977       -27.6189 
  10   2.0000      -0.927721       -25.2446 
  11   2.0000      -0.792934       -21.5768 
  12   2.0000      -0.760497       -20.6942 
  13   2.0000      -0.715385       -19.4666 
  14   2.0000      -0.630021       -17.1437 
  15   2.0000      -0.611004       -16.6263 
  16   2.0000      -0.537903       -14.6371 
  17   2.0000      -0.500349       -13.6152 
  18   2.0000      -0.473055       -12.8725 
  19   2.0000      -0.446073       -12.1383 
  20   2.0000      -0.428801       -11.6683 
  21   2.0000      -0.428008       -11.6467 
  22   2.0000      -0.400701       -10.9036 
  23   2.0000      -0.388660       -10.5760 
  24   2.0000      -0.381223       -10.3736 
  25   2.0000      -0.369852       -10.0642 
  26   2.0000      -0.350616        -9.5407 
  27   2.0000      -0.345933        -9.4133 
  28   2.0000      -0.283239        -7.7073 
  29   2.0000      -0.264198        -7.1892 
  30   2.0000      -0.244340        -6.6488 
  31   2.0000      -0.225311        -6.1310 
  32   0.0000      -0.100560        -2.7364 
  33   0.0000      -0.065989        -1.7956 
  34   0.0000      -0.007892        -0.2148 
  35   0.0000       0.069397         1.8884 
  36   0.0000       0.095662         2.6031 
  37   0.0000       0.104481         2.8431 
  38   0.0000       0.107686         2.9303 
  39   0.0000       0.120144         3.2693 
  40   0.0000       0.124482         3.3873 
  41   0.0000       0.140152         3.8137 
  42   0.0000       0.144439         3.9304 
*Only the first 10 virtual orbitals were printed.
Total SCF time: 0 days 0 hours 0 min 19 sec 
Finished LeanSCF after  19.9 sec

Maximum memory used throughout the entire LEANSCF-calculation: 24.1 MB


-------------------------------------------------------------------------------
                          DFT DISPERSION CORRECTION                            
                                                                               
                                DFTD4 V3.4.0                                   
-------------------------------------------------------------------------------
-------------------------   ----------------
Dispersion correction           -0.005254367
-------------------------   ----------------

------------------   -----------------
gCP correction             0.007346723
------------------   -----------------

-------------------------   --------------------
FINAL SINGLE POINT ENERGY      -400.834006215673
-------------------------   --------------------

------------------------------------------------------------------------------
                         ORCA SCF GRADIENT CALCULATION
------------------------------------------------------------------------------

Nuc. rep. gradient        (SHARK) ... done (  0.0 sec)
HCore & Overlap gradient  (SHARK) ... done (  0.2 sec)
Split-RIJ-J gradient      (SHARK) ... done (  1.4 sec)
XC gradient                       ... done (  5.6 sec)
Dispersion correction             ... done (  0.0 sec)

-------------------
DISPERSION GRADIENT
-------------------

   1   C   :    0.000083697   -0.000048624    0.000000044
   2   C   :    0.000089496    0.000005730   -0.000000006
   3   O   :    0.000080670    0.000053619   -0.000000048
   4   C   :    0.000009041    0.000006863   -0.000000014
   5   C   :   -0.000028060    0.000068693    0.000000017
   6   C   :   -0.000076799    0.000048582    0.000000027
   7   C   :   -0.000090557    0.000002163    0.000000001
   8   N   :   -0.000084746   -0.000056469   -0.000000046
   9   C   :   -0.000025157   -0.000053638   -0.000000042
  10   H   :    0.000032936   -0.000007502    0.000000028
  11   H   :    0.000036465   -0.000022249   -0.000010515
  12   H   :    0.000036466   -0.000022277    0.000010556
  13   H   :    0.000005636    0.000042804    0.000000014
  14   H   :   -0.000027056    0.000030207    0.000000019
  15   H   :   -0.000036035   -0.000005022    0.000000000
  16   H   :   -0.000005997   -0.000042879   -0.000000035

Difference to translation invariance:
           :   -0.0000000000    0.0000000000   -0.0000000000

Difference to rotation invariance:
           :    0.0000000000    0.0000000000   -0.0000000000

Norm of the Dispersion gradient    ...    0.0002729364
RMS gradient                       ...    0.0000393950
MAX gradient                       ...    0.0000905569
gCP correction                   ... done

------------------
CARTESIAN GRADIENT
------------------

   1   C   :   -0.001094090   -0.001737334    0.000003876
   2   C   :    0.000261808    0.002716507   -0.000003201
   3   O   :   -0.000989495   -0.001604988   -0.000003928
   4   C   :    0.001275179   -0.001295591    0.000002604
   5   C   :   -0.000212933   -0.000532838    0.000000521
   6   C   :   -0.000726185    0.000040382    0.000000173
   7   C   :    0.000184389   -0.001764852   -0.000000824
   8   N   :    0.003676188    0.005380290    0.000004325
   9   C   :   -0.002389890   -0.001497734   -0.000003600
  10   H   :   -0.000177271   -0.000388742    0.000002272
  11   H   :    0.000068854    0.001238575    0.000592660
  12   H   :    0.000067071    0.001236904   -0.000593801
  13   H   :   -0.000410685   -0.000550252    0.000000717
  14   H   :    0.000747609   -0.000630809   -0.000001197
  15   H   :    0.001078225   -0.000820141    0.000000562
  16   H   :   -0.001358775    0.000210623   -0.000001158

Difference to translation invariance:
           :    0.0000000000    0.0000000000    0.0000000000

Difference to rotation invariance:
           :   -0.0000045625   -0.0000008777   -0.0002955048

Norm of the Cartesian gradient     ...    0.0090587227
RMS gradient                       ...    0.0013075140
MAX gradient                       ...    0.0053802896

-------
TIMINGS
-------

Total SCF gradient time     ....        7.293 sec

Densities                   ....       0.000 sec  (  0.0%)
One electron gradient       ....       0.213 sec  (  2.9%)
RI-J Coulomb gradient       ....       1.422 sec  ( 19.5%)
XC gradient                 ....       5.622 sec  ( 77.1%)

Maximum memory used throughout the entire SCFGRAD-calculation: 36.0 MB

------------------------------------------------------------------------------
                              ORCA PROPERTY CALCULATIONS
------------------------------------------------------------------------------

GBWName                                 ... xtb_opt.gbw
Number of atoms                         ...     16
Number of basis functions               ...    216
Max core memory                         ...   1024 MB

Electric properties:
Dipole moment                           ... YES
Quadrupole moment                       ...  NO
Static polarizability (Dipole/Dipole)   ...  NO
Static polarizability (Dipole/Quad.)    ...  NO
Static polarizability (Quad./Quad.)     ...  NO
Static polarizability (Velocity)        ...  NO

Atomic electric properties:
Dipole moment                           ...  NO
Quadrupole moment                       ...  NO
Static polarizability                   ...  NO

Choice of electric origin               ... Center of mass
Position of electric origin             ...    -0.004426    -0.001039     0.000008

General magnetic properties:
Magnetizability                         ...  NO

EPR properties:
g-Tensor (aka g-matrix)                 ...  NO
Zero-Field splitting spin-orbit         ...  NO
Zero-field splitting spin-spin          ...  NO
Hyperfine couplings                     ...  NO (   0 nuclei)
Quadrupole couplings                    ...  NO (   0 nuclei)
Contact density                         ...  NO (   0 nuclei)

NMR properties:
Chemical shifts                         ...  NO (   0 nuclei)
Spin-rotation constants                 ...  NO (   0 nuclei)
Spin-spin couplings                     ...  NO (   0 nuclei,    0 pairs)

Choice of magnetic origin               ... GIAO
Position of magnetic origin             ...     0.000000     0.000000     0.000000

Properties with geometric perturbations:
[...]
Electronic Energy  :       -805.82775374817834 Eh          -21927.68796 eV
One Electron Energy:      -1344.81559072823688 Eh          -36594.29264 eV
Two Electron Energy:        538.98783698005855 Eh           14666.60468 eV

Virial components:
Potential Energy   :       -799.94785939832605 Eh          -21767.68790 eV
Kinetic Energy     :        399.11164104612527 Eh           10860.37988 eV
Virial Ratio       :          2.00432103985129

DFT components:
N(Alpha)           :       31.999996835851 electrons
N(Beta)            :       31.999996835851 electrons
N(Total)           :       63.999993671703 electrons
E(X)               :      -53.826255100425 Eh       
E(C)               :       -2.076182445240 Eh       
E(XC)              :      -55.902437545665 Eh       

---------------
SCF CONVERGENCE
---------------

  Last Energy change         ...    1.8349e-09  Tolerance :   1.0000e-07
  Last MAX-Density change    ...    1.9037e-04  Tolerance :   1.0000e-07
  Last RMS-Density change    ...    4.9992e-06  Tolerance :   5.0000e-09
  Last DIIS Error            ...    5.7640e-05  Tolerance :   1.0000e-07
  Last Orbital Gradient      ...    2.1739e-05  Tolerance :   1.0000e-04
  Last Orbital Rotation      ...    9.5643e-05  Tolerance :   1.0000e-04


----------------
ORBITAL ENERGIES
----------------

  NO   OCC          E(Eh)            E(eV) 
   0   2.0000     -18.946851      -515.5700 
   1   2.0000     -14.173287      -385.6747 
   2   2.0000     -10.134061      -275.7618 
   3   2.0000     -10.089170      -274.5403 
   4   2.0000     -10.087671      -274.4995 
   5   2.0000     -10.068354      -273.9739 
   6   2.0000     -10.064743      -273.8756 
   7   2.0000     -10.060759      -273.7672 
   8   2.0000     -10.045565      -273.3537 
   9   2.0000      -1.014326       -27.6012 
  10   2.0000      -0.926185       -25.2028 
  11   2.0000      -0.793024       -21.5793 
  12   2.0000      -0.759698       -20.6724 
  13   2.0000      -0.714903       -19.4535 
  14   2.0000      -0.628875       -17.1126 
  15   2.0000      -0.611766       -16.6470 
  16   2.0000      -0.537639       -14.6299 
  17   2.0000      -0.499931       -13.6038 
  18   2.0000      -0.472705       -12.8630 
  19   2.0000      -0.446302       -12.1445 
  20   2.0000      -0.427869       -11.6429 
  21   2.0000      -0.427306       -11.6276 
  22   2.0000      -0.400369       -10.8946 
  23   2.0000      -0.387937       -10.5563 
  24   2.0000      -0.381607       -10.3840 
  25   2.0000      -0.369778       -10.0622 
  26   2.0000      -0.350169        -9.5286 
  27   2.0000      -0.345385        -9.3984 
  28   2.0000      -0.283257        -7.7078 
  29   2.0000      -0.263990        -7.1835 
  30   2.0000      -0.245688        -6.6855 
  31   2.0000      -0.225824        -6.1450 
  32   0.0000      -0.100714        -2.7406 
  33   0.0000      -0.066801        -1.8178 
  34   0.0000      -0.008737        -0.2377 
  35   0.0000       0.069143         1.8815 
  36   0.0000       0.095505         2.5988 
  37   0.0000       0.103991         2.8297 
  38   0.0000       0.106691         2.9032 
  39   0.0000       0.119968         3.2645 
  40   0.0000       0.124577         3.3899 
  41   0.0000       0.140153         3.8138 
  42   0.0000       0.143518         3.9053 
*Only the first 10 virtual orbitals were printed.
Total SCF time: 0 days 0 hours 0 min 4 sec 
Finished LeanSCF after   6.9 sec

Maximum memory used throughout the entire LEANSCF-calculation: 24.1 MB


-------------------------------------------------------------------------------
                          DFT DISPERSION CORRECTION                            
                                                                               
                                DFTD4 V3.4.0                                   
-------------------------------------------------------------------------------
-------------------------   ----------------
Dispersion correction           -0.005247196
-------------------------   ----------------

------------------   -----------------
gCP correction             0.007311598
------------------   -----------------

-------------------------   --------------------
FINAL SINGLE POINT ENERGY      -400.834153950057
-------------------------   --------------------

------------------------------------------------------------------------------
                         ORCA SCF GRADIENT CALCULATION
------------------------------------------------------------------------------

Nuc. rep. gradient        (SHARK) ... done (  0.0 sec)
HCore & Overlap gradient  (SHARK) ... done (  0.4 sec)
Split-RIJ-J gradient      (SHARK) ... done (  2.5 sec)
XC gradient                       ... done (  8.2 sec)
Dispersion correction             ... done (  0.0 sec)

-------------------
DISPERSION GRADIENT
-------------------

   1   C   :    0.000083793   -0.000048629    0.000000038
   2   C   :    0.000089419    0.000005425   -0.000000000
   3   O   :    0.000080623    0.000053364   -0.000000036
   4   C   :    0.000008652    0.000007192   -0.000000011
   5   C   :   -0.000027848    0.000068825    0.000000016
   6   C   :   -0.000076576    0.000048550    0.000000022
   7   C   :   -0.000090301    0.000002144   -0.000000003
   8   N   :   -0.000084545   -0.000056815   -0.000000045
   9   C   :   -0.000025622   -0.000053473   -0.000000038
  10   H   :    0.000032778   -0.000007365    0.000000023
  11   H   :    0.000036389   -0.000022219   -0.000010425
  12   H   :    0.000036389   -0.000022243    0.000010461
  13   H   :    0.000005691    0.000042779    0.000000013
  14   H   :   -0.000026976    0.000030155    0.000000016
  15   H   :   -0.000036010   -0.000004914   -0.000000002
  16   H   :   -0.000005856   -0.000042775   -0.000000030

Difference to translation invariance:
           :    0.0000000000   -0.0000000000   -0.0000000000

Difference to rotation invariance:
           :    0.0000000000   -0.0000000000    0.0000000000

Norm of the Dispersion gradient    ...    0.0002726486
RMS gradient                       ...    0.0000393534
MAX gradient                       ...    0.0000903010
gCP correction                   ... done

------------------
CARTESIAN GRADIENT
------------------

   1   C   :   -0.000017576    0.000012216   -0.000001553
   2   C   :    0.000133281    0.000021114    0.000013039
   3   O   :   -0.000056807   -0.000077843   -0.000008665
   4   C   :   -0.000008700   -0.000012489   -0.000002897
   5   C   :   -0.000037810    0.000026187   -0.000000769
   6   C   :   -0.000068924   -0.000108179    0.000001127
   7   C   :    0.000054421    0.000077090    0.000000392
   8   N   :   -0.000010335    0.000042449    0.000000093
   9   C   :   -0.000056268   -0.000004802   -0.000001700
  10   H   :   -0.000017820   -0.000017215    0.000001734
  11   H   :   -0.000002132    0.000021283    0.000010089
  12   H   :   -0.000006608    0.000021931   -0.000010993
  13   H   :   -0.000004565   -0.000014135    0.000000052
  14   H   :    0.000052582   -0.000017382    0.000000531
  15   H   :    0.000079324   -0.000019267    0.000000486
  16   H   :   -0.000032062    0.000049043   -0.000000967

Difference to translation invariance:
           :    0.0000000000    0.0000000000   -0.0000000000

Difference to rotation invariance:
           :   -0.0000043025   -0.0000018552   -0.0002747513

Norm of the Cartesian gradient     ...    0.0002760895
RMS gradient                       ...    0.0000398501
MAX gradient                       ...    0.0001332810

-------
TIMINGS
-------

Total SCF gradient time     ....       11.169 sec

Densities                   ....       0.000 sec  (  0.0%)
One electron gradient       ....       0.393 sec  (  3.5%)
RI-J Coulomb gradient       ....       2.533 sec  ( 22.7%)
XC gradient                 ....       8.208 sec  ( 73.5%)

Maximum memory used throughout the entire SCFGRAD-calculation: 36.0 MB

------------------------------------------------------------------------------
                              ORCA PROPERTY CALCULATIONS
------------------------------------------------------------------------------

GBWName                                 ... xtb_opt.gbw
Number of atoms                         ...     16
Number of basis functions               ...    216
Max core memory                         ...   1024 MB

Electric properties:
Dipole moment                           ... YES
Quadrupole moment                       ...  NO
Static polarizability (Dipole/Dipole)   ...  NO
Static polarizability (Dipole/Quad.)    ...  NO
Static polarizability (Quad./Quad.)     ...  NO
Static polarizability (Velocity)        ...  NO

Atomic electric properties:
Dipole moment                           ...  NO
Quadrupole moment                       ...  NO
Static polarizability                   ...  NO

Choice of electric origin               ... Center of mass
Position of electric origin             ...    -0.009540    -0.004129     0.000118

General magnetic properties:
Magnetizability                         ...  NO

EPR properties:
g-Tensor (aka g-matrix)                 ...  NO
Zero-Field splitting spin-orbit         ...  NO
Zero-field splitting spin-spin          ...  NO
Hyperfine couplings                     ...  NO (   0 nuclei)
Quadrupole couplings                    ...  NO (   0 nuclei)
Contact density                         ...  NO (   0 nuclei)

NMR properties:
Chemical shifts                         ...  NO (   0 nuclei)
Spin-rotation constants                 ...  NO (   0 nuclei)
Spin-spin couplings                     ...  NO (   0 nuclei,    0 pairs)

Choice of magnetic origin               ... GIAO
Position of magnetic origin             ...     0.000000     0.000000     0.000000

Properties with geometric perturbations:
SCF Hessian                             ...  NO
IR spectrum                             ...  NO
VCD spectrum                            ...  NO
X-ray spectroscopy properties:
SCF XES/XAS/RIXS spectra                ...  NO


-------------
DIPOLE MOMENT
-------------

Method             : SCF
Type of density    : Electron Density
Multiplicity       :   1
Irrep              :   0
Energy             :  -400.8362183522007740 Eh
Relativity type    : 
Basis              : AO
                                X                 Y                 Z
Electronic contribution:     -2.162176359       2.243108605      -0.003056969
Nuclear contribution   :      1.839218208      -2.437039129       0.004184860
                        -----------------------------------------
Total Dipole Moment    :     -0.322958151      -0.193930524       0.001127891
                        -----------------------------------------
Magnitude (a.u.)       :      0.376712474
Magnitude (Debye)      :      0.957527012



--------------------
Rotational spectrum 
--------------------
 
Rotational constants in cm-1:             0.125321             0.041240             0.031209 
Rotational constants in MHz :          3757.019152          1236.330736           935.622259 

Dipole components along the rotational axes: 
x,y,z [a.u.] :    -0.322429     0.194808     0.001155 
x,y,z [Debye]:    -0.819550     0.495164     0.002936 

 

Dipole moment calculation done in   0.7 sec 

Maximum memory used throughout the entire PROP-calculation: 14.5 MB

--------------------------------
SUGGESTED CITATIONS FOR THIS RUN
--------------------------------

Below you find a list of papers that are relevant to this ORCA run
We neither can nor want to force you to cite these papers, but we appreciate if you do
You receive ORCA, which is the product of decades of hard work by many enthusiastic individuals, for free
The only thing we kindly ask in return is that you cite our papers,
We deeply appreciate it, if you show your appreciation for ORCA by not just citing the generic ORCA reference.

Please note that relegating all ORCA citations to the supporting information does *not* help us.
SI sections are not indexed - citations you put there will not count into any citation statistics
But we need these citations in order to attract the funding resources that allow us to do what we are doing

Therefore, if you are a happy ORCA user, please consider citing a few of the papers listed below in the main body of your paper

In addition to the list printed below, the program has created the file xtb_opt.bibtex that contains the list in bibtex format
You can import this file easily into all common literature databanks and citation aid programs


List of essential papers. We consider these as the minimum necessary citations

  1. Neese,F.
     Software update: the ORCA program system, version 5.0
     WIRES Comput. Molec. Sci., 2022 12(1)e1606
     doi.org/10.1002/wcms.1606
  2. Grimme,S.; Hansen,A.; Ehlert,S.; Mewes,J.
     r2SCAN-3c: A 'Swiss army knife' composite electronic-structure method
     J. Chem. Phys., 2021 154 064103
     doi.org/10.1063/5.0040021

List of papers to cite with high priority. The work reported in these papers was absolutely
necessary for this run to complete.
Our perspective: the developers of density functionals and basis sets usually get cited in chemistry papers
Good! But without the algorithms to do something with them, the functionals or basis sets would not do anything.
Hence, in our opinion, the algorithm design and method developments papers are equally worthy of getting cited

  1. Neese,F.
     An improvement of the resolution of the identity approximation for the formation of the Coulomb matrix
     J. Comp. Chem., 2003 24(14)1740-1747
     doi.org/10.1002/jcc.10318
  2. Neese,F.
     The SHARK Integral Generation and Digestion System
     J. Comp. Chem., 2022  1-16
     doi.org/10.1002/jcc.26942
  3. Lehtola,S.; Steigemann,C.; Oliveira,M.; Marques,M.
     Recent developments in Libxc - A comprehensive library of functionals for density functional theory
     Software X, 2018 7 
     doi.org/10.1016/j.softx.2017.11.002
  4. Caldeweyher,E.; Bannwarth,C.; Grimme,S.
     Extension of the D3 dispersion coefficient model
     J. Chem. Phys., 2017 147 034112
     doi.org/10.1063/1.4993215
  5. Caldeweyher,E.; Ehlert,S.; Hansen,A.; Neugebauer,H.; Spicher,S.; Bannwarth,C.; Grimme,S.
     A generally applicable atomic-charge dependent London dispersion correction
     J. Chem. Phys., 2019 150 154122
     doi.org/10.1063/1.5090222
  6. Caldeweyher,E.; Mewes,J.; Ehlert,S.; Grimme,S.
     Extension and evaluation of the D4 London-dispersion model for periodic systems
     Phys. Chem. Chem. Phys., 2020 22(16)8499-8512
     doi.org/10.1039/D0CP00502A
  7. Wittmann,L.; Gordiy,I.; Friede,M.; Helmich-Paris,B.; Grimme,S.; Hansen,A.; Bursch,M.
     Extension of the D3 and D4 London Dispersion Corrections to the full Actinides Series
     Phys. Chem. Chem. Phys., 2024 26(32)21379-21394
     doi.org/https://doi.org/10.1039/D4CP01514B 

List of suggested additional citations. These are papers that are important in the 'surrounding' of 
of this run, or papers that preceded the highly important papers. If you like your results we are grateful for a citation.

  1. Neese,F.
     The ORCA program system
     WIRES Comput. Molec. Sci., 2012 2(1)73-78
     doi.org/10.1002/wcms.81
  2. Neese,F.
     Software update: the ORCA program system, version 4.0
     WIRES Comput. Molec. Sci., 2018 8(1)1-6
     doi.org/10.1002/wcms.1327
  3. Neese,F.; Wennmohs,F.; Becker,U.; Riplinger,C.
     The ORCA quantum chemistry program package
     J. Chem. Phys., 2020 152 Art. No. L224108
     doi.org/10.1063/5.0004608

List of optional additional citations

  1. Neese,F.
     Approximate second-order SCF convergence for spin unrestricted wavefunctions
     Chem. Phys. Lett., 2000 325(1-3)93-98
     doi.org/10.1016/s0009-2614(00)00662-x

Timings for individual modules:

Sum of individual times          ...       20.658 sec (=   0.344 min)
Startup calculation              ...        0.788 sec (=   0.013 min)   3.8 %
SCF iterations                   ...        7.185 sec (=   0.120 min)  34.8 %
Property calculations            ...        0.727 sec (=   0.012 min)   3.5 %
SCF Gradient evaluation          ...       11.957 sec (=   0.199 min)  57.9 %
                             ****ORCA TERMINATED NORMALLY****
TOTAL RUN TIME: 0 days 0 hours 0 minutes 23 seconds 654 msec
  ------------------------------------------------------------------------
          * successful ORCA run, taking over control again...

         :::::::::::::::::::::::::::::::::::::::::::::::::::::
         ::                  ORCA SUMMARY                   ::
         :::::::::::::::::::::::::::::::::::::::::::::::::::::
         :: total energy            -400.834153950057 Eh    ::
         :: gradient norm              0.000276089485 Eh/a0 ::
         :: HOMO-LUMO gap              0.000000000000 eV    ::
         :::::::::::::::::::::::::::::::::::::::::::::::::::::

           -------------------------------------------------
          |                Property Printout                |
           -------------------------------------------------
           -------------------------------------------------
          |                Geometry Summary                 |
           -------------------------------------------------

      molecular mass/u    :      121.1368447
   center of mass at/Å    :       -0.0050347      -0.0021771       0.0000627
  moments of inertia/u·Å² :        0.1345134E+03   0.4087671E+03   0.5401442E+03
rotational constants/cm⁻¹ :        0.1253231E+00   0.4124019E-01   0.3120950E-01

 * 14 selected distances

     #   Z          #   Z                                           value/Å
     2   6 C        3   8 O                                       1.2179979
     4   6 C        5   6 C                                       1.3977141
     5   6 C        6   6 C                                       1.3840230
     6   6 C        7   6 C                                       1.3943173
     7   6 C        8   7 N                                       1.3361194
     4   6 C        9   6 C                                       1.3984460 (max)
     8   7 N        9   6 C                                       1.3352825
     1   6 C       10   1 H                                       1.0896841
     1   6 C       11   1 H                                       1.0953742
     1   6 C       12   1 H                                       1.0953551
     5   6 C       13   1 H                                       1.0850661
     6   6 C       14   1 H                                       1.0848144 (min)
     7   6 C       15   1 H                                       1.0887540
     9   6 C       16   1 H                                       1.0882868

 * 4 distinct bonds (by element types)

   Z      Z             #   av. dist./Å        max./Å        min./Å
   1 H    6 C           7     1.0896193     1.0953742     1.0848144
   6 C    6 C           4     1.3936251     1.3984460     1.3840230
   6 C    7 N           2     1.3357010     1.3361194     1.3352825
   6 C    8 O           1     1.2179979     1.2179979     1.2179979


optimized geometry written to: xtbopt.coord


           -------------------------------------------------
          | TOTAL ENERGY             -400.834153950057 Eh   |
          | GRADIENT NORM               0.000276089485 Eh/α |
           -------------------------------------------------

------------------------------------------------------------------------
 * finished run on 2025/04/15 at 20:06:56.295     
------------------------------------------------------------------------
 total:
 * wall-time:     0 d,  0 h,  2 min, 42.367 sec
 *  cpu-time:     0 d,  0 h,  0 min,  2.870 sec
 * ratio c/w:     0.018 speedup
 SCF:
 * wall-time:     0 d,  0 h,  0 min, 17.705 sec
 *  cpu-time:     0 d,  0 h,  0 min,  0.513 sec
 * ratio c/w:     0.029 speedup
 ANC optimizer:
 * wall-time:     0 d,  0 h,  2 min, 24.519 sec
 *  cpu-time:     0 d,  0 h,  0 min,  2.004 sec
 * ratio c/w:     0.014 speedup

