      -----------------------------------------------------------      
     |                   =====================                   |     
     |                           x T B                           |     
     |                   =====================                   |     
     |                         S. Grimme                         |     
     |          Mulliken Center for Theoretical Chemistry        |     
     |                    University of Bonn                     |     
      -----------------------------------------------------------      

   * xtb version 6.7.1 (edcfbbe) compiled by 'albert@albert-system' on 2024-07-22

   xtb is free software: you can redistribute it and/or modify it under
   the terms of the GNU Lesser General Public License as published by
   the Free Software Foundation, either version 3 of the License, or
   (at your option) any later version.
   
   xtb is distributed in the hope that it will be useful,
   but WITHOUT ANY WARRANTY; without even the implied warranty of
   MERCHANTABILITY or FITNESS FOR A PARTICULAR PURPOSE.  See the
   GNU Lesser General Public License for more details.
   
   Cite this work as:
   * C. Bannwarth, E. Caldeweyher, S. Ehlert, A. Hansen, P. Pracht,
     J. Seibert, S. Spicher, S. Grimme, WIREs Comput. Mol. Sci., 2020, 11,
     e01493. DOI: 10.1002/wcms.1493
   
   for GFN2-xTB:
   * C. Bannwarth, S. Ehlert and S. Grimme., J. Chem. Theory Comput., 2019,
     15, 1652-1671. DOI: 10.1021/acs.jctc.8b01176
   for GFN1-xTB:
   * S. Grimme, C. Bannwarth, P. Shushkov, J. Chem. Theory Comput., 2017,
     13, 1989-2009. DOI: 10.1021/acs.jctc.7b00118
   for GFN0-xTB:
   * P. Pracht, E. Caldeweyher, S. Ehlert, S. Grimme, ChemRxiv, 2019, preprint.
     DOI: 10.26434/chemrxiv.8326202.v1
   for GFN-FF:
   * S. Spicher and S. Grimme, Angew. Chem. Int. Ed., 2020, 59, 15665-15673.
     DOI: 10.1002/anie.202004239
   
   for ALPB and GBSA implicit solvation:
   * S. Ehlert, M. Stahn, S. Spicher, S. Grimme, J. Chem. Theory Comput.,
     2021, 17, 4250-4261. DOI: 10.1021/acs.jctc.1c00471
   
   for ddCOSMO and CPCM-X implicit solvation:
   * M. Stahn, S. Ehlert, S. Grimme, J. Phys. Chem. A,
     2023, XX, XXXX-XXXX. DOI: 10.1021/acs.jpca.3c04382
   
   for DFT-D4:
   * E. Caldeweyher, C. Bannwarth and S. Grimme, J. Chem. Phys., 2017,
     147, 034112. DOI: 10.1063/1.4993215
   * E. Caldeweyher, S. Ehlert, A. Hansen, H. Neugebauer, S. Spicher,
     C. Bannwarth and S. Grimme, J. Chem. Phys., 2019, 150, 154122.
     DOI: 10.1063/1.5090222
   * E. Caldeweyher, J.-M. Mewes, S. Ehlert and S. Grimme, Phys. Chem. Chem. Phys.
     2020, 22, 8499-8512. DOI: 10.1039/D0CP00502A
   
   for sTDA-xTB:
   * S. Grimme and C. Bannwarth, J. Chem. Phys., 2016, 145, 054103.
     DOI: 10.1063/1.4959605
   
   in the mass-spec context:
   * V. Asgeirsson, C. Bauer and S. Grimme, Chem. Sci., 2017, 8, 4879.
     DOI: 10.1039/c7sc00601b
   * J. Koopman and S. Grimme, ACS Omega 2019, 4, 12, 15120-15133.
     DOI: 10.1021/acsomega.9b02011
   
   for metadynamics refer to:
   * S. Grimme, J. Chem. Theory Comput., 2019, 155, 2847-2862
     DOI: 10.1021/acs.jctc.9b00143
   
   for SPH calculations refer to:
   * S. Spicher and S. Grimme, J. Chem. Theory Comput., 2021, 17, 1701-1714
     DOI: 10.1021/acs.jctc.0c01306
   
   for ONIOM refer to:
   * C. Plett, A. Katbashev, S. Ehlert, S. Grimme, M. Bursch,
     Phys. Chem. Chem. Phys., 2023, 25, 17860-17868. DOI: 10.1039/D3CP02178E
   
   for DIPRO refer to:
   * J. Kohn, N. Gildemeister, S. Grimme, D. Fazzi, A. Hansen,
     J. Chem. Phys., 2023, just accepted.
   
   for PTB refer to:
   * S. Grimme, M. Mueller, A. Hansen, J. Chem. Phys., 2023, 158, 124111.
     DOI: 10.1063/5.0137838
   
   with help from (in alphabetical order)
   P. Atkinson, C. Bannwarth, F. Bohle, G. Brandenburg, E. Caldeweyher
   M. Checinski, S. Dohm, S. Ehlert, S. Ehrlich, I. Gerasimov, C. Hölzer
   A. Katbashev, J. Kohn, J. Koopman, C. Lavigne, S. Lehtola, F. März, M. Müller,
   F. Musil, H. Neugebauer, J. Pisarek, C. Plett, P. Pracht, F. Pultar,
   J. Seibert, P. Shushkov, S. Spicher, M. Stahn, M. Steiner, T. Strunk,
   J. Stückrath, T. Rose, and J. Unsleber
   
 * started run on 2025/04/15 at 20:16:28.174     
   ID    Z sym.   atoms
    1    6 C      1, 3, 5-10
    2    8 O      2, 4
    3    1 H      11-24

           -------------------------------------------------
          |                Calculation Setup                |
           -------------------------------------------------

          program call               : /software/projects/pawsey0265/mwang1/xtb/bin/xtb xtb_rrho.coord --gfn2 --bhess vtight --chrg 0 --enso --norestart -I rrho-xcontrol-inp --parallel 1
          hostname                   : nid002568
          coordinate file            : xtb_rrho.coord
          omp threads                :                     1


           -------------------------------------------------
          |                 G F N 2 - x T B                 |
           -------------------------------------------------

        Reference                      10.1021/acs.jctc.8b01176
      * Hamiltonian:
        H0-scaling (s, p, d)           1.850000    2.230000    2.230000
        zeta-weighting                 0.500000
      * Dispersion:
        s8                             2.700000
        a1                             0.520000
        a2                             5.000000
        s9                             5.000000
      * Repulsion:
        kExp                           1.500000    1.000000
        rExp                           1.000000
      * Coulomb:
        alpha                          2.000000
        third order                    shell-resolved
        anisotropic                    true
        a3                             3.000000
        a5                             4.000000
        cn-shift                       1.200000
        cn-exp                         4.000000
        max-rad                        5.000000


          ...................................................
          :                      SETUP                      :
          :.................................................:
          :  # basis functions                  54          :
          :  # atomic orbitals                  54          :
          :  # shells                           34          :
          :  # electrons                        58          :
          :  max. iterations                   250          :
          :  Hamiltonian                  GFN2-xTB          :
          :  restarted?                      false          :
          :  GBSA solvation                  false          :
          :  PC potential                    false          :
          :  electronic temp.          300.0000000     K    :
          :  accuracy                    1.0000000          :
          :  -> integral cutoff          0.2500000E+02      :
          :  -> integral neglect         0.1000000E-07      :
          :  -> SCF convergence          0.1000000E-05 Eh   :
          :  -> wf. convergence          0.1000000E-03 e    :
          :  Broyden damping             0.4000000          :
          :  net charge                          0          :
          :  unpaired electrons                  0          :
          ...................................................

 iter      E             dE          RMSdq      gap      omega  full diag
   1    -32.7222217 -0.327222E+02  0.371E+00    5.64       0.0  T
   2    -32.7966494 -0.744277E-01  0.193E+00    4.55       1.0  T
   3    -32.7999503 -0.330093E-02  0.110E+00    4.98       1.0  T
   4    -32.8027439 -0.279358E-02  0.173E-01    4.64       1.0  T
   5    -32.8030796 -0.335690E-03  0.692E-02    4.72       1.0  T
   6    -32.8030872 -0.759043E-05  0.215E-02    4.72       1.0  T
   7    -32.8030880 -0.860210E-06  0.737E-03    4.72       2.8  T
   8    -32.8030882 -0.193426E-06  0.266E-03    4.72       7.7  T
   9    -32.8030882 -0.204069E-07  0.104E-03    4.72      19.6  T
  10    -32.8030882 -0.345678E-08  0.280E-04    4.72      72.9  T
  11    -32.8030882 -0.330417E-09  0.111E-04    4.72     183.8  T

   *** convergence criteria satisfied after 11 iterations ***

         #    Occupation            Energy/Eh            Energy/eV
      -------------------------------------------------------------
         1        2.0000           -0.7357597             -20.0210
       ...           ...                  ...                  ...
        23        2.0000           -0.4606886             -12.5360
        24        2.0000           -0.4479493             -12.1893
        25        2.0000           -0.4397052             -11.9650
        26        2.0000           -0.4258253             -11.5873
        27        2.0000           -0.4215410             -11.4707
        28        2.0000           -0.4212212             -11.4620
        29        2.0000           -0.4058429             -11.0435 (HOMO)
        30                         -0.2324585              -6.3255 (LUMO)
        31                         -0.0039610              -0.1078
        32                          0.0656771               1.7872
        33                          0.0702767               1.9123
        34                          0.0798450               2.1727
       ...                                ...                  ...
        54                          0.6160767              16.7643
      -------------------------------------------------------------
                  HL-Gap            0.1733845 Eh            4.7180 eV
             Fermi-level           -0.3191507 Eh           -8.6845 eV

 SCC (total)                   0 d,  0 h,  0 min,  0.041 sec
 SCC setup                      ...        0 min,  0.000 sec (  0.568%)
 Dispersion                     ...        0 min,  0.000 sec (  0.456%)
 classical contributions        ...        0 min,  0.000 sec (  0.109%)
 integral evaluation            ...        0 min,  0.003 sec (  6.615%)
 iterations                     ...        0 min,  0.028 sec ( 68.230%)
 molecular gradient             ...        0 min,  0.010 sec ( 23.598%)
 printout                       ...        0 min,  0.000 sec (  0.371%)

         :::::::::::::::::::::::::::::::::::::::::::::::::::::
         ::                     SUMMARY                     ::
         :::::::::::::::::::::::::::::::::::::::::::::::::::::
         :: total energy             -32.431495061771 Eh    ::
         :: gradient norm              0.031771833579 Eh/a0 ::
         :: HOMO-LUMO gap              4.718031427054 eV    ::
         ::.................................................::
         :: SCC energy               -32.802914535311 Eh    ::
         :: -> isotropic ES            0.045763125860 Eh    ::
         :: -> anisotropic ES          0.004046079236 Eh    ::
         :: -> anisotropic XC          0.010074366020 Eh    ::
         :: -> dispersion             -0.018412241277 Eh    ::
         :: repulsion energy           0.371419473539 Eh    ::
         :: add. restraining           0.000000000000 Eh    ::
         :: total charge              -0.000000000000 e     ::
         :::::::::::::::::::::::::::::::::::::::::::::::::::::

metadynamics with 1 initial structures loaded
           -------------------------------------------------
          |           Optimal kpush determination           |
           -------------------------------------------------
      ----------------------------------------------------------- 
     |                   =====================                   |
     |                        A N C O P T                        |
     |                   =====================                   |
     |               Approximate Normal Coordinate               |
     |                Rational Function Optimizer                |
      ----------------------------------------------------------- 
target rmsd / Å         0.100000
unbiased initial rmsd   0.058621
 
iter. min.        max.        rmsd       kpush
final kpush:  0.000000
           -------------------------------------------------
          |            Biased Numerical Hessian             |
           -------------------------------------------------
kpush                :   0.00000
alpha                :   1.00000
step length          :   0.00500
SCC accuracy         :   0.30000
Hessian scale factor :   1.00000
frozen atoms in %    :   0.00000    0
RMS gradient         :   0.00020
estimated CPU  time      0.02 min
estimated wall time      0.02 min

writing file <hessian>.

 projected vibrational frequencies (cm⁻¹)
eigval :       -0.00    -0.00    -0.00     0.00     0.00     0.00
eigval :       19.21    69.33   112.00   117.47   199.61   225.17
eigval :      277.52   280.45   340.98   363.69   423.65   495.03
eigval :      568.58   707.10   720.44   814.25   827.75   878.42
eigval :      893.64   932.94   949.63   956.80  1004.51  1029.11
eigval :     1091.85  1096.84  1110.97  1114.54  1123.21  1139.71
eigval :     1152.59  1171.61  1198.08  1246.94  1250.03  1273.62
eigval :     1292.18  1323.18  1332.86  1349.37  1350.08  1355.67
eigval :     1364.34  1388.87  1442.27  1465.93  1476.97  1485.57
eigval :     1486.09  1487.97  1502.82  1758.69  2937.27  2959.32
eigval :     2961.27  2964.38  2970.89  2972.06  2978.19  2980.22
eigval :     2981.52  2986.49  2990.60  3008.82  3013.92  3041.64
           -------------------------------------------------
          |                Property Printout                |
           -------------------------------------------------

    * Orbital Energies and Occupations

         #    Occupation            Energy/Eh            Energy/eV
      -------------------------------------------------------------
         1        2.0000           -0.7422926             -20.1988
       ...           ...                  ...                  ...
        17        2.0000           -0.5013624             -13.6428
        18        2.0000           -0.4995047             -13.5922
        19        2.0000           -0.4849962             -13.1974
        20        2.0000           -0.4769912             -12.9796
        21        2.0000           -0.4705501             -12.8043
        22        2.0000           -0.4687395             -12.7551
        23        2.0000           -0.4618986             -12.5689
        24        2.0000           -0.4496449             -12.2355
        25        2.0000           -0.4391249             -11.9492
        26        2.0000           -0.4255189             -11.5790
        27        2.0000           -0.4201793             -11.4337
        28        2.0000           -0.4197197             -11.4212
        29        2.0000           -0.4048233             -11.0158 (HOMO)
        30                         -0.2276872              -6.1957 (LUMO)
        31                          0.0123339               0.3356
        32                          0.0750458               2.0421
        33                          0.0830994               2.2613
        34                          0.0894140               2.4331
        35                          0.1019899               2.7753
        36                          0.1040767               2.8321
        37                          0.1155407               3.1440
        38                          0.1285482               3.4980
        39                          0.1345701               3.6618
        40                          0.1508653               4.1053
       ...                                ...                  ...
        54                          0.6370092              17.3339
      -------------------------------------------------------------
                  HL-Gap            0.1771361 Eh            4.8201 eV
             Fermi-level           -0.3162552 Eh           -8.6057 eV

     #   Z          covCN         q      C6AA      α(0)
     1   6 C        3.658     0.034    20.287     6.464
     2   8 O        1.704    -0.252    18.174     5.756
     3   6 C        2.725     0.354    20.985     7.499
     4   8 O        0.856    -0.418    22.036     6.294
     5   6 C        3.852    -0.044    21.323     6.568
     6   6 C        3.806    -0.053    21.515     6.603
     7   6 C        3.805    -0.059    21.636     6.622
     8   6 C        3.806    -0.056    21.576     6.613
     9   6 C        3.805    -0.059    21.641     6.623
    10   6 C        3.806    -0.053    21.519     6.604
    11   1 H        0.924     0.061     2.185     2.312
    12   1 H        0.924     0.061     2.184     2.311
    13   1 H        0.925     0.065     2.143     2.289
    14   1 H        0.924     0.054     2.267     2.354
    15   1 H        0.924     0.032     2.557     2.500
    16   1 H        0.924     0.042     2.421     2.433
    17   1 H        0.925     0.046     2.370     2.408
    18   1 H        0.924     0.031     2.578     2.511
    19   1 H        0.924     0.030     2.591     2.517
    20   1 H        0.924     0.032     2.554     2.499
    21   1 H        0.925     0.047     2.361     2.403
    22   1 H        0.924     0.031     2.579     2.511
    23   1 H        0.924     0.032     2.560     2.502
    24   1 H        0.924     0.042     2.425     2.435

 Mol. C6AA /au·bohr⁶  :       4551.321387
 Mol. C8AA /au·bohr⁸  :      98442.682620
 Mol. α(0) /au        :         99.631970


Wiberg/Mayer (AO) data.
largest (>0.10) Wiberg bond orders for each atom

 ---------------------------------------------------------------------------
     #   Z sym  total        # sym  WBO       # sym  WBO       # sym  WBO
 ---------------------------------------------------------------------------
     1   6 C    3.930 --    13 H    0.982    11 H    0.977    12 H    0.977
                             2 O    0.959
     2   8 O    2.314 --     3 C    1.130     1 C    0.959     4 O    0.170
     3   6 C    3.911 --     4 O    1.752     2 O    1.130     5 C    0.960
     4   8 O    2.030 --     3 C    1.752     2 O    0.170
     5   6 C    3.993 --    10 C    0.980     6 C    0.979    14 H    0.965
                             3 C    0.960
     6   6 C    3.996 --     7 C    1.010     5 C    0.979    15 H    0.977
                            16 H    0.974
     7   6 C    3.997 --     6 C    1.010     8 C    1.009    18 H    0.976
                            17 H    0.973
     8   6 C    3.998 --     9 C    1.009     7 C    1.009    19 H    0.978
                            20 H    0.977
     9   6 C    3.997 --    10 C    1.010     8 C    1.009    22 H    0.976
                            21 H    0.973
    10   6 C    3.996 --     9 C    1.010     5 C    0.980    23 H    0.977
                            24 H    0.975
    11   1 H    0.996 --     1 C    0.977
    12   1 H    0.996 --     1 C    0.977
    13   1 H    0.996 --     1 C    0.982
    14   1 H    0.997 --     5 C    0.965
    15   1 H    0.999 --     6 C    0.977
    16   1 H    0.998 --     6 C    0.974
    17   1 H    0.998 --     7 C    0.973
    18   1 H    0.999 --     7 C    0.976
    19   1 H    0.999 --     8 C    0.978
    20   1 H    0.999 --     8 C    0.977
    21   1 H    0.998 --     9 C    0.973
    22   1 H    0.999 --     9 C    0.976
    23   1 H    0.999 --    10 C    0.977
    24   1 H    0.998 --    10 C    0.975
 ---------------------------------------------------------------------------

Topologies differ in total number of bonds
Writing topology from bond orders to xtbtopo.mol

molecular dipole:
                 x           y           z       tot (Debye)
 q only:        0.648       0.087       0.704
   full:        0.639       0.089       0.710       2.439
molecular quadrupole (traceless):
                xx          xy          yy          xz          yz          zz
 q only:       -1.890      -0.848       0.618      -8.216      -0.244       1.272
  q+dip:       -2.751      -1.057       1.691      -9.655      -0.426       1.060
   full:       -3.026      -1.088       2.261      -9.561      -0.504       0.765

           -------------------------------------------------
          |                Geometry Summary                 |
           -------------------------------------------------

      molecular mass/u    :      142.1958675
   center of mass at/Å    :        0.0001527      -0.0002363      -0.0003977
  moments of inertia/u·Å² :        0.2408551E+03   0.5032037E+03   0.5385579E+03
rotational constants/cm⁻¹ :        0.6999076E-01   0.3350061E-01   0.3130143E-01

 * 23 selected distances

     #   Z          #   Z                                           value/Å
     1   6 C        2   8 O                                       1.4201213
     2   8 O        3   6 C                                       1.3378516
     3   6 C        4   8 O                                       1.2050983
     5   6 C        6   6 C                                       1.5361899 (max)
     6   6 C        7   6 C                                       1.5248069
     7   6 C        8   6 C                                       1.5246457
     8   6 C        9   6 C                                       1.5246263
     5   6 C       10   6 C                                       1.5356735
     9   6 C       10   6 C                                       1.5250240
     1   6 C       11   1 H                                       1.0918432
     1   6 C       12   1 H                                       1.0918198
     1   6 C       13   1 H                                       1.0871977 (min)
     5   6 C       14   1 H                                       1.0962736
     6   6 C       15   1 H                                       1.0923516
     6   6 C       16   1 H                                       1.0929366
     7   6 C       17   1 H                                       1.0901283
     7   6 C       18   1 H                                       1.0923148
     8   6 C       19   1 H                                       1.0916511
     8   6 C       20   1 H                                       1.0929903
     9   6 C       21   1 H                                       1.0899781
     9   6 C       22   1 H                                       1.0923396
    10   6 C       23   1 H                                       1.0923353
    10   6 C       24   1 H                                       1.0929959

 * 3 distinct bonds (by element types)

   Z      Z             #   av. dist./Å        max./Å        min./Å
   1 H    6 C          14     1.0919397     1.0962736     1.0871977
   6 C    6 C           6     1.5284944     1.5361899     1.5246263
   6 C    8 O           3     1.3210237     1.4201213     1.2050983

           -------------------------------------------------
          |               Frequency Printout                |
           -------------------------------------------------
 projected vibrational frequencies (cm⁻¹)
eigval :       -0.00    -0.00    -0.00     0.00     0.00     0.00
eigval :       19.21    69.33   112.00   117.47   199.61   225.17
eigval :      277.52   280.45   340.98   363.69   423.65   495.03
eigval :      568.58   707.10   720.44   814.25   827.75   878.42
eigval :      893.64   932.94   949.63   956.80  1004.51  1029.11
eigval :     1091.85  1096.84  1110.97  1114.54  1123.21  1139.71
eigval :     1152.59  1171.61  1198.08  1246.94  1250.03  1273.62
eigval :     1292.18  1323.18  1332.86  1349.37  1350.08  1355.67
eigval :     1364.34  1388.87  1442.27  1465.93  1476.97  1485.57
eigval :     1486.09  1487.97  1502.82  1758.69  2937.27  2959.32
eigval :     2961.27  2964.38  2970.89  2972.06  2978.19  2980.22
eigval :     2981.52  2986.49  2990.60  3008.82  3013.92  3041.64
 reduced masses (amu)
   1: 10.32   2: 11.60   3: 10.92   4: 11.18   5: 11.05   6: 12.52   7: 13.12   8:  2.12
   9:  8.95  10:  9.55  11:  9.75  12:  9.82  13: 10.10  14:  8.67  15: 11.05  16:  7.69
  17:  9.41  18:  7.24  19: 10.35  20:  8.96  21: 11.77  22:  4.54  23: 11.23  24:  7.36
  25:  7.08  26:  7.85  27:  8.03  28:  4.11  29:  7.83  30: 10.46  31:  4.72  32:  6.84
  33:  8.55  34:  4.05  35:  3.91  36:  3.06  37:  6.23  38:  5.99  39:  9.29  40:  4.06
  41:  3.78  42:  5.22  43:  4.97  44:  4.99  45:  3.79  46:  4.66  47:  4.61  48:  5.23
  49:  4.97  50:  2.59  51:  1.53  52:  1.59  53:  1.87  54:  1.95  55:  2.01  56:  1.88
  57:  2.03  58: 13.37  59:  1.75  60:  1.93  61:  1.93  62:  1.86  63:  1.77  64:  1.76
  65:  1.94  66:  1.55  67:  1.61  68:  1.60  69:  1.40  70:  1.65  71:  1.71  72:  1.77
 IR intensities (km·mol⁻¹)
   1:  0.30   2:  0.37   3:  0.02   4:  0.23   5:  0.17   6:  0.15   7:  2.52   8:  0.16
   9:  1.06  10:  0.20  11:  2.02  12:  3.37  13:  3.46  14:  2.75  15:  8.63  16:  2.06
  17:  0.83  18:  5.23  19:  2.89  20:  8.29  21: 26.15  22:  0.31  23: 13.30  24:  5.06
  25:  1.66  26:  0.21  27: 18.01  28:  2.64  29:  4.37  30:  7.85  31:  0.33  32: 28.29
  33: 93.85  34:  0.08  35:  1.74  36:  0.02  37:  9.57  38:  0.22  39:120.28  40: 14.49
  41:  0.15  42: 54.26  43:  2.85  44:  0.79  45:  0.09  46:  7.78  47:  1.15  48:  0.36
  49:  3.10  50:  6.82  51:  6.02  52:  3.19  53:  0.09  54:  0.99  55:  2.04  56:  3.08
  57:  1.94  58:444.88  59: 25.57  60: 10.13  61:  6.39  62: 65.32  63: 13.73  64: 35.65
  65:  5.22  66: 42.29  67:131.07  68: 89.89  69: 14.71  70: 13.37  71: 79.04  72:  9.96
 Raman intensities (Ä⁴*amu⁻¹)
   1:  0.00   2:  0.00   3:  0.00   4:  0.00   5:  0.00   6:  0.00   7:  0.00   8:  0.00
   9:  0.00  10:  0.00  11:  0.00  12:  0.00  13:  0.00  14:  0.00  15:  0.00  16:  0.00
  17:  0.00  18:  0.00  19:  0.00  20:  0.00  21:  0.00  22:  0.00  23:  0.00  24:  0.00
  25:  0.00  26:  0.00  27:  0.00  28:  0.00  29:  0.00  30:  0.00  31:  0.00  32:  0.00
  33:  0.00  34:  0.00  35:  0.00  36:  0.00  37:  0.00  38:  0.00  39:  0.00  40:  0.00
  41:  0.00  42:  0.00  43:  0.00  44:  0.00  45:  0.00  46:  0.00  47:  0.00  48:  0.00
  49:  0.00  50:  0.00  51:  0.00  52:  0.00  53:  0.00  54:  0.00  55:  0.00  56:  0.00
  57:  0.00  58:  0.00  59:  0.00  60:  0.00  61:  0.00  62:  0.00  63:  0.00  64:  0.00
  65:  0.00  66:  0.00  67:  0.00  68:  0.00  69:  0.00  70:  0.00  71:  0.00  72:  0.00
 output can be read by thermo (or use thermo option).
 writing <g98.out> molden fake output.
 recommended (thermochemical) frequency scaling factor: 1.0
           -------------------------------------------------
          |             Thermodynamic Functions             |
           -------------------------------------------------

Molecule has no symmetry elements
It seems to be the C1 point group
c1  symmetry found (for desy threshold:  0.10E+00) used in thermo

          ...................................................
          :                      SETUP                      :
          :.................................................:
          :  # frequencies                          66      :
          :  # imaginary freq.                       0      :
          :  linear?                             false      :
          :  only rotor calc.                    false      :
          :  symmetry                               c1      :
          :  rotational number                       1      :
          :  scaling factor                  1.0000000      :
          :  rotor cutoff                    0.0000000 cm⁻¹ :
          :  imag. cutoff                 -100.0000000 cm⁻¹ :
          :.................................................:

    mode    ω/cm⁻¹     T·S(HO)/kcal·mol⁻¹    T·S(FR)/kcal·mol⁻¹   T·S(vib)
   ------------------------------------------------------------------------
       1     19.21    -2.00177 (100.00%)    -1.33929 (  0.00%)    -2.00177
       2     69.33    -1.24394 (100.00%)    -0.95954 (  0.00%)    -1.24394
       3    112.00    -0.96421 (100.00%)    -0.81754 (  0.00%)    -0.96421
       4    117.47    -0.93667 (100.00%)    -0.80342 (  0.00%)    -0.93667
       5    199.61    -0.63706 (100.00%)    -0.64639 (  0.00%)    -0.63706
       6    225.17    -0.57159 (100.00%)    -0.61071 (  0.00%)    -0.57159
       7    277.52    -0.46180 (100.00%)    -0.54878 (  0.00%)    -0.46180
       8    280.45    -0.45645 (100.00%)    -0.54568 (  0.00%)    -0.45645
   ------------------------------------------------------------------------

   temp. (K)  partition function   enthalpy   heat capacity  entropy
                                   cal/mol     cal/K/mol   cal/K/mol   J/K/mol
 298.15  VIB  0.253E+04             4725.243     32.156     31.418
         ROT  0.617E+06              888.752      2.981     29.477
         INT  0.156E+10             5613.995     35.136     60.895
         TR   0.164E+28             1481.254      4.968     40.749
         TOT                        7095.2493    40.1045   101.6436   425.2770

       T/K    H(0)-H(T)+PV         H(T)/Eh          T*S/Eh         G(T)/Eh
   ------------------------------------------------------------------------
    298.15    0.113070E-01    0.220413E+00    0.482942E-01    0.172118E+00
   ------------------------------------------------------------------------

         :::::::::::::::::::::::::::::::::::::::::::::::::::::
         ::                  THERMODYNAMIC                  ::
         :::::::::::::::::::::::::::::::::::::::::::::::::::::
         :: total free energy         -32.261335864312 Eh   ::
         ::.................................................::
         :: total energy              -32.433454225708 Eh   ::
         :: zero point energy           0.209105539593 Eh   ::
         :: G(RRHO) w/o ZPVE           -0.036987178197 Eh   ::
         :: G(RRHO) contrib.            0.172118361396 Eh   ::
         :::::::::::::::::::::::::::::::::::::::::::::::::::::

optimized geometry written to: xtbopt.coord


           -------------------------------------------------
          | TOTAL ENERGY              -32.433454225708 Eh   |
          | TOTAL ENTHALPY            -32.213041686689 Eh   |
          | TOTAL FREE ENERGY         -32.261335864312 Eh   |
          | GRADIENT NORM               0.000197629183 Eh/α |
          | HOMO-LUMO GAP               4.820119301094 eV   |
           -------------------------------------------------

------------------------------------------------------------------------
 * finished run on 2025/04/15 at 20:16:29.815     
------------------------------------------------------------------------
 total:
 * wall-time:     0 d,  0 h,  0 min,  1.639 sec
 *  cpu-time:     0 d,  0 h,  0 min,  1.597 sec
 * ratio c/w:     0.974 speedup
 SCF:
 * wall-time:     0 d,  0 h,  0 min,  0.041 sec
 *  cpu-time:     0 d,  0 h,  0 min,  0.027 sec
 * ratio c/w:     0.651 speedup
 analytical hessian:
 * wall-time:     0 d,  0 h,  0 min,  1.391 sec
 *  cpu-time:     0 d,  0 h,  0 min,  1.389 sec
 * ratio c/w:     0.999 speedup

