      -----------------------------------------------------------      
     |                   =====================                   |     
     |                           x T B                           |     
     |                   =====================                   |     
     |                         S. Grimme                         |     
     |          Mulliken Center for Theoretical Chemistry        |     
     |                    University of Bonn                     |     
      -----------------------------------------------------------      

   * xtb version 6.7.1 (edcfbbe) compiled by 'albert@albert-system' on 2024-07-22

   xtb is free software: you can redistribute it and/or modify it under
   the terms of the GNU Lesser General Public License as published by
   the Free Software Foundation, either version 3 of the License, or
   (at your option) any later version.
   
   xtb is distributed in the hope that it will be useful,
   but WITHOUT ANY WARRANTY; without even the implied warranty of
   MERCHANTABILITY or FITNESS FOR A PARTICULAR PURPOSE.  See the
   GNU Lesser General Public License for more details.
   
   Cite this work as:
   * C. Bannwarth, E. Caldeweyher, S. Ehlert, A. Hansen, P. Pracht,
     J. Seibert, S. Spicher, S. Grimme, WIREs Comput. Mol. Sci., 2020, 11,
     e01493. DOI: 10.1002/wcms.1493
   
   for GFN2-xTB:
   * C. Bannwarth, S. Ehlert and S. Grimme., J. Chem. Theory Comput., 2019,
     15, 1652-1671. DOI: 10.1021/acs.jctc.8b01176
   for GFN1-xTB:
   * S. Grimme, C. Bannwarth, P. Shushkov, J. Chem. Theory Comput., 2017,
     13, 1989-2009. DOI: 10.1021/acs.jctc.7b00118
   for GFN0-xTB:
   * P. Pracht, E. Caldeweyher, S. Ehlert, S. Grimme, ChemRxiv, 2019, preprint.
     DOI: 10.26434/chemrxiv.8326202.v1
   for GFN-FF:
   * S. Spicher and S. Grimme, Angew. Chem. Int. Ed., 2020, 59, 15665-15673.
     DOI: 10.1002/anie.202004239
   
   for ALPB and GBSA implicit solvation:
   * S. Ehlert, M. Stahn, S. Spicher, S. Grimme, J. Chem. Theory Comput.,
     2021, 17, 4250-4261. DOI: 10.1021/acs.jctc.1c00471
   
   for ddCOSMO and CPCM-X implicit solvation:
   * M. Stahn, S. Ehlert, S. Grimme, J. Phys. Chem. A,
     2023, XX, XXXX-XXXX. DOI: 10.1021/acs.jpca.3c04382
   
   for DFT-D4:
   * E. Caldeweyher, C. Bannwarth and S. Grimme, J. Chem. Phys., 2017,
     147, 034112. DOI: 10.1063/1.4993215
   * E. Caldeweyher, S. Ehlert, A. Hansen, H. Neugebauer, S. Spicher,
     C. Bannwarth and S. Grimme, J. Chem. Phys., 2019, 150, 154122.
     DOI: 10.1063/1.5090222
   * E. Caldeweyher, J.-M. Mewes, S. Ehlert and S. Grimme, Phys. Chem. Chem. Phys.
     2020, 22, 8499-8512. DOI: 10.1039/D0CP00502A
   
   for sTDA-xTB:
   * S. Grimme and C. Bannwarth, J. Chem. Phys., 2016, 145, 054103.
     DOI: 10.1063/1.4959605
   
   in the mass-spec context:
   * V. Asgeirsson, C. Bauer and S. Grimme, Chem. Sci., 2017, 8, 4879.
     DOI: 10.1039/c7sc00601b
   * J. Koopman and S. Grimme, ACS Omega 2019, 4, 12, 15120-15133.
     DOI: 10.1021/acsomega.9b02011
   
   for metadynamics refer to:
   * S. Grimme, J. Chem. Theory Comput., 2019, 155, 2847-2862
     DOI: 10.1021/acs.jctc.9b00143
   
   for SPH calculations refer to:
   * S. Spicher and S. Grimme, J. Chem. Theory Comput., 2021, 17, 1701-1714
     DOI: 10.1021/acs.jctc.0c01306
   
   for ONIOM refer to:
   * C. Plett, A. Katbashev, S. Ehlert, S. Grimme, M. Bursch,
     Phys. Chem. Chem. Phys., 2023, 25, 17860-17868. DOI: 10.1039/D3CP02178E
   
   for DIPRO refer to:
   * J. Kohn, N. Gildemeister, S. Grimme, D. Fazzi, A. Hansen,
     J. Chem. Phys., 2023, just accepted.
   
   for PTB refer to:
   * S. Grimme, M. Mueller, A. Hansen, J. Chem. Phys., 2023, 158, 124111.
     DOI: 10.1063/5.0137838
   
   with help from (in alphabetical order)
   P. Atkinson, C. Bannwarth, F. Bohle, G. Brandenburg, E. Caldeweyher
   M. Checinski, S. Dohm, S. Ehlert, S. Ehrlich, I. Gerasimov, C. Hölzer
   A. Katbashev, J. Kohn, J. Koopman, C. Lavigne, S. Lehtola, F. März, M. Müller,
   F. Musil, H. Neugebauer, J. Pisarek, C. Plett, P. Pracht, F. Pultar,
   J. Seibert, P. Shushkov, S. Spicher, M. Stahn, M. Steiner, T. Strunk,
   J. Stückrath, T. Rose, and J. Unsleber
   
 * started run on 2025/04/16 at 09:43:12.578     
   ID    Z sym.   atoms
    1    6 C      1-4, 6
    2    8 O      5
    3    1 H      7-16

           -------------------------------------------------
          |                Calculation Setup                |
           -------------------------------------------------

          program call               : /software/projects/pawsey0265/mwang1/xtb/bin/xtb xtb_opt.coord --opt normal --orca -I xtb_opt-xcontrol-inp
          hostname                   : nid002811
          coordinate file            : xtb_opt.coord
          omp threads                :                    32

           -------------------------------------------------
          |                   Orca driver                   |
           -------------------------------------------------
orca executable           : /software/projects/pawsey0265/mwang1/orca_avx2/orca
orca input file           : xtb_opt.inp
orca input line           : 
orca parallel             : true
orca number of threads    : 32
                         * ORCA takes the control...
  ------------------------------------------------------------------------

                                 *****************
                                 * O   R   C   A *
                                 *****************

                                            #,                                       
                                            ###                                      
                                            ####                                     
                                            #####                                    
                                            ######                                   
                                           ########,                                 
                                     ,,################,,,,,                         
                               ,,#################################,,                 
                          ,,##########################################,,             
                       ,#########################################, ''#####,          
                    ,#############################################,,   '####,        
                  ,##################################################,,,,####,       
                ,###########''''           ''''###############################       
              ,#####''   ,,,,##########,,,,          '''####'''          '####       
            ,##' ,,,,###########################,,,                        '##       
           ' ,,###''''                  '''############,,,                           
         ,,##''                                '''############,,,,        ,,,,,,###''
      ,#''                                            '''#######################'''  
     '                                                          ''''####''''         
             ,#######,   #######,   ,#######,      ##                                
            ,#'     '#,  ##    ##  ,#'     '#,    #''#        ,####,   ,####,        
            ##       ##  ##   ,#'  ##            #'  '#       #'       #'  '#        
            ##       ##  #######   ##           ,######,      #####,   #    #        
            '#,     ,#'  ##    ##  '#,     ,#' ,#      #,     #,   #   #,  ,#        
             '#######'   ##     ##  '#######'  #'      '#     '####' # '####'        



                #########################################################
                #                        -***-                          #
                #          Department of theory and spectroscopy        #
                #                                                       #
                #                      Frank Neese                      #
                #                                                       #
                #     Directorship, Architecture, Infrastructure        #
                #                    SHARK, DRIVERS                     #
                #        Core code/Algorithms in most modules           #
                #                                                       #
                #        Max Planck Institute fuer Kohlenforschung      #
                #                Kaiser Wilhelm Platz 1                 #
                #                 D-45470 Muelheim/Ruhr                 #
                #                      Germany                          #
                #                                                       #
                #                  All rights reserved                  #
                #                        -***-                          #
                #########################################################


                         Program Version 6.0.1  -  RELEASE   -


 With contributions from (in alphabetic order):
[Max-Planck-Institut fuer Kohlenforschung]                               
  Daniel Aravena         : Magnetic Suceptibility                        
  Michael Atanasov       : Ab Initio Ligand Field Theory (pilot matlab implementation)
  Alexander A. Auer      : GIAO ZORA, VPT2 properties, NMR spectrum      
  Ute Becker             : All parallelization in ORCA, NUMFREQ, NUMCALC 
  Giovanni Bistoni       : ED, misc. LED, open-shell LED, HFLD           
  Martin Brehm           : Molecular dynamics                            
  Dmytro Bykov           : pre 5.0 version of the SCF Hessian            
  Marcos Casanova-Páez   : Triplet and SCS-CIS(D). UHF-(DLPNO)-IP/EA/STEOM-CCSD. UHF-CVS-IP/STEOM-CCSD   
  Vijay G. Chilkuri      : MRCI spin determinant printing, contributions to CSF-ICE 
  Pauline Colinet        : FMM embedding                                 
  Dipayan Datta          : RHF DLPNO-CCSD density                        
  Achintya Kumar Dutta   : EOM-CC, STEOM-CC                              
  Nicolas Foglia         : Exact transition moments, OPA infrastructure, MCD improvements    
  Dmitry Ganyushin       : Spin-Orbit,Spin-Spin,Magnetic field MRCI      
  Miquel Garcia-Rates    : C-PCM and meta-GGA Hessian, CCSD/C-PCM, Gaussian charge scheme 
  Tiago L. C. Gouveia    : GS-ROHF, GS-ROCIS                             
  Yang Guo               : DLPNO-NEVPT2, F12-NEVPT2, CIM, IAO-localization        
  Andreas Hansen         : Spin unrestricted coupled pair/coupled cluster methods 
  Ingolf Harden          : AUTO-CI MPn and infrastructure                
  Benjamin Helmich-Paris : MC-RPA, TRAH-(SCF,CASSCF), AVAS, COSX integrals, SCF dyn. polar. 
  Lee Huntington         : MR-EOM, pCC                                   
  Robert Izsak           : Overlap fitted RIJCOSX, COSX-SCS-MP3, EOM     
  Riya Kayal             : Wick's Theorem for AUTO-CI, AUTO-CI UHF-CCSDT 
  Emily Kempfer          : AUTO-CI, RHF CISDT and CCSDT                  
  Christian Kollmar      : KDIIS, OOCD, Brueckner-CCSD(T), CCSD density, CASPT2, CASPT2-K, improved NEVPT2 
  Axel Koslowski         : Symmetry handling                             
  Simone Kossmann        : meta-GGA functionals, TD-DFT gradient, OOMP2, (MP2 Hessian; deprecated post 5.0) 
  Lucas Lang             : DCDCAS                                        
  Marvin Lechner         : AUTO-CI (C++ implementation), FIC-MRCC        
  Spencer Leger          : CASSCF response                               
  Dagmar Lenk            : GEPOL surface, SMD, ORCA-2-JSON               
  Dimitrios Liakos       : Extrapolation schemes; Compound Job, initial MDCI parallelization 
  Dimitrios Manganas     : Further ROCIS development; embedding schemes. LFT, Crystal Embedding 
  Dimitrios Pantazis     : SARC Basis sets                               
  Anastasios Papadopoulos: AUTO-CI, single reference methods and gradients 
  Taras Petrenko         : pre 6.0 DFT Hessian and TD-DFT gradient, (ASA, deprecated), ECA, 1-Electron XAS/XES, NRVS 
  Peter Pinski           : DLPNO-MP2, DLPNO-MP2 Gradient                 
  Christoph Reimann      : Effective Core Potentials                     
  Marius Retegan         : Local ZFS, SOC                                
  Christoph Riplinger    : Optimizer, TS searches, QM/MM, DLPNO-CCSD(T), (RO)-DLPNO pert. Triples 
  Michael Roemelt        : Original ROCIS implementation                 
  Masaaki Saitow         : Open-shell DLPNO-CCSD energy and density      
  Barbara Sandhoefer     : DKH picture change effects                    
  Kantharuban Sivalingam : CASSCF convergence/infrastructure, NEVPT2 and variants, FIC-MRCI 
  Bernardo de Souza      : ESD, SOC TD-DFT                               
  Georgi L. Stoychev     : AutoAux, RI-MP2 NMR, DLPNO-MP2 response, X2C  
  Van Anh Tran           : RI-MP2 g-tensors                              
  Willem Van den Heuvel  : Paramagnetic NMR                              
  Zikuan Wang            : NOTCH, Electric field optimization            
  Frank Wennmohs         : Technical directorship and infrastructure     
  Hang Xu                : AUTO-CI-Response properties                   
                                                                         
[FACCTs GmbH]                                                            
  Markus Bursch, Miquel Garcia-Rates, Christoph Riplinger, Bernardo de Souza, Georgi L. Stoychev 
                                                                 
  APM, Basis sets (HGBS, AHGBS, def-TZVP (Ac-Lr), def2-XVPD (La-Lu)), CI-OPT, improved COSX, DLPNO-Multilevel,           
  DOCKER, DRACO, updates on ESD, GOAT, IRC, LR-CPCM, MBIS, meta-GGA TD-DFT gradient, ML-optimized integration grids, 
  MM, NACMEs, nearIR, NEB, NEB-TS, NL-DFT gradient (VV10), 2- and 3-layer-ONIOM, interface openCOSMO-RS, QMMM,   
  Crystal-QMMM, SF, symmetry and pop. for TD-DFT, r2SCAN hybrids, SOLVATOR                                   
                                                                         
[Other institutions]                                                     
  V. Asgeirsson          : NEB                                           
  Christoph Bannwarth    : sTDA-DFT, sTD-DFT, PBEh-3c, B97-3c, D3        
  Sebastian Ehlert       : rSCAN, r2SCAN, r2SCAN-3c, D4, dhf basis sets  
  Marvin Friede          : D4 for Fr, Ra, Ac-Lr                          
  Lars Goerigk           : TD-DFT with DH, B97 family of functionals     
  Stefan Grimme          : VdW corrections, initial TS optimization, DFT functionals, gCP, sTDA/sTD-DF 
  Waldemar Hujo          : DFT-NL                                        
  H. Jonsson             : NEB                                           
  Holger Kruse           : gCP                                           
  Marcel Mueller         : wB97X-3c, vDZP basis set                      
  Hagen Neugebauer       : wr2SCAN                                       
  Tobias Risthaus        : range-separated hybrid DFT                    
  Lukas Wittmann         : regularized MP2, r2SCAN double-hybrids, wr2SCAN        
                                                                         
We gratefully acknowledge several colleagues who have allowed us to      
interface, adapt or use parts of their codes:                            
  Ed Valeev, F. Pavosevic, A. Kumar             : LibInt (2-el integral package), F12 methods 
  Garnet Chan, S. Sharma, J. Yang, R. Olivares  : DMRG                   
  Ulf Ekstrom                                   : XCFun DFT Library      
  Mihaly Kallay                                 : mrcc  (arbitrary order and MRCC methods)
  Frank Weinhold                                : gennbo (NPA and NBO analysis)           
  Simon Mueller                                 : openCOSMO-RS                            
  Christopher J. Cramer and Donald G. Truhlar   : smd solvation model                     
  S Lehtola, MJT Oliveira, MAL Marques          : LibXC Library                           
  Liviu Ungur et al                             : ANISO software                          


 Your calculation uses the libint2 library for the computation of 2-el integrals
 For citations please refer to: http://libint.valeyev.net

 Your ORCA version has been built with support for libXC version: 6.2.2
 For citations please refer to: https://libxc.gitlab.io

 This ORCA versions uses:
   CBLAS   interface :  Fast vector & matrix operations
   LAPACKE interface :  Fast linear algebra routines
   SCALAPACK package :  Parallel linear algebra routines
   Shared memory     :  Shared parallel matrices
   BLAS/LAPACK       :  OpenBLAS 0.3.27  USE64BITINT DYNAMIC_ARCH NO_AFFINITY Zen SINGLE_THREADED
        Core in use  :  Zen
   Copyright (c) 2011-2014, The OpenBLAS Project




***************************************
The coordinates will be read from file: xtb_opt.xyz
***************************************


Your calculation utilizes the geometrical counterpoise correction gCP
Please cite in your paper:
H.Kruse, S. Grimme J.Chem.Phys., 136, (2012), 154101 
   

Your calculation utilizes the atom-pairwise dispersion correction
based on EEQ partial charges (D4)


================================================================================

----- Orbital basis set information -----
Your calculation utilizes the basis: def2-mTZVPP
   Stefan Grimme, Andreas Hansen, Sebastian Ehlert, and Jan-Michael Mewes 
   J. Chem. Phys. 154, 064103 (2021). DOI: 10.1063/5.0040021

----- AuxJ basis set information -----
Your calculation utilizes the auxiliary basis: def2/J
   F. Weigend, Phys. Chem. Chem. Phys. 8, 1057 (2006).

================================================================================
                                        WARNINGS
                       Please study these warnings very carefully!
================================================================================



WARNING: SCAN, rSCAN, or r2SCAN functional requested.
  ===> : libXC variant has now been activated.



================================================================================
                                       INPUT FILE
================================================================================
NAME = xtb_opt.inp
|  1> ! r2scan-3c def2/J RI DEFGRID2 scfconv7 ENGRAD tightSCF miniprint
|  2> * xyzfile 0 1 xtb_opt.xyz
|  3> 
|  4>                          ****END OF INPUT****
================================================================================

                     *******************************
                     * Energy+Gradient Calculation *
                     *******************************

---------------------------------
CARTESIAN COORDINATES (ANGSTROEM)
---------------------------------
  C      1.315625   -1.048508   -0.869658
  C      0.662629   -0.378140    0.339853
  C      1.488515    0.825642    0.799206
  C     -0.725863    0.112051   -0.053989
  O     -0.900740    0.869362   -0.973661
  C     -1.853146   -0.415801    0.795489
  H      2.333099   -1.349883   -0.631965
  H      0.752788   -1.930071   -1.170018
  H      1.339758   -0.353394   -1.705323
  H      0.582095   -1.097957    1.159574
  H      1.531443    1.566273    0.004377
  H      2.501251    0.515902    1.046532
  H      1.041843    1.286808    1.677871
  H     -2.804170   -0.008549    0.463152
  H     -1.681636   -0.145720    1.835536
  H     -1.877435   -1.501810    0.729383

----------------------------
CARTESIAN COORDINATES (A.U.)
----------------------------
  NO LB      ZA    FRAG     MASS         X           Y           Z
   0 C     6.0000    0    12.011    2.486170   -1.981393   -1.643416
   1 C     6.0000    0    12.011    1.252188   -0.714582    0.642229
   2 C     6.0000    0    12.011    2.812886    1.560236    1.510280
   3 C     6.0000    0    12.011   -1.371683    0.211746   -0.102024
   4 O     8.0000    0    15.999   -1.702153    1.642857   -1.839952
   5 C     6.0000    0    12.011   -3.501938   -0.785750    1.503257
   6 H     1.0000    0     1.008    4.408918   -2.550910   -1.194242
   7 H     1.0000    0     1.008    1.422563   -3.647305   -2.211013
   8 H     1.0000    0     1.008    2.531775   -0.667817   -3.222594
   9 H     1.0000    0     1.008    1.100000   -2.074838    2.191278
  10 H     1.0000    0     1.008    2.894009    2.959828    0.008271
  11 H     1.0000    0     1.008    4.726679    0.974914    1.977658
  12 H     1.0000    0     1.008    1.968797    2.431714    3.170717
  13 H     1.0000    0     1.008   -5.299114   -0.016156    0.875231
  14 H     1.0000    0     1.008   -3.177831   -0.275371    3.468660
  15 H     1.0000    0     1.008   -3.547838   -2.838009    1.378335

------------------------------------------------------------------------------
                   ___                                                        
                  /   \      - P O W E R E D   B Y -                         
                 /     \                                                     
                 |  |  |   _    _      __       _____    __    __             
                 |  |  |  | |  | |    /  \     |  _  \  |  |  /  |          
                  \  \/   | |  | |   /    \    | | | |  |  | /  /          
                 / \  \   | |__| |  /  /\  \   | |_| |  |  |/  /          
                |  |  |   |  __  | /  /__\  \  |    /   |      \           
                |  |  |   | |  | | |   __   |  |    \   |  |\   \          
                \     /   | |  | | |  |  |  |  | |\  \  |  | \   \       
                 \___/    |_|  |_| |__|  |__|  |_| \__\ |__|  \__/        
                                                                              
                      - O R C A' S   B I G   F R I E N D -                    
                                      &                                       
                       - I N T E G R A L  F E E D E R -                       
                                                                              
 v1 FN, 2020, v2 2021, v3 2022-2024                                           
------------------------------------------------------------------------------


----------------------
SHARK INTEGRAL PACKAGE
----------------------

Number of atoms                             ...     16
Number of basis functions                   ...    169
Number of shells                            ...     85
Maximum angular momentum                    ...      2
Integral batch strategy                     ... SHARK/LIBINT Hybrid
RI-J (if used) integral strategy            ... SPLIT-RIJ (Revised 2003 algorithm where possible)
Printlevel                                  ...      1
Contraction scheme used                     ... SEGMENTED contraction
Prescreening option                         ... SCHWARTZ
   Thresh                                   ... 3.000e-11
   Tcut                                     ... 1.000e-12
   Tpresel                                  ... 1.000e-12 
Coulomb Range Separation                    ... NOT USED
Exchange Range Separation                   ... NOT USED
Multipole approximations                    ... NOT USED
Finite Nucleus Model                        ... NOT USED
CABS basis                                  ... NOT available
Auxiliary Coulomb fitting basis             ... AVAILABLE
   # of basis functions in Aux-J            ...    404
   # of shells in Aux-J                     ...    140
   Maximum angular momentum in Aux-J        ...      4
Auxiliary J/K fitting basis                 ... NOT available
Auxiliary Correlation fitting basis         ... NOT available
Auxiliary 'external' fitting basis          ... NOT available

Checking pre-screening integrals            ... done (  0.0 sec) Dimension = 85
Check shell pair data                       ... done (  0.0 sec)
Shell pair information
Shell pair cut-off parameter TPreSel        ...   1.0e-12
Total number of shell pairs                 ...      3655
Shell pairs after pre-screening             ...      3479
Total number of primitive shell pairs       ...     12882
Primitive shell pairs kept                  ...      9133
          la=0 lb=0:   1199 shell pairs
          la=1 lb=0:   1326 shell pairs
          la=1 lb=1:    386 shell pairs
          la=2 lb=0:    344 shell pairs
          la=2 lb=1:    196 shell pairs
          la=2 lb=2:     28 shell pairs

Calculating one electron integrals          ... done (  0.0 sec)
Calculating RI/J V-Matrix + Cholesky decomp.... done (  0.0 sec)
Calculating Nuclear repulsion               ... done (  0.0 sec) ENN=    246.049267128892 Eh

Diagonalization of the overlap matrix:
Smallest eigenvalue                        ... 2.419e-04
Time for diagonalization                   ...    0.003 sec
Threshold for overlap eigenvalues          ... 1.000e-07
Number of eigenvalues below threshold      ... 0
Time for construction of square roots      ...    0.003 sec
Total time needed                          ...    0.007 sec

-------------------
DFT GRID GENERATION
-------------------

General Integration Accuracy     IntAcc      ... 4.388
Radial Grid Type                 RadialGrid  ... OptM3 with GC (2021)
Angular Grid (max. ang.)         AngularGrid ... 4 (Lebedev-302)
Angular grid pruning method      GridPruning ... 4 (adaptive)
Weight generation scheme         WeightScheme... mBecke (2022)
Basis function cutoff            BFCut       ... 1.0000e-11
Integration weight cutoff        WCut        ... 1.0000e-14
Partially contracted basis set               ... off
Rotationally invariant grid construction     ... off
Angular grids for H and He will be reduced by one unit
Diffuse basis detected: some atoms will have their outermost
                        angular grid increased by 1.

Total number of grid points                  ...    68631
Total number of batches                      ...     1080
Average number of points per batch           ...       63
Average number of grid points per atom       ...     4289
Initializing property integral containers    ... done (  0.0 sec)

SHARK setup successfully completed in   0.6 seconds

Maximum memory used throughout the entire STARTUP-calculation: 31.2 MB
Occupation numbers will be reassigned to an Aufbau configuration
             **** ENERGY FILE WAS UPDATED (xtb_opt.en.tmp) ****
Finished Guess after   0.3 sec
Maximum memory used throughout the entire GUESS-calculation: 12.2 MB
----------------------------------------D-I-I-S--------------------------------------------
Iteration    Energy (Eh)           Delta-E    RMSDP     MaxDP     DIISErr   Damp  Time(sec)
-------------------------------------------------------------------------------------------
               ***  Starting incremental Fock matrix formation  ***
                              *** Initializing SOSCF ***
---------------------------------------S-O-S-C-F--------------------------------------
Iteration    Energy (Eh)           Delta-E    RMSDP     MaxDP     MaxGrad    Time(sec)
--------------------------------------------------------------------------------------
    1    -271.7083503210621984     0.00e+00  1.12e-06  2.33e-05  4.82e-06     2.1
               *** Restarting incremental Fock matrix formation ***
    2    -271.7083503224132528    -1.35e-09  1.22e-06  2.61e-05  1.05e-05     1.7
                  *** Gradient check signals convergence ***

               *****************************************************
               *                     SUCCESS                       *
               *           SCF CONVERGED AFTER   2 CYCLES          *
               *****************************************************

             **** ENERGY FILE WAS UPDATED (xtb_opt.en.tmp) ****

----------------
TOTAL SCF ENERGY
----------------

Total Energy       :       -271.70835032241325 Eh           -7393.56009 eV

Components:
Nuclear Repulsion  :        246.04926712889167 Eh            6695.34094 eV
Electronic Energy  :       -517.75761745130490 Eh          -14088.90104 eV
One Electron Energy:       -854.36804899939671 Eh          -23248.53655 eV
Two Electron Energy:        336.61043154809187 Eh            9159.63551 eV

Virial components:
Potential Energy   :       -542.28148297157281 Eh          -14756.22934 eV
Kinetic Energy     :        270.57313264915956 Eh            7362.66925 eV
Virial Ratio       :          2.00419560383597

DFT components:
N(Alpha)           :       24.000023170287 electrons
N(Beta)            :       24.000023170287 electrons
N(Total)           :       48.000046340574 electrons
E(X)               :      -37.857203750108 Eh       
E(C)               :       -1.506571945194 Eh       
E(XC)              :      -39.363775695302 Eh       

---------------
SCF CONVERGENCE
---------------

  Last Energy change         ...    1.3511e-09  Tolerance :   1.0000e-07
  Last MAX-Density change    ...    2.6071e-05  Tolerance :   1.0000e-07
  Last RMS-Density change    ...    1.2246e-06  Tolerance :   5.0000e-09
  Last DIIS Error            ...    2.3988e-05  Tolerance :   1.0000e-07
  Last Orbital Gradient      ...    1.0483e-05  Tolerance :   1.0000e-04
  Last Orbital Rotation      ...    2.7512e-05  Tolerance :   1.0000e-04


----------------
ORBITAL ENERGIES
----------------

  NO   OCC          E(Eh)            E(eV) 
   0   2.0000     -18.936939      -515.3003 
   1   2.0000     -10.116618      -275.2872 
   2   2.0000     -10.045544      -273.3532 
   3   2.0000     -10.034997      -273.0662 
   4   2.0000     -10.026970      -272.8477 
   5   2.0000     -10.024910      -272.7917 
   6   2.0000      -1.009718       -27.4758 
   7   2.0000      -0.776204       -21.1216 
   8   2.0000      -0.711862       -19.3707 
   9   2.0000      -0.658916       -17.9300 
  10   2.0000      -0.587472       -15.9859 
  11   2.0000      -0.488272       -13.2866 
  12   2.0000      -0.451258       -12.2793 
  13   2.0000      -0.425421       -11.5763 
  14   2.0000      -0.424868       -11.5612 
  15   2.0000      -0.390767       -10.6333 
  16   2.0000      -0.380198       -10.3457 
  17   2.0000      -0.376382       -10.2419 
  18   2.0000      -0.361977        -9.8499 
  19   2.0000      -0.331630        -9.0241 
  20   2.0000      -0.329142        -8.9564 
  21   2.0000      -0.310089        -8.4380 
  22   2.0000      -0.309040        -8.4094 
  23   2.0000      -0.212647        -5.7864 
  24   0.0000      -0.043831        -1.1927 
  25   0.0000       0.067954         1.8491 
  26   0.0000       0.116471         3.1693 
  27   0.0000       0.121307         3.3009 
  28   0.0000       0.124341         3.3835 
  29   0.0000       0.138668         3.7733 
  30   0.0000       0.144942         3.9441 
  31   0.0000       0.154585         4.2065 
  32   0.0000       0.166358         4.5268 
  33   0.0000       0.173415         4.7189 
  34   0.0000       0.177296         4.8245 
*Only the first 10 virtual orbitals were printed.
Total SCF time: 0 days 0 hours 0 min 4 sec 
Finished LeanSCF after   4.7 sec

Maximum memory used throughout the entire LEANSCF-calculation: 18.8 MB


-------------------------------------------------------------------------------
                          DFT DISPERSION CORRECTION                            
                                                                               
                                DFTD4 V3.4.0                                   
-------------------------------------------------------------------------------
-------------------------   ----------------
Dispersion correction           -0.003900595
-------------------------   ----------------

------------------   -----------------
gCP correction             0.007464758
------------------   -----------------

-------------------------   --------------------
FINAL SINGLE POINT ENERGY      -271.704786159219
-------------------------   --------------------

------------------------------------------------------------------------------
                         ORCA SCF GRADIENT CALCULATION
------------------------------------------------------------------------------

Nuc. rep. gradient        (SHARK) ... done (  0.0 sec)
HCore & Overlap gradient  (SHARK) ... done (  0.2 sec)
Split-RIJ-J gradient      (SHARK) ... done (  0.8 sec)
XC gradient                       ... done (  3.9 sec)
Dispersion correction             ... done (  0.0 sec)

-------------------
DISPERSION GRADIENT
-------------------

   1   C   :    0.000051284   -0.000037798   -0.000042193
   2   C   :    0.000023008   -0.000008166    0.000005735
   3   C   :    0.000058899    0.000039404    0.000026645
   4   C   :   -0.000036092    0.000006585   -0.000003684
   5   O   :   -0.000046284    0.000041516   -0.000046544
   6   C   :   -0.000085596   -0.000017087    0.000033422
   7   H   :    0.000027263   -0.000020666   -0.000013800
   8   H   :    0.000017119   -0.000028917   -0.000024168
   9   H   :    0.000015776   -0.000008629   -0.000023899
  10   H   :    0.000010057   -0.000009904    0.000009458
  11   H   :    0.000019856    0.000022745    0.000003580
  12   H   :    0.000031044    0.000012987    0.000016046
  13   H   :    0.000022552    0.000024942    0.000023612
  14   H   :   -0.000034883    0.000000719    0.000003940
  15   H   :   -0.000036125   -0.000003475    0.000020207
  16   H   :   -0.000037878   -0.000014256    0.000011644

Difference to translation invariance:
           :    0.0000000000   -0.0000000000   -0.0000000000

Difference to rotation invariance:
           :   -0.0000000000    0.0000000000   -0.0000000000

Norm of the Dispersion gradient    ...    0.0002032695
RMS gradient                       ...    0.0000293394
MAX gradient                       ...    0.0000855957
gCP correction                   ... done

------------------
CARTESIAN GRADIENT
------------------

   1   C   :    0.002408439   -0.000021682   -0.002950725
   2   C   :   -0.005344457   -0.003398618    0.005760061
   3   C   :    0.002693820    0.002475555   -0.000748348
   4   C   :    0.000773729    0.011410240   -0.014056597
   5   O   :    0.000528179   -0.008822736    0.010960667
   6   C   :    0.003571827   -0.005023557    0.005476729
   7   H   :   -0.003970884    0.001778989   -0.000678741
   8   H   :    0.001075550    0.003892963    0.002584521
   9   H   :   -0.000277356   -0.002425495    0.003221977
  10   H   :    0.001059756    0.000876062   -0.001276858
  11   H   :   -0.000291085   -0.002909367    0.002932467
  12   H   :   -0.003982399    0.000845171   -0.001550487
  13   H   :    0.000399697   -0.003189046   -0.003736408
  14   H   :    0.002919622   -0.001117649    0.000770617
  15   H   :   -0.001127632    0.000537600   -0.005291510
  16   H   :   -0.000436805    0.005091569   -0.001417366

Difference to translation invariance:
           :   -0.0000000000   -0.0000000000   -0.0000000000

Difference to rotation invariance:
           :    0.0000879663   -0.0002083085   -0.0001354577

Norm of the Cartesian gradient     ...    0.0297839770
RMS gradient                       ...    0.0042989468
MAX gradient                       ...    0.0140565972

-------
TIMINGS
-------

Total SCF gradient time     ....        4.878 sec

Densities                   ....       0.000 sec  (  0.0%)
One electron gradient       ....       0.154 sec  (  3.1%)
RI-J Coulomb gradient       ....       0.793 sec  ( 16.2%)
XC gradient                 ....       3.896 sec  ( 79.9%)

Maximum memory used throughout the entire SCFGRAD-calculation: 32.3 MB

------------------------------------------------------------------------------
                              ORCA PROPERTY CALCULATIONS
------------------------------------------------------------------------------

GBWName                                 ... xtb_opt.gbw
Number of atoms                         ...     16
Number of basis functions               ...    169
Max core memory                         ...   1024 MB

Electric properties:
Dipole moment                           ... YES
Quadrupole moment                       ...  NO
Static polarizability (Dipole/Dipole)   ...  NO
Static polarizability (Dipole/Quad.)    ...  NO
Static polarizability (Quad./Quad.)     ...  NO
Static polarizability (Velocity)        ...  NO

Atomic electric properties:
Dipole moment                           ...  NO
Quadrupole moment                       ...  NO
Static polarizability                   ...  NO

Choice of electric origin               ... Center of mass
Position of electric origin             ...     0.000016    -0.000014     0.000016

General magnetic properties:
Magnetizability                         ...  NO

EPR properties:
g-Tensor (aka g-matrix)                 ...  NO
Zero-Field splitting spin-orbit         ...  NO
Zero-field splitting spin-spin          ...  NO
Hyperfine couplings                     ...  NO (   0 nuclei)
Quadrupole couplings                    ...  NO (   0 nuclei)
Contact density                         ...  NO (   0 nuclei)

NMR properties:
Chemical shifts                         ...  NO (   0 nuclei)
Spin-rotation constants                 ...  NO (   0 nuclei)
Spin-spin couplings                     ...  NO (   0 nuclei,    0 pairs)

Choice of magnetic origin               ... GIAO
Position of magnetic origin             ...     0.000000     0.000000     0.000000

Properties with geometric perturbations:
SCF Hessian                             ...  NO
IR spectrum                             ...  NO
VCD spectrum                            ...  NO
X-ray spectroscopy properties:
SCF XES/XAS/RIXS spectra                ...  NO


-------------
DIPOLE MOMENT
-------------

Method             : SCF
Type of density    : Electron Density
Multiplicity       :   1
Irrep              :   0
Energy             :  -271.7083503224132528 Eh
Relativity type    : 
Basis              : AO
                                X                 Y                 Z
Electronic contribution:     -3.261594444       2.144096056      -2.359546356
Nuclear contribution   :      3.475709771      -2.818864370       3.183875058
                        -----------------------------------------
Total Dipole Moment    :      0.214115327      -0.674768313       0.824328701
                        -----------------------------------------
Magnitude (a.u.)       :      1.086588909
Magnitude (Debye)      :      2.761889517



--------------------
Rotational spectrum 
--------------------
 
Rotational constants in cm-1:             0.159991             0.086346             0.083118 
Rotational constants in MHz :          4796.417318          2588.585297          2491.813371 

Dipole components along the rotational axes: 
x,y,z [a.u.] :     0.211187    -0.425812    -0.977118 
x,y,z [Debye]:     0.536794    -1.082328    -2.483637 

 

Dipole moment calculation done in   0.0 sec 

Maximum memory used throughout the entire PROP-calculation: 10.6 MB

--------------------------------
SUGGESTED CITATIONS FOR THIS RUN
--------------------------------

Below you find a list of papers that are relevant to this ORCA run
We neither can nor want to force you to cite these papers, but we appreciate if you do
You receive ORCA, which is the product of decades of hard work by many enthusiastic individuals, for free
The only thing we kindly ask in return is that you cite our papers,
We deeply appreciate it, if you show your appreciation for ORCA by not just citing the generic ORCA reference.

Please note that relegating all ORCA citations to the supporting information does *not* help us.
SI sections are not indexed - citations you put there will not count into any citation statistics
But we need these citations in order to attract the funding resources that allow us to do what we are doing

Therefore, if you are a happy ORCA user, please consider citing a few of the papers listed below in the main body of your paper

In addition to the list printed below, the program has created the file xtb_opt.bibtex that contains the list in bibtex format
You can import this file easily into all common literature databanks and citation aid programs


List of essential papers. We consider these as the minimum necessary citations

  1. Neese,F.
     Software update: the ORCA program system, version 5.0
     WIRES Comput. Molec. Sci., 2022 12(1)e1606
     doi.org/10.1002/wcms.1606
  2. Grimme,S.; Hansen,A.; Ehlert,S.; Mewes,J.
     r2SCAN-3c: A 'Swiss army knife' composite electronic-structure method
     J. Chem. Phys., 2021 154 064103
     doi.org/10.1063/5.0040021

List of papers to cite with high priority. The work reported in these papers was absolutely
necessary for this run to complete.
Our perspective: the developers of density functionals and basis sets usually get cited in chemistry papers
Good! But without the algorithms to do something with them, the functionals or basis sets would not do anything.
Hence, in our opinion, the algorithm design and method developments papers are equally worthy of getting cited

  1. Neese,F.
     An improvement of the resolution of the identity approximation for the formation of the Coulomb matrix
     J. Comp. Chem., 2003 24(14)1740-1747
     doi.org/10.1002/jcc.10318
  2. Neese,F.
     The SHARK Integral Generation and Digestion System
     J. Comp. Chem., 2022  1-16
     doi.org/10.1002/jcc.26942
  3. Lehtola,S.; Steigemann,C.; Oliveira,M.; Marques,M.
     Recent developments in Libxc - A comprehensive library of functionals for density functional theory
     Software X, 2018 7 
     doi.org/10.1016/j.softx.2017.11.002
  4. Caldeweyher,E.; Bannwarth,C.; Grimme,S.
     Extension of the D3 dispersion coefficient model
     J. Chem. Phys., 2017 147 034112
     doi.org/10.1063/1.4993215
  5. Caldeweyher,E.; Ehlert,S.; Hansen,A.; Neugebauer,H.; Spicher,S.; Bannwarth,C.; Grimme,S.
     A generally applicable atomic-charge dependent London dispersion correction
     J. Chem. Phys., 2019 150 154122
     doi.org/10.1063/1.5090222
  6. Caldeweyher,E.; Mewes,J.; Ehlert,S.; Grimme,S.
     Extension and evaluation of the D4 London-dispersion model for periodic systems
     Phys. Chem. Chem. Phys., 2020 22(16)8499-8512
     doi.org/10.1039/D0CP00502A
  7. Wittmann,L.; Gordiy,I.; Friede,M.; Helmich-Paris,B.; Grimme,S.; Hansen,A.; Bursch,M.
     Extension of the D3 and D4 London Dispersion Corrections to the full Actinides Series
     Phys. Chem. Chem. Phys., 2024 26(32)21379-21394
     doi.org/https://doi.org/10.1039/D4CP01514B 

List of suggested additional citations. These are papers that are important in the 'surrounding' of 
of this run, or papers that preceded the highly important papers. If you like your results we are grateful for a citation.

  1. Neese,F.
     The ORCA program system
     WIRES Comput. Molec. Sci., 2012 2(1)73-78
     doi.org/10.1002/wcms.81
  2. Neese,F.
     Software update: the ORCA program system, version 4.0
     WIRES Comput. Molec. Sci., 2018 8(1)1-6
     doi.org/10.1002/wcms.1327
  3. Neese,F.; Wennmohs,F.; Becker,U.; Riplinger,C.
     The ORCA quantum chemistry program package
     J. Chem. Phys., 2020 152 Art. No. L224108
     doi.org/10.1063/5.0004608

List of optional additional citations

  1. Neese,F.
     Approximate second-order SCF convergence for spin unrestricted wavefunctions
     Chem. Phys. Lett., 2000 325(1-3)93-98
     doi.org/10.1016/s0009-2614(00)00662-x

Timings for individual modules:

Sum of individual times          ...       11.162 sec (=   0.186 min)
Startup calculation              ...        0.611 sec (=   0.010 min)   5.5 %
SCF iterations                   ...        5.013 sec (=   0.084 min)  44.9 %
Property calculations            ...        0.179 sec (=   0.003 min)   1.6 %
SCF Gradient evaluation          ...        5.359 sec (=   0.089 min)  48.0 %
                             ****ORCA TERMINATED NORMALLY****
TOTAL RUN TIME: 0 days 0 hours 0 minutes 12 seconds 178 msec
  ------------------------------------------------------------------------
          * successful ORCA run, taking over control again...

         :::::::::::::::::::::::::::::::::::::::::::::::::::::
         ::                  ORCA SUMMARY                   ::
         :::::::::::::::::::::::::::::::::::::::::::::::::::::
         :: total energy            -271.704786159219 Eh    ::
         :: gradient norm              0.029783977033 Eh/a0 ::
         :: HOMO-LUMO gap              0.000000000000 eV    ::
         :::::::::::::::::::::::::::::::::::::::::::::::::::::

      ----------------------------------------------------------- 
     |                       L-ANC optimizer                     |
      ----------------------------------------------------------- 
          low memory version by Sebastian Ehlert

          ...................................................
          :                      SETUP                      :
          :.................................................:
          :   energy convergence        0.5000000E-05 Eh    :
          :   grad. convergence         0.1000000E-02 Eh/a0 :
          :   optimization log               true           :
          :   writing optlog all                1     steps :
          :   Hessian reset                     8     steps :
          :   maximium step len.        1.0000000     a0    :
          :   LBFGS images                      8           :
          ...................................................
 * calculating model hessian...
Using Lindh-Hessian (1995)
 Shifting diagonal of input Hessian by   1.000000000000000E-002
 Lowest  eigenvalues of input Hessian
    0.000000    0.000000    0.000000    0.000000    0.000000    0.000000
    0.013189    0.016905    0.018908    0.019736    0.020895    0.025360
    0.029388    0.036652    0.060854    0.063467    0.065988    0.068716
 Highest eigenvalues
    1.143265    1.170040    1.216244    1.242787    1.389010    2.161674
 

........................................................................
.............................. CYCLE    1 ..............................
........................................................................
                         * ORCA takes the control...
  ------------------------------------------------------------------------

                                 *****************
                                 * O   R   C   A *
                                 *****************

                                            #,                                       
                                            ###                                      
                                            ####                                     
                                            #####                                    
                                            ######                                   
                                           ########,                                 
                                     ,,################,,,,,                         
                               ,,#################################,,                 
                          ,,##########################################,,             
                       ,#########################################, ''#####,          
                    ,#############################################,,   '####,        
                  ,##################################################,,,,####,       
                ,###########''''           ''''###############################       
              ,#####''   ,,,,##########,,,,          '''####'''          '####       
            ,##' ,,,,###########################,,,                        '##       
           ' ,,###''''                  '''############,,,                           
         ,,##''                                '''############,,,,        ,,,,,,###''
      ,#''                                            '''#######################'''  
     '                                                          ''''####''''         
             ,#######,   #######,   ,#######,      ##                                
            ,#'     '#,  ##    ##  ,#'     '#,    #''#        ,####,   ,####,        
            ##       ##  ##   ,#'  ##            #'  '#       #'       #'  '#        
            ##       ##  #######   ##           ,######,      #####,   #    #        
            '#,     ,#'  ##    ##  '#,     ,#' ,#      #,     #,   #   #,  ,#        
             '#######'   ##     ##  '#######'  #'      '#     '####' # '####'        



                #########################################################
                #                        -***-                          #
                #          Department of theory and spectroscopy        #
                #                                                       #
                #                      Frank Neese                      #
                #                                                       #
                #     Directorship, Architecture, Infrastructure        #
                #                    SHARK, DRIVERS                     #
                #        Core code/Algorithms in most modules           #
                #                                                       #
                #        Max Planck Institute fuer Kohlenforschung      #
                #                Kaiser Wilhelm Platz 1                 #
                #                 D-45470 Muelheim/Ruhr                 #
                #                      Germany                          #
                #                                                       #
                #                  All rights reserved                  #
                #                        -***-                          #
                #########################################################


                         Program Version 6.0.1  -  RELEASE   -


 With contributions from (in alphabetic order):
[Max-Planck-Institut fuer Kohlenforschung]                               
  Daniel Aravena         : Magnetic Suceptibility                        
  Michael Atanasov       : Ab Initio Ligand Field Theory (pilot matlab implementation)
  Alexander A. Auer      : GIAO ZORA, VPT2 properties, NMR spectrum      
  Ute Becker             : All parallelization in ORCA, NUMFREQ, NUMCALC 
  Giovanni Bistoni       : ED, misc. LED, open-shell LED, HFLD           
  Martin Brehm           : Molecular dynamics                            
  Dmytro Bykov           : pre 5.0 version of the SCF Hessian            
  Marcos Casanova-Páez   : Triplet and SCS-CIS(D). UHF-(DLPNO)-IP/EA/STEOM-CCSD. UHF-CVS-IP/STEOM-CCSD   
  Vijay G. Chilkuri      : MRCI spin determinant printing, contributions to CSF-ICE 
  Pauline Colinet        : FMM embedding                                 
  Dipayan Datta          : RHF DLPNO-CCSD density                        
  Achintya Kumar Dutta   : EOM-CC, STEOM-CC                              
  Nicolas Foglia         : Exact transition moments, OPA infrastructure, MCD improvements    
  Dmitry Ganyushin       : Spin-Orbit,Spin-Spin,Magnetic field MRCI      
  Miquel Garcia-Rates    : C-PCM and meta-GGA Hessian, CCSD/C-PCM, Gaussian charge scheme 
  Tiago L. C. Gouveia    : GS-ROHF, GS-ROCIS                             
  Yang Guo               : DLPNO-NEVPT2, F12-NEVPT2, CIM, IAO-localization        
  Andreas Hansen         : Spin unrestricted coupled pair/coupled cluster methods 
  Ingolf Harden          : AUTO-CI MPn and infrastructure                
  Benjamin Helmich-Paris : MC-RPA, TRAH-(SCF,CASSCF), AVAS, COSX integrals, SCF dyn. polar. 
  Lee Huntington         : MR-EOM, pCC                                   
  Robert Izsak           : Overlap fitted RIJCOSX, COSX-SCS-MP3, EOM     
  Riya Kayal             : Wick's Theorem for AUTO-CI, AUTO-CI UHF-CCSDT 
  Emily Kempfer          : AUTO-CI, RHF CISDT and CCSDT                  
  Christian Kollmar      : KDIIS, OOCD, Brueckner-CCSD(T), CCSD density, CASPT2, CASPT2-K, improved NEVPT2 
  Axel Koslowski         : Symmetry handling                             
  Simone Kossmann        : meta-GGA functionals, TD-DFT gradient, OOMP2, (MP2 Hessian; deprecated post 5.0) 
  Lucas Lang             : DCDCAS                                        
  Marvin Lechner         : AUTO-CI (C++ implementation), FIC-MRCC        
  Spencer Leger          : CASSCF response                               
  Dagmar Lenk            : GEPOL surface, SMD, ORCA-2-JSON               
  Dimitrios Liakos       : Extrapolation schemes; Compound Job, initial MDCI parallelization 
  Dimitrios Manganas     : Further ROCIS development; embedding schemes. LFT, Crystal Embedding 
  Dimitrios Pantazis     : SARC Basis sets                               
  Anastasios Papadopoulos: AUTO-CI, single reference methods and gradients 
  Taras Petrenko         : pre 6.0 DFT Hessian and TD-DFT gradient, (ASA, deprecated), ECA, 1-Electron XAS/XES, NRVS 
  Peter Pinski           : DLPNO-MP2, DLPNO-MP2 Gradient                 
  Christoph Reimann      : Effective Core Potentials                     
  Marius Retegan         : Local ZFS, SOC                                
  Christoph Riplinger    : Optimizer, TS searches, QM/MM, DLPNO-CCSD(T), (RO)-DLPNO pert. Triples 
  Michael Roemelt        : Original ROCIS implementation                 
  Masaaki Saitow         : Open-shell DLPNO-CCSD energy and density      
  Barbara Sandhoefer     : DKH picture change effects                    
  Kantharuban Sivalingam : CASSCF convergence/infrastructure, NEVPT2 and variants, FIC-MRCI 
  Bernardo de Souza      : ESD, SOC TD-DFT                               
  Georgi L. Stoychev     : AutoAux, RI-MP2 NMR, DLPNO-MP2 response, X2C  
  Van Anh Tran           : RI-MP2 g-tensors                              
  Willem Van den Heuvel  : Paramagnetic NMR                              
  Zikuan Wang            : NOTCH, Electric field optimization            
  Frank Wennmohs         : Technical directorship and infrastructure     
  Hang Xu                : AUTO-CI-Response properties                   
                                                                         
[FACCTs GmbH]                                                            
  Markus Bursch, Miquel Garcia-Rates, Christoph Riplinger, Bernardo de Souza, Georgi L. Stoychev 
                                                                 
  APM, Basis sets (HGBS, AHGBS, def-TZVP (Ac-Lr), def2-XVPD (La-Lu)), CI-OPT, improved COSX, DLPNO-Multilevel,           
  DOCKER, DRACO, updates on ESD, GOAT, IRC, LR-CPCM, MBIS, meta-GGA TD-DFT gradient, ML-optimized integration grids, 
  MM, NACMEs, nearIR, NEB, NEB-TS, NL-DFT gradient (VV10), 2- and 3-layer-ONIOM, interface openCOSMO-RS, QMMM,   
  Crystal-QMMM, SF, symmetry and pop. for TD-DFT, r2SCAN hybrids, SOLVATOR                                   
                                                                         
[Other institutions]                                                     
  V. Asgeirsson          : NEB                                           
  Christoph Bannwarth    : sTDA-DFT, sTD-DFT, PBEh-3c, B97-3c, D3        
  Sebastian Ehlert       : rSCAN, r2SCAN, r2SCAN-3c, D4, dhf basis sets  
  Marvin Friede          : D4 for Fr, Ra, Ac-Lr                          
  Lars Goerigk           : TD-DFT with DH, B97 family of functionals     
  Stefan Grimme          : VdW corrections, initial TS optimization, DFT functionals, gCP, sTDA/sTD-DF 
  Waldemar Hujo          : DFT-NL                                        
  H. Jonsson             : NEB                                           
  Holger Kruse           : gCP                                           
  Marcel Mueller         : wB97X-3c, vDZP basis set                      
  Hagen Neugebauer       : wr2SCAN                                       
  Tobias Risthaus        : range-separated hybrid DFT                    
  Lukas Wittmann         : regularized MP2, r2SCAN double-hybrids, wr2SCAN        
                                                                         
We gratefully acknowledge several colleagues who have allowed us to      
interface, adapt or use parts of their codes:                            
  Ed Valeev, F. Pavosevic, A. Kumar             : LibInt (2-el integral package), F12 methods 
  Garnet Chan, S. Sharma, J. Yang, R. Olivares  : DMRG                   
  Ulf Ekstrom                                   : XCFun DFT Library      
  Mihaly Kallay                                 : mrcc  (arbitrary order and MRCC methods)
  Frank Weinhold                                : gennbo (NPA and NBO analysis)           
  Simon Mueller                                 : openCOSMO-RS                            
  Christopher J. Cramer and Donald G. Truhlar   : smd solvation model                     
  S Lehtola, MJT Oliveira, MAL Marques          : LibXC Library                           
  Liviu Ungur et al                             : ANISO software                          


 Your calculation uses the libint2 library for the computation of 2-el integrals
 For citations please refer to: http://libint.valeyev.net

 Your ORCA version has been built with support for libXC version: 6.2.2
 For citations please refer to: https://libxc.gitlab.io

 This ORCA versions uses:
   CBLAS   interface :  Fast vector & matrix operations
   LAPACKE interface :  Fast linear algebra routines
   SCALAPACK package :  Parallel linear algebra routines
   Shared memory     :  Shared parallel matrices
   BLAS/LAPACK       :  OpenBLAS 0.3.27  USE64BITINT DYNAMIC_ARCH NO_AFFINITY Zen SINGLE_THREADED
        Core in use  :  Zen
   Copyright (c) 2011-2014, The OpenBLAS Project




***************************************
The coordinates will be read from file: xtb_opt.xyz
***************************************


Your calculation utilizes the geometrical counterpoise correction gCP
Please cite in your paper:
H.Kruse, S. Grimme J.Chem.Phys., 136, (2012), 154101 
   

Your calculation utilizes the atom-pairwise dispersion correction
based on EEQ partial charges (D4)


================================================================================

----- Orbital basis set information -----
Your calculation utilizes the basis: def2-mTZVPP
   Stefan Grimme, Andreas Hansen, Sebastian Ehlert, and Jan-Michael Mewes 
   J. Chem. Phys. 154, 064103 (2021). DOI: 10.1063/5.0040021

----- AuxJ basis set information -----
Your calculation utilizes the auxiliary basis: def2/J
   F. Weigend, Phys. Chem. Chem. Phys. 8, 1057 (2006).

================================================================================
                                        WARNINGS
                       Please study these warnings very carefully!
================================================================================

WARNING: Old DensityContainer found on disk!
         Will remove this file - 
         If you want to keep old densities, please start your calculation with a different basename. 



WARNING: SCAN, rSCAN, or r2SCAN functional requested.
  ===> : libXC variant has now been activated.



================================================================================
                                       INPUT FILE
================================================================================
NAME = xtb_opt.inp
|  1> ! r2scan-3c def2/J RI DEFGRID2 scfconv7 ENGRAD tightSCF miniprint
|  2> * xyzfile 0 1 xtb_opt.xyz
|  3> 
|  4>                          ****END OF INPUT****
================================================================================

                     *******************************
                     * Energy+Gradient Calculation *
                     *******************************

---------------------------------
CARTESIAN COORDINATES (ANGSTROEM)
---------------------------------
  C      1.319938   -1.054597   -0.876317
  C      0.670336   -0.374214    0.332297
  C      1.491822    0.831583    0.803805
  C     -0.729856    0.104817   -0.046841
  O     -0.901420    0.867392   -0.973065
  C     -1.869057   -0.413880    0.796976
  H      2.340899   -1.360784   -0.636002
  H      0.759122   -1.940333   -1.187058
  H      1.349128   -0.355665   -1.714974
  H      0.584929   -1.094417    1.154131
  H      1.538967    1.574633    0.004637
  H      2.508581    0.520773    1.055952
  H      1.048722    1.302683    1.685675
  H     -2.821932   -0.002863    0.462679
  H     -1.693038   -0.152372    1.844975
  H     -1.891085   -1.506550    0.739487

----------------------------
CARTESIAN COORDINATES (A.U.)
----------------------------
  NO LB      ZA    FRAG     MASS         X           Y           Z
   0 C     6.0000    0    12.011    2.494321   -1.992900   -1.655999
   1 C     6.0000    0    12.011    1.266752   -0.707163    0.627951
   2 C     6.0000    0    12.011    2.819135    1.571464    1.518972
   3 C     6.0000    0    12.011   -1.379228    0.198075   -0.088518
   4 O     8.0000    0    15.999   -1.703437    1.639133   -1.838826
   5 C     6.0000    0    12.011   -3.532006   -0.782121    1.506067
   6 H     1.0000    0     1.008    4.423657   -2.571508   -1.201869
   7 H     1.0000    0     1.008    1.434532   -3.666697   -2.243215
   8 H     1.0000    0     1.008    2.549483   -0.672110   -3.240831
   9 H     1.0000    0     1.008    1.105355   -2.068149    2.180992
  10 H     1.0000    0     1.008    2.908226    2.975625    0.008763
  11 H     1.0000    0     1.008    4.740530    0.984118    1.995460
  12 H     1.0000    0     1.008    1.981797    2.461714    3.185464
  13 H     1.0000    0     1.008   -5.332678   -0.005409    0.874337
  14 H     1.0000    0     1.008   -3.199378   -0.287942    3.486498
  15 H     1.0000    0     1.008   -3.573633   -2.846966    1.397429

------------------------------------------------------------------------------
                   ___                                                        
                  /   \      - P O W E R E D   B Y -                         
                 /     \                                                     
                 |  |  |   _    _      __       _____    __    __             
                 |  |  |  | |  | |    /  \     |  _  \  |  |  /  |          
                  \  \/   | |  | |   /    \    | | | |  |  | /  /          
                 / \  \   | |__| |  /  /\  \   | |_| |  |  |/  /          
                |  |  |   |  __  | /  /__\  \  |    /   |      \           
                |  |  |   | |  | | |   __   |  |    \   |  |\   \          
                \     /   | |  | | |  |  |  |  | |\  \  |  | \   \       
                 \___/    |_|  |_| |__|  |__|  |_| \__\ |__|  \__/        
                                                                              
                      - O R C A' S   B I G   F R I E N D -                    
                                      &                                       
                       - I N T E G R A L  F E E D E R -                       
                                                                              
 v1 FN, 2020, v2 2021, v3 2022-2024                                           
------------------------------------------------------------------------------


----------------------
SHARK INTEGRAL PACKAGE
----------------------

Number of atoms                             ...     16
Number of basis functions                   ...    169
Number of shells                            ...     85
Maximum angular momentum                    ...      2
Integral batch strategy                     ... SHARK/LIBINT Hybrid
RI-J (if used) integral strategy            ... SPLIT-RIJ (Revised 2003 algorithm where possible)
Printlevel                                  ...      1
Contraction scheme used                     ... SEGMENTED contraction
Prescreening option                         ... SCHWARTZ
   Thresh                                   ... 3.000e-11
   Tcut                                     ... 1.000e-12
   Tpresel                                  ... 1.000e-12 
Coulomb Range Separation                    ... NOT USED
Exchange Range Separation                   ... NOT USED
Multipole approximations                    ... NOT USED
Finite Nucleus Model                        ... NOT USED
CABS basis                                  ... NOT available
Auxiliary Coulomb fitting basis             ... AVAILABLE
   # of basis functions in Aux-J            ...    404
   # of shells in Aux-J                     ...    140
   Maximum angular momentum in Aux-J        ...      4
Auxiliary J/K fitting basis                 ... NOT available
Auxiliary Correlation fitting basis         ... NOT available
Auxiliary 'external' fitting basis          ... NOT available

Checking pre-screening integrals            ... done (  0.0 sec) Dimension = 85
Check shell pair data                       ... done (  0.0 sec)
Shell pair information
Shell pair cut-off parameter TPreSel        ...   1.0e-12
Total number of shell pairs                 ...      3655
Shell pairs after pre-screening             ...      3475
Total number of primitive shell pairs       ...     12882
Primitive shell pairs kept                  ...      9110
          la=0 lb=0:   1196 shell pairs
          la=1 lb=0:   1326 shell pairs
          la=1 lb=1:    385 shell pairs
          la=2 lb=0:    344 shell pairs
          la=2 lb=1:    196 shell pairs
          la=2 lb=2:     28 shell pairs

Calculating one electron integrals          ... done (  0.0 sec)
Calculating RI/J V-Matrix + Cholesky decomp.... done (  0.0 sec)
Calculating Nuclear repulsion               ... done (  0.0 sec) ENN=    245.098953283233 Eh

Diagonalization of the overlap matrix:
Smallest eigenvalue                        ... 2.448e-04
Time for diagonalization                   ...    0.003 sec
Threshold for overlap eigenvalues          ... 1.000e-07
Number of eigenvalues below threshold      ... 0
Time for construction of square roots      ...    0.003 sec
Total time needed                          ...    0.007 sec

-------------------
DFT GRID GENERATION
-------------------

General Integration Accuracy     IntAcc      ... 4.388
Radial Grid Type                 RadialGrid  ... OptM3 with GC (2021)
Angular Grid (max. ang.)         AngularGrid ... 4 (Lebedev-302)
Angular grid pruning method      GridPruning ... 4 (adaptive)
Weight generation scheme         WeightScheme... mBecke (2022)
Basis function cutoff            BFCut       ... 1.0000e-11
Integration weight cutoff        WCut        ... 1.0000e-14
Partially contracted basis set               ... off
Rotationally invariant grid construction     ... off
Angular grids for H and He will be reduced by one unit
Diffuse basis detected: some atoms will have their outermost
                        angular grid increased by 1.

Total number of grid points                  ...    68660
Total number of batches                      ...     1081
Average number of points per batch           ...       63
Average number of grid points per atom       ...     4291
Initializing property integral containers    ... done (  0.0 sec)

SHARK setup successfully completed in   0.6 seconds

Maximum memory used throughout the entire STARTUP-calculation: 31.2 MB
Occupation numbers will be reassigned to an Aufbau configuration
             **** ENERGY FILE WAS UPDATED (xtb_opt.en.tmp) ****
Finished Guess after   0.1 sec
Maximum memory used throughout the entire GUESS-calculation: 12.2 MB
----------------------------------------D-I-I-S--------------------------------------------
Iteration    Energy (Eh)           Delta-E    RMSDP     MaxDP     DIISErr   Damp  Time(sec)
-------------------------------------------------------------------------------------------
               ***  Starting incremental Fock matrix formation  ***
    1    -271.7088232579094438     0.00e+00  7.14e-05  1.08e-03  4.56e-03  0.700   1.2
                              *** Initializing SOSCF ***
---------------------------------------S-O-S-C-F--------------------------------------
Iteration    Energy (Eh)           Delta-E    RMSDP     MaxDP     MaxGrad    Time(sec)
--------------------------------------------------------------------------------------
    2    -271.7088860598099700    -6.28e-05  2.13e-04  3.05e-03  2.44e-03     1.0
               *** Restarting incremental Fock matrix formation ***
    3    -271.7090179784763677    -1.32e-04  1.54e-04  5.67e-03  5.52e-04     1.2
    4    -271.7090013561455635     1.66e-05  9.33e-05  3.33e-03  1.33e-03     1.0
    5    -271.7090253413538221    -2.40e-05  4.38e-05  1.10e-03  3.24e-04     1.0
    6    -271.7090227475409847     2.59e-06  3.10e-05  8.74e-04  3.09e-04     1.2
    7    -271.7090273013543538    -4.55e-06  2.74e-06  3.52e-05  1.14e-05     1.0
                  *** Gradient check signals convergence ***

               *****************************************************
               *                     SUCCESS                       *
               *           SCF CONVERGED AFTER   7 CYCLES          *
               *****************************************************

             **** ENERGY FILE WAS UPDATED (xtb_opt.en.tmp) ****

----------------
TOTAL SCF ENERGY
----------------

Total Energy       :       -271.70902730135435 Eh           -7393.57852 eV

Components:
Nuclear Repulsion  :        245.09895328323293 Eh            6669.48159 eV
Electronic Energy  :       -516.80798058458731 Eh          -14063.06010 eV
One Electron Energy:       -852.51045654950508 Eh          -23197.98889 eV
Two Electron Energy:        335.70247596491777 Eh            9134.92878 eV

Virial components:
Potential Energy   :       -542.16303802320454 Eh          -14753.00629 eV
Kinetic Energy     :        270.45401072185012 Eh            7359.42778 eV
Virial Ratio       :          2.00464040661166

DFT components:
N(Alpha)           :       24.000025754772 electrons
N(Beta)            :       24.000025754772 electrons
N(Total)           :       48.000051509543 electrons
E(X)               :      -37.827677296029 Eh       
E(C)               :       -1.505158303850 Eh       
E(XC)              :      -39.332835599880 Eh       

---------------
SCF CONVERGENCE
---------------

  Last Energy change         ...    4.5538e-06  Tolerance :   1.0000e-07
  Last MAX-Density change    ...    3.5206e-05  Tolerance :   1.0000e-07
  Last RMS-Density change    ...    2.7388e-06  Tolerance :   5.0000e-09
  Last DIIS Error            ...    2.4431e-03  Tolerance :   1.0000e-07
  Last Orbital Gradient      ...    1.1369e-05  Tolerance :   1.0000e-04
  Last Orbital Rotation      ...    2.6291e-05  Tolerance :   1.0000e-04


----------------
ORBITAL ENERGIES
----------------

  NO   OCC          E(Eh)            E(eV) 
   0   2.0000     -18.936162      -515.2792 
   1   2.0000     -10.117938      -275.3231 
   2   2.0000     -10.047395      -273.4035 
   3   2.0000     -10.038052      -273.1493 
   4   2.0000     -10.029124      -272.9063 
   5   2.0000     -10.027087      -272.8509 
   6   2.0000      -1.004948       -27.3460 
   7   2.0000      -0.774097       -21.0643 
   8   2.0000      -0.710862       -19.3435 
   9   2.0000      -0.658002       -17.9052 
  10   2.0000      -0.587205       -15.9787 
  11   2.0000      -0.487295       -13.2600 
  12   2.0000      -0.449983       -12.2447 
  13   2.0000      -0.424917       -11.5626 
  14   2.0000      -0.422494       -11.4967 
  15   2.0000      -0.390193       -10.6177 
  16   2.0000      -0.379249       -10.3199 
  17   2.0000      -0.374708       -10.1963 
  18   2.0000      -0.360805        -9.8180 
  19   2.0000      -0.331022        -9.0076 
  20   2.0000      -0.328571        -8.9409 
  21   2.0000      -0.309721        -8.4279 
  22   2.0000      -0.308514        -8.3951 
  23   2.0000      -0.212259        -5.7759 
  24   0.0000      -0.045723        -1.2442 
  25   0.0000       0.067767         1.8440 
  26   0.0000       0.115179         3.1342 
  27   0.0000       0.119915         3.2631 
  28   0.0000       0.123534         3.3615 
  29   0.0000       0.135744         3.6938 
  30   0.0000       0.144381         3.9288 
  31   0.0000       0.154670         4.2088 
  32   0.0000       0.165630         4.5070 
  33   0.0000       0.171935         4.6786 
  34   0.0000       0.176350         4.7987 
*Only the first 10 virtual orbitals were printed.
Total SCF time: 0 days 0 hours 0 min 7 sec 
Finished LeanSCF after   8.1 sec

Maximum memory used throughout the entire LEANSCF-calculation: 18.8 MB


-------------------------------------------------------------------------------
                          DFT DISPERSION CORRECTION                            
                                                                               
                                DFTD4 V3.4.0                                   
-------------------------------------------------------------------------------
-------------------------   ----------------
Dispersion correction           -0.003885679
-------------------------   ----------------

------------------   -----------------
gCP correction             0.007381831
------------------   -----------------

-------------------------   --------------------
FINAL SINGLE POINT ENERGY      -271.705531148643
-------------------------   --------------------

------------------------------------------------------------------------------
                         ORCA SCF GRADIENT CALCULATION
------------------------------------------------------------------------------

Nuc. rep. gradient        (SHARK) ... done (  0.0 sec)
HCore & Overlap gradient  (SHARK) ... done (  0.1 sec)
Split-RIJ-J gradient      (SHARK) ... done (  0.8 sec)
XC gradient                       ... done (  3.6 sec)
Dispersion correction             ... done (  0.0 sec)

-------------------
DISPERSION GRADIENT
-------------------

   1   C   :    0.000051443   -0.000038408   -0.000042800
   2   C   :    0.000023708   -0.000008036    0.000005447
   3   C   :    0.000059151    0.000040060    0.000027155
   4   C   :   -0.000036766    0.000006468   -0.000003483
   5   O   :   -0.000046345    0.000041515   -0.000046598
   6   C   :   -0.000086074   -0.000017129    0.000033561
   7   H   :    0.000026879   -0.000020799   -0.000013941
   8   H   :    0.000017342   -0.000028863   -0.000024289
   9   H   :    0.000015761   -0.000008982   -0.000023867
  10   H   :    0.000010202   -0.000009849    0.000009353
  11   H   :    0.000019853    0.000022775    0.000003937
  12   H   :    0.000030685    0.000013201    0.000016202
  13   H   :    0.000022809    0.000025061    0.000023544
  14   H   :   -0.000034434    0.000000632    0.000003991
  15   H   :   -0.000036270   -0.000003667    0.000019997
  16   H   :   -0.000037943   -0.000013980    0.000011791

Difference to translation invariance:
           :   -0.0000000000   -0.0000000000   -0.0000000000

Difference to rotation invariance:
           :   -0.0000000000    0.0000000000   -0.0000000000

Norm of the Dispersion gradient    ...    0.0002042124
RMS gradient                       ...    0.0000294755
MAX gradient                       ...    0.0000860741
gCP correction                   ... done

------------------
CARTESIAN GRADIENT
------------------

   1   C   :    0.000403828   -0.001210995   -0.000802846
   2   C   :   -0.000281261    0.000346102    0.000127788
   3   C   :    0.000475612    0.000733609    0.000965918
   4   C   :    0.000913532    0.001659898   -0.002537388
   5   O   :    0.000287032   -0.001650545    0.002253000
   6   C   :    0.000209601   -0.001526365    0.001850720
   7   H   :   -0.000914390    0.000520444   -0.000089568
   8   H   :    0.000310790    0.000595858    0.000389876
   9   H   :   -0.000398284   -0.000327325    0.001025603
  10   H   :   -0.000220991    0.000617173   -0.000679256
  11   H   :   -0.000390657   -0.000944976    0.000512572
  12   H   :   -0.000937886    0.000102054   -0.000453346
  13   H   :    0.000263516   -0.000445297   -0.000587330
  14   H   :    0.000035940   -0.000241786    0.000215743
  15   H   :    0.000011890    0.000426443   -0.001475219
  16   H   :    0.000231727    0.001345709   -0.000716269

Difference to translation invariance:
           :   -0.0000000000    0.0000000000    0.0000000000

Difference to rotation invariance:
           :    0.0000787936   -0.0001851336   -0.0000923809

Norm of the Cartesian gradient     ...    0.0062994199
RMS gradient                       ...    0.0009092429
MAX gradient                       ...    0.0025373876

-------
TIMINGS
-------

Total SCF gradient time     ....        4.589 sec

Densities                   ....       0.000 sec  (  0.0%)
One electron gradient       ....       0.143 sec  (  3.1%)
RI-J Coulomb gradient       ....       0.782 sec  ( 17.0%)
XC gradient                 ....       3.628 sec  ( 79.1%)

Maximum memory used throughout the entire SCFGRAD-calculation: 32.3 MB

------------------------------------------------------------------------------
                              ORCA PROPERTY CALCULATIONS
------------------------------------------------------------------------------

GBWName                                 ... xtb_opt.gbw
Number of atoms                         ...     16
Number of basis functions               ...    169
Max core memory                         ...   1024 MB

Electric properties:
Dipole moment                           ... YES
Quadrupole moment                       ...  NO
Static polarizability (Dipole/Dipole)   ...  NO
Static polarizability (Dipole/Quad.)    ...  NO
Static polarizability (Quad./Quad.)     ...  NO
Static polarizability (Velocity)        ...  NO

Atomic electric properties:
Dipole moment                           ...  NO
Quadrupole moment                       ...  NO
Static polarizability                   ...  NO

Choice of electric origin               ... Center of mass
Position of electric origin             ...    -0.001312    -0.001033    -0.000025

General magnetic properties:
Magnetizability                         ...  NO

EPR properties:
g-Tensor (aka g-matrix)                 ...  NO
Zero-Field splitting spin-orbit         ...  NO
Zero-field splitting spin-spin          ...  NO
Hyperfine couplings                     ...  NO (   0 nuclei)
Quadrupole couplings                    ...  NO (   0 nuclei)
Contact density                         ...  NO (   0 nuclei)

NMR properties:
Chemical shifts                         ...  NO (   0 nuclei)
Spin-rotation constants                 ...  NO (   0 nuclei)
Spin-spin couplings                     ...  NO (   0 nuclei,    0 pairs)

Choice of magnetic origin               ... GIAO
Position of magnetic origin             ...     0.000000     0.000000     0.000000

Properties with geometric perturbations:
SCF Hessian                             ...  NO
IR spectrum                             ...  NO
VCD spectrum                            ...  NO
X-ray spectroscopy properties:
SCF XES/XAS/RIXS spectra                ...  NO


-------------
DIPOLE MOMENT
-------------

Method             : SCF
Type of density    : Electron Density
Multiplicity       :   1
Irrep              :   0
Energy             :  -271.7090273013543538 Eh
Relativity type    : 
Basis              : AO
                                X                 Y                 Z
Electronic contribution:     -3.277267467       2.128807028      -2.349912311
Nuclear contribution   :      3.487237441      -2.810537224       3.184448440
                        -----------------------------------------
Total Dipole Moment    :      0.209969974      -0.681730196       0.834536129
                        -----------------------------------------
[...]
               *                     SUCCESS                       *
               *           SCF CONVERGED AFTER   4 CYCLES          *
               *****************************************************

             **** ENERGY FILE WAS UPDATED (xtb_opt.en.tmp) ****

----------------
TOTAL SCF ENERGY
----------------

Total Energy       :       -271.70909002110318 Eh           -7393.58022 eV

Components:
Nuclear Repulsion  :        244.86788139257638 Eh            6663.19380 eV
Electronic Energy  :       -516.57697141367953 Eh          -14056.77402 eV
One Electron Energy:       -852.06144417973894 Eh          -23185.77064 eV
Two Electron Energy:        335.48447276605935 Eh            9128.99661 eV

Virial components:
Potential Energy   :       -542.13304495976558 Eh          -14752.19014 eV
Kinetic Energy     :        270.42395493866246 Eh            7358.60992 eV
Virial Ratio       :          2.00475229749055

DFT components:
N(Alpha)           :       24.000036817811 electrons
N(Beta)            :       24.000036817811 electrons
N(Total)           :       48.000073635622 electrons
E(X)               :      -37.820125291702 Eh       
E(C)               :       -1.504780386071 Eh       
E(XC)              :      -39.324905677773 Eh       

---------------
SCF CONVERGENCE
---------------

  Last Energy change         ...    1.2750e-07  Tolerance :   1.0000e-07
  Last MAX-Density change    ...    1.7178e-05  Tolerance :   1.0000e-07
  Last RMS-Density change    ...    9.1839e-07  Tolerance :   5.0000e-09
  Last DIIS Error            ...    7.3713e-05  Tolerance :   1.0000e-07
  Last Orbital Gradient      ...    3.8097e-06  Tolerance :   1.0000e-04
  Last Orbital Rotation      ...    1.0121e-05  Tolerance :   1.0000e-04


----------------
ORBITAL ENERGIES
----------------

  NO   OCC          E(Eh)            E(eV) 
   0   2.0000     -18.935983      -515.2743 
   1   2.0000     -10.118294      -275.3328 
   2   2.0000     -10.048132      -273.4236 
   3   2.0000     -10.038581      -273.1637 
   4   2.0000     -10.029698      -272.9220 
   5   2.0000     -10.027292      -272.8565 
   6   2.0000      -1.003914       -27.3179 
   7   2.0000      -0.773397       -21.0452 
   8   2.0000      -0.710661       -19.3381 
   9   2.0000      -0.657344       -17.8873 
  10   2.0000      -0.587105       -15.9759 
  11   2.0000      -0.487495       -13.2654 
  12   2.0000      -0.450041       -12.2462 
  13   2.0000      -0.424636       -11.5549 
  14   2.0000      -0.421537       -11.4706 
  15   2.0000      -0.389882       -10.6092 
  16   2.0000      -0.379318       -10.3218 
  17   2.0000      -0.374149       -10.1811 
  18   2.0000      -0.360020        -9.7966 
  19   2.0000      -0.330432        -8.9915 
  20   2.0000      -0.328177        -8.9302 
  21   2.0000      -0.309402        -8.4193 
  22   2.0000      -0.308795        -8.4027 
  23   2.0000      -0.212272        -5.7762 
  24   0.0000      -0.046365        -1.2617 
  25   0.0000       0.067969         1.8495 
  26   0.0000       0.114776         3.1232 
  27   0.0000       0.119517         3.2522 
  28   0.0000       0.122937         3.3453 
  29   0.0000       0.135965         3.6998 
  30   0.0000       0.144104         3.9213 
  31   0.0000       0.155494         4.2312 
  32   0.0000       0.165753         4.5104 
  33   0.0000       0.171430         4.6648 
  34   0.0000       0.175863         4.7855 
*Only the first 10 virtual orbitals were printed.
Total SCF time: 0 days 0 hours 0 min 4 sec 
Finished LeanSCF after   4.9 sec

Maximum memory used throughout the entire LEANSCF-calculation: 18.8 MB


-------------------------------------------------------------------------------
                          DFT DISPERSION CORRECTION                            
                                                                               
                                DFTD4 V3.4.0                                   
-------------------------------------------------------------------------------
-------------------------   ----------------
Dispersion correction           -0.003880188
-------------------------   ----------------

------------------   -----------------
gCP correction             0.007361813
------------------   -----------------

-------------------------   --------------------
FINAL SINGLE POINT ENERGY      -271.705608396834
-------------------------   --------------------

------------------------------------------------------------------------------
                         ORCA SCF GRADIENT CALCULATION
------------------------------------------------------------------------------

Nuc. rep. gradient        (SHARK) ... done (  0.0 sec)
HCore & Overlap gradient  (SHARK) ... done (  0.1 sec)
Split-RIJ-J gradient      (SHARK) ... done (  0.8 sec)
XC gradient                       ... done (  3.5 sec)
Dispersion correction             ... done (  0.0 sec)

-------------------
DISPERSION GRADIENT
-------------------

   1   C   :    0.000051728   -0.000038078   -0.000042889
   2   C   :    0.000024084   -0.000008078    0.000005347
   3   C   :    0.000059182    0.000040093    0.000026973
   4   C   :   -0.000037073    0.000006202   -0.000003341
   5   O   :   -0.000046673    0.000040772   -0.000046689
   6   C   :   -0.000086333   -0.000016960    0.000033832
   7   H   :    0.000026740   -0.000020849   -0.000013916
   8   H   :    0.000017303   -0.000028435   -0.000024489
   9   H   :    0.000015871   -0.000008925   -0.000023689
  10   H   :    0.000010478   -0.000009995    0.000009379
  11   H   :    0.000019949    0.000022686    0.000003941
  12   H   :    0.000030516    0.000013287    0.000016309
  13   H   :    0.000022698    0.000025164    0.000023278
  14   H   :   -0.000034275    0.000000687    0.000003972
  15   H   :   -0.000036243   -0.000003741    0.000020053
  16   H   :   -0.000037951   -0.000013829    0.000011930

Difference to translation invariance:
           :    0.0000000000   -0.0000000000    0.0000000000

Difference to rotation invariance:
           :   -0.0000000000    0.0000000000    0.0000000000

Norm of the Dispersion gradient    ...    0.0002042911
RMS gradient                       ...    0.0000294869
MAX gradient                       ...    0.0000863330
gCP correction                   ... done

------------------
CARTESIAN GRADIENT
------------------

   1   C   :   -0.000068474    0.000052022   -0.000064468
   2   C   :    0.000075961    0.000047671    0.000189011
   3   C   :    0.000105926    0.000076743   -0.000042420
   4   C   :   -0.000276908   -0.000280338   -0.000389021
   5   O   :    0.000040088   -0.000035679    0.000425873
   6   C   :    0.000263866    0.000050063   -0.000006889
   7   H   :   -0.000045630    0.000046433    0.000017735
   8   H   :    0.000003313    0.000049760    0.000060158
   9   H   :    0.000004642   -0.000033102    0.000046591
  10   H   :    0.000041190    0.000061479   -0.000038817
  11   H   :    0.000010221   -0.000084660    0.000049030
  12   H   :   -0.000031592    0.000010758   -0.000037791
  13   H   :    0.000033764   -0.000055632   -0.000078459
  14   H   :    0.000052086    0.000000252   -0.000051231
  15   H   :   -0.000170684    0.000000136   -0.000052501
  16   H   :   -0.000037769    0.000094094   -0.000026799

Difference to translation invariance:
           :   -0.0000000000    0.0000000000    0.0000000000

Difference to rotation invariance:
           :    0.0000592239   -0.0001546802   -0.0000257831

Norm of the Cartesian gradient     ...    0.0008538285
RMS gradient                       ...    0.0001232395
MAX gradient                       ...    0.0004258726

-------
TIMINGS
-------

Total SCF gradient time     ....        4.481 sec

Densities                   ....       0.000 sec  (  0.0%)
One electron gradient       ....       0.141 sec  (  3.1%)
RI-J Coulomb gradient       ....       0.782 sec  ( 17.4%)
XC gradient                 ....       3.522 sec  ( 78.6%)

Maximum memory used throughout the entire SCFGRAD-calculation: 32.3 MB

------------------------------------------------------------------------------
                              ORCA PROPERTY CALCULATIONS
------------------------------------------------------------------------------

GBWName                                 ... xtb_opt.gbw
Number of atoms                         ...     16
Number of basis functions               ...    169
Max core memory                         ...   1024 MB

Electric properties:
Dipole moment                           ... YES
Quadrupole moment                       ...  NO
Static polarizability (Dipole/Dipole)   ...  NO
Static polarizability (Dipole/Quad.)    ...  NO
Static polarizability (Quad./Quad.)     ...  NO
Static polarizability (Velocity)        ...  NO

Atomic electric properties:
Dipole moment                           ...  NO
Quadrupole moment                       ...  NO
Static polarizability                   ...  NO

Choice of electric origin               ... Center of mass
Position of electric origin             ...    -0.003876    -0.008985    -0.000643

General magnetic properties:
Magnetizability                         ...  NO

EPR properties:
g-Tensor (aka g-matrix)                 ...  NO
Zero-Field splitting spin-orbit         ...  NO
Zero-field splitting spin-spin          ...  NO
Hyperfine couplings                     ...  NO (   0 nuclei)
Quadrupole couplings                    ...  NO (   0 nuclei)
Contact density                         ...  NO (   0 nuclei)

NMR properties:
Chemical shifts                         ...  NO (   0 nuclei)
Spin-rotation constants                 ...  NO (   0 nuclei)
Spin-spin couplings                     ...  NO (   0 nuclei,    0 pairs)

Choice of magnetic origin               ... GIAO
Position of magnetic origin             ...     0.000000     0.000000     0.000000

Properties with geometric perturbations:
SCF Hessian                             ...  NO
IR spectrum                             ...  NO
VCD spectrum                            ...  NO
X-ray spectroscopy properties:
SCF XES/XAS/RIXS spectra                ...  NO


-------------
DIPOLE MOMENT
-------------

Method             : SCF
Type of density    : Electron Density
Multiplicity       :   1
Irrep              :   0
Energy             :  -271.7090900211031794 Eh
Relativity type    : 
Basis              : AO
                                X                 Y                 Z
Electronic contribution:     -3.297372708       2.070810578      -2.346270758
Nuclear contribution   :      3.507786935      -2.746343522       3.188759359
                        -----------------------------------------
Total Dipole Moment    :      0.210414227      -0.675532944       0.842488601
                        -----------------------------------------
Magnitude (a.u.)       :      1.100184507
Magnitude (Debye)      :      2.796446780



--------------------
Rotational spectrum 
--------------------
 
Rotational constants in cm-1:             0.159541             0.085522             0.081794 
Rotational constants in MHz :          4782.904205          2563.877014          2452.129739 

Dipole components along the rotational axes: 
x,y,z [a.u.] :     0.196280    -0.446286    -0.986260 
x,y,z [Debye]:     0.498904    -1.134368    -2.506874 

 

Dipole moment calculation done in   0.0 sec 

Maximum memory used throughout the entire PROP-calculation: 10.5 MB

--------------------------------
SUGGESTED CITATIONS FOR THIS RUN
--------------------------------

Below you find a list of papers that are relevant to this ORCA run
We neither can nor want to force you to cite these papers, but we appreciate if you do
You receive ORCA, which is the product of decades of hard work by many enthusiastic individuals, for free
The only thing we kindly ask in return is that you cite our papers,
We deeply appreciate it, if you show your appreciation for ORCA by not just citing the generic ORCA reference.

Please note that relegating all ORCA citations to the supporting information does *not* help us.
SI sections are not indexed - citations you put there will not count into any citation statistics
But we need these citations in order to attract the funding resources that allow us to do what we are doing

Therefore, if you are a happy ORCA user, please consider citing a few of the papers listed below in the main body of your paper

In addition to the list printed below, the program has created the file xtb_opt.bibtex that contains the list in bibtex format
You can import this file easily into all common literature databanks and citation aid programs


List of essential papers. We consider these as the minimum necessary citations

  1. Neese,F.
     Software update: the ORCA program system, version 5.0
     WIRES Comput. Molec. Sci., 2022 12(1)e1606
     doi.org/10.1002/wcms.1606
  2. Grimme,S.; Hansen,A.; Ehlert,S.; Mewes,J.
     r2SCAN-3c: A 'Swiss army knife' composite electronic-structure method
     J. Chem. Phys., 2021 154 064103
     doi.org/10.1063/5.0040021

List of papers to cite with high priority. The work reported in these papers was absolutely
necessary for this run to complete.
Our perspective: the developers of density functionals and basis sets usually get cited in chemistry papers
Good! But without the algorithms to do something with them, the functionals or basis sets would not do anything.
Hence, in our opinion, the algorithm design and method developments papers are equally worthy of getting cited

  1. Neese,F.
     An improvement of the resolution of the identity approximation for the formation of the Coulomb matrix
     J. Comp. Chem., 2003 24(14)1740-1747
     doi.org/10.1002/jcc.10318
  2. Neese,F.
     The SHARK Integral Generation and Digestion System
     J. Comp. Chem., 2022  1-16
     doi.org/10.1002/jcc.26942
  3. Lehtola,S.; Steigemann,C.; Oliveira,M.; Marques,M.
     Recent developments in Libxc - A comprehensive library of functionals for density functional theory
     Software X, 2018 7 
     doi.org/10.1016/j.softx.2017.11.002
  4. Caldeweyher,E.; Bannwarth,C.; Grimme,S.
     Extension of the D3 dispersion coefficient model
     J. Chem. Phys., 2017 147 034112
     doi.org/10.1063/1.4993215
  5. Caldeweyher,E.; Ehlert,S.; Hansen,A.; Neugebauer,H.; Spicher,S.; Bannwarth,C.; Grimme,S.
     A generally applicable atomic-charge dependent London dispersion correction
     J. Chem. Phys., 2019 150 154122
     doi.org/10.1063/1.5090222
  6. Caldeweyher,E.; Mewes,J.; Ehlert,S.; Grimme,S.
     Extension and evaluation of the D4 London-dispersion model for periodic systems
     Phys. Chem. Chem. Phys., 2020 22(16)8499-8512
     doi.org/10.1039/D0CP00502A
  7. Wittmann,L.; Gordiy,I.; Friede,M.; Helmich-Paris,B.; Grimme,S.; Hansen,A.; Bursch,M.
     Extension of the D3 and D4 London Dispersion Corrections to the full Actinides Series
     Phys. Chem. Chem. Phys., 2024 26(32)21379-21394
     doi.org/https://doi.org/10.1039/D4CP01514B 

List of suggested additional citations. These are papers that are important in the 'surrounding' of 
of this run, or papers that preceded the highly important papers. If you like your results we are grateful for a citation.

  1. Neese,F.
     The ORCA program system
     WIRES Comput. Molec. Sci., 2012 2(1)73-78
     doi.org/10.1002/wcms.81
  2. Neese,F.
     Software update: the ORCA program system, version 4.0
     WIRES Comput. Molec. Sci., 2018 8(1)1-6
     doi.org/10.1002/wcms.1327
  3. Neese,F.; Wennmohs,F.; Becker,U.; Riplinger,C.
     The ORCA quantum chemistry program package
     J. Chem. Phys., 2020 152 Art. No. L224108
     doi.org/10.1063/5.0004608

List of optional additional citations

  1. Neese,F.
     Approximate second-order SCF convergence for spin unrestricted wavefunctions
     Chem. Phys. Lett., 2000 325(1-3)93-98
     doi.org/10.1016/s0009-2614(00)00662-x

Timings for individual modules:

Sum of individual times          ...       10.717 sec (=   0.179 min)
Startup calculation              ...        1.014 sec (=   0.017 min)   9.5 %
SCF iterations                   ...        4.969 sec (=   0.083 min)  46.4 %
Property calculations            ...        0.085 sec (=   0.001 min)   0.8 %
SCF Gradient evaluation          ...        4.649 sec (=   0.077 min)  43.4 %
                             ****ORCA TERMINATED NORMALLY****
TOTAL RUN TIME: 0 days 0 hours 0 minutes 26 seconds 647 msec
  ------------------------------------------------------------------------
          * successful ORCA run, taking over control again...

         :::::::::::::::::::::::::::::::::::::::::::::::::::::
         ::                  ORCA SUMMARY                   ::
         :::::::::::::::::::::::::::::::::::::::::::::::::::::
         :: total energy            -271.705608396834 Eh    ::
         :: gradient norm              0.000853828487 Eh/a0 ::
         :: HOMO-LUMO gap              0.000000000000 eV    ::
         :::::::::::::::::::::::::::::::::::::::::::::::::::::

           -------------------------------------------------
          |                Property Printout                |
           -------------------------------------------------
           -------------------------------------------------
          |                Geometry Summary                 |
           -------------------------------------------------

      molecular mass/u    :       86.1324919
   center of mass at/Å    :       -0.0020606      -0.0047459      -0.0003503
  moments of inertia/u·Å² :        0.1056617E+03   0.1971111E+03   0.2060927E+03
rotational constants/cm⁻¹ :        0.1595435E+00   0.8552351E-01   0.8179637E-01

 * 13 selected distances

     #   Z          #   Z                                           value/Å
     1   6 C        2   6 C                                       1.5315786
     2   6 C        3   6 C                                       1.5343285 (max)
     4   6 C        5   8 O                                       1.2138288
     1   6 C        7   1 H                                       1.0942458
     1   6 C        8   1 H                                       1.0946357
     1   6 C        9   1 H                                       1.0934215
     2   6 C       10   1 H                                       1.0973883
     3   6 C       11   1 H                                       1.0936084
     3   6 C       12   1 H                                       1.0942526
     3   6 C       13   1 H                                       1.0948012
     6   6 C       14   1 H                                       1.0904569 (min)
     6   6 C       15   1 H                                       1.0964128
     6   6 C       16   1 H                                       1.0965391

 * 3 distinct bonds (by element types)

   Z      Z             #   av. dist./Å        max./Å        min./Å
   1 H    6 C          10     1.0945762     1.0973883     1.0904569
   6 C    6 C           2     1.5329536     1.5343285     1.5315786
   6 C    8 O           1     1.2138288     1.2138288     1.2138288


optimized geometry written to: xtbopt.coord


           -------------------------------------------------
          | TOTAL ENERGY             -271.705608396834 Eh   |
          | GRADIENT NORM               0.000853828487 Eh/α |
           -------------------------------------------------

------------------------------------------------------------------------
 * finished run on 2025/04/16 at 09:45:16.642     
------------------------------------------------------------------------
 total:
 * wall-time:     0 d,  0 h,  2 min,  4.063 sec
 *  cpu-time:     0 d,  0 h,  0 min,  5.308 sec
 * ratio c/w:     0.043 speedup
 SCF:
 * wall-time:     0 d,  0 h,  0 min, 12.290 sec
 *  cpu-time:     0 d,  0 h,  0 min,  1.003 sec
 * ratio c/w:     0.082 speedup
 ANC optimizer:
 * wall-time:     0 d,  0 h,  1 min, 51.317 sec
 *  cpu-time:     0 d,  0 h,  0 min,  2.933 sec
 * ratio c/w:     0.026 speedup

