      -----------------------------------------------------------      
     |                   =====================                   |     
     |                           x T B                           |     
     |                   =====================                   |     
     |                         S. Grimme                         |     
     |          Mulliken Center for Theoretical Chemistry        |     
     |                    University of Bonn                     |     
      -----------------------------------------------------------      

   * xtb version 6.7.1 (edcfbbe) compiled by 'albert@albert-system' on 2024-07-22

   xtb is free software: you can redistribute it and/or modify it under
   the terms of the GNU Lesser General Public License as published by
   the Free Software Foundation, either version 3 of the License, or
   (at your option) any later version.
   
   xtb is distributed in the hope that it will be useful,
   but WITHOUT ANY WARRANTY; without even the implied warranty of
   MERCHANTABILITY or FITNESS FOR A PARTICULAR PURPOSE.  See the
   GNU Lesser General Public License for more details.
   
   Cite this work as:
   * C. Bannwarth, E. Caldeweyher, S. Ehlert, A. Hansen, P. Pracht,
     J. Seibert, S. Spicher, S. Grimme, WIREs Comput. Mol. Sci., 2020, 11,
     e01493. DOI: 10.1002/wcms.1493
   
   for GFN2-xTB:
   * C. Bannwarth, S. Ehlert and S. Grimme., J. Chem. Theory Comput., 2019,
     15, 1652-1671. DOI: 10.1021/acs.jctc.8b01176
   for GFN1-xTB:
   * S. Grimme, C. Bannwarth, P. Shushkov, J. Chem. Theory Comput., 2017,
     13, 1989-2009. DOI: 10.1021/acs.jctc.7b00118
   for GFN0-xTB:
   * P. Pracht, E. Caldeweyher, S. Ehlert, S. Grimme, ChemRxiv, 2019, preprint.
     DOI: 10.26434/chemrxiv.8326202.v1
   for GFN-FF:
   * S. Spicher and S. Grimme, Angew. Chem. Int. Ed., 2020, 59, 15665-15673.
     DOI: 10.1002/anie.202004239
   
   for ALPB and GBSA implicit solvation:
   * S. Ehlert, M. Stahn, S. Spicher, S. Grimme, J. Chem. Theory Comput.,
     2021, 17, 4250-4261. DOI: 10.1021/acs.jctc.1c00471
   
   for ddCOSMO and CPCM-X implicit solvation:
   * M. Stahn, S. Ehlert, S. Grimme, J. Phys. Chem. A,
     2023, XX, XXXX-XXXX. DOI: 10.1021/acs.jpca.3c04382
   
   for DFT-D4:
   * E. Caldeweyher, C. Bannwarth and S. Grimme, J. Chem. Phys., 2017,
     147, 034112. DOI: 10.1063/1.4993215
   * E. Caldeweyher, S. Ehlert, A. Hansen, H. Neugebauer, S. Spicher,
     C. Bannwarth and S. Grimme, J. Chem. Phys., 2019, 150, 154122.
     DOI: 10.1063/1.5090222
   * E. Caldeweyher, J.-M. Mewes, S. Ehlert and S. Grimme, Phys. Chem. Chem. Phys.
     2020, 22, 8499-8512. DOI: 10.1039/D0CP00502A
   
   for sTDA-xTB:
   * S. Grimme and C. Bannwarth, J. Chem. Phys., 2016, 145, 054103.
     DOI: 10.1063/1.4959605
   
   in the mass-spec context:
   * V. Asgeirsson, C. Bauer and S. Grimme, Chem. Sci., 2017, 8, 4879.
     DOI: 10.1039/c7sc00601b
   * J. Koopman and S. Grimme, ACS Omega 2019, 4, 12, 15120-15133.
     DOI: 10.1021/acsomega.9b02011
   
   for metadynamics refer to:
   * S. Grimme, J. Chem. Theory Comput., 2019, 155, 2847-2862
     DOI: 10.1021/acs.jctc.9b00143
   
   for SPH calculations refer to:
   * S. Spicher and S. Grimme, J. Chem. Theory Comput., 2021, 17, 1701-1714
     DOI: 10.1021/acs.jctc.0c01306
   
   for ONIOM refer to:
   * C. Plett, A. Katbashev, S. Ehlert, S. Grimme, M. Bursch,
     Phys. Chem. Chem. Phys., 2023, 25, 17860-17868. DOI: 10.1039/D3CP02178E
   
   for DIPRO refer to:
   * J. Kohn, N. Gildemeister, S. Grimme, D. Fazzi, A. Hansen,
     J. Chem. Phys., 2023, just accepted.
   
   for PTB refer to:
   * S. Grimme, M. Mueller, A. Hansen, J. Chem. Phys., 2023, 158, 124111.
     DOI: 10.1063/5.0137838
   
   with help from (in alphabetical order)
   P. Atkinson, C. Bannwarth, F. Bohle, G. Brandenburg, E. Caldeweyher
   M. Checinski, S. Dohm, S. Ehlert, S. Ehrlich, I. Gerasimov, C. Hölzer
   A. Katbashev, J. Kohn, J. Koopman, C. Lavigne, S. Lehtola, F. März, M. Müller,
   F. Musil, H. Neugebauer, J. Pisarek, C. Plett, P. Pracht, F. Pultar,
   J. Seibert, P. Shushkov, S. Spicher, M. Stahn, M. Steiner, T. Strunk,
   J. Stückrath, T. Rose, and J. Unsleber
   
 * started run on 2025/04/15 at 19:42:43.286     
   ID    Z sym.   atoms
    1    6 C      1-5
    2    1 H      6-15

           -------------------------------------------------
          |                Calculation Setup                |
           -------------------------------------------------

          program call               : /software/projects/pawsey0265/mwang1/xtb/bin/xtb xtb_opt.coord --opt normal --orca -I xtb_opt-xcontrol-inp
          hostname                   : nid002793
          coordinate file            : xtb_opt.coord
          omp threads                :                    16

           -------------------------------------------------
          |                   Orca driver                   |
           -------------------------------------------------
orca executable           : /software/projects/pawsey0265/mwang1/orca_avx2/orca
orca input file           : xtb_opt.inp
orca input line           : 
orca parallel             : true
orca number of threads    : 16
                         * ORCA takes the control...
  ------------------------------------------------------------------------

                                 *****************
                                 * O   R   C   A *
                                 *****************

                                            #,                                       
                                            ###                                      
                                            ####                                     
                                            #####                                    
                                            ######                                   
                                           ########,                                 
                                     ,,################,,,,,                         
                               ,,#################################,,                 
                          ,,##########################################,,             
                       ,#########################################, ''#####,          
                    ,#############################################,,   '####,        
                  ,##################################################,,,,####,       
                ,###########''''           ''''###############################       
              ,#####''   ,,,,##########,,,,          '''####'''          '####       
            ,##' ,,,,###########################,,,                        '##       
           ' ,,###''''                  '''############,,,                           
         ,,##''                                '''############,,,,        ,,,,,,###''
      ,#''                                            '''#######################'''  
     '                                                          ''''####''''         
             ,#######,   #######,   ,#######,      ##                                
            ,#'     '#,  ##    ##  ,#'     '#,    #''#        ,####,   ,####,        
            ##       ##  ##   ,#'  ##            #'  '#       #'       #'  '#        
            ##       ##  #######   ##           ,######,      #####,   #    #        
            '#,     ,#'  ##    ##  '#,     ,#' ,#      #,     #,   #   #,  ,#        
             '#######'   ##     ##  '#######'  #'      '#     '####' # '####'        



                #########################################################
                #                        -***-                          #
                #          Department of theory and spectroscopy        #
                #                                                       #
                #                      Frank Neese                      #
                #                                                       #
                #     Directorship, Architecture, Infrastructure        #
                #                    SHARK, DRIVERS                     #
                #        Core code/Algorithms in most modules           #
                #                                                       #
                #        Max Planck Institute fuer Kohlenforschung      #
                #                Kaiser Wilhelm Platz 1                 #
                #                 D-45470 Muelheim/Ruhr                 #
                #                      Germany                          #
                #                                                       #
                #                  All rights reserved                  #
                #                        -***-                          #
                #########################################################


                         Program Version 6.0.1  -  RELEASE   -


 With contributions from (in alphabetic order):
[Max-Planck-Institut fuer Kohlenforschung]                               
  Daniel Aravena         : Magnetic Suceptibility                        
  Michael Atanasov       : Ab Initio Ligand Field Theory (pilot matlab implementation)
  Alexander A. Auer      : GIAO ZORA, VPT2 properties, NMR spectrum      
  Ute Becker             : All parallelization in ORCA, NUMFREQ, NUMCALC 
  Giovanni Bistoni       : ED, misc. LED, open-shell LED, HFLD           
  Martin Brehm           : Molecular dynamics                            
  Dmytro Bykov           : pre 5.0 version of the SCF Hessian            
  Marcos Casanova-Páez   : Triplet and SCS-CIS(D). UHF-(DLPNO)-IP/EA/STEOM-CCSD. UHF-CVS-IP/STEOM-CCSD   
  Vijay G. Chilkuri      : MRCI spin determinant printing, contributions to CSF-ICE 
  Pauline Colinet        : FMM embedding                                 
  Dipayan Datta          : RHF DLPNO-CCSD density                        
  Achintya Kumar Dutta   : EOM-CC, STEOM-CC                              
  Nicolas Foglia         : Exact transition moments, OPA infrastructure, MCD improvements    
  Dmitry Ganyushin       : Spin-Orbit,Spin-Spin,Magnetic field MRCI      
  Miquel Garcia-Rates    : C-PCM and meta-GGA Hessian, CCSD/C-PCM, Gaussian charge scheme 
  Tiago L. C. Gouveia    : GS-ROHF, GS-ROCIS                             
  Yang Guo               : DLPNO-NEVPT2, F12-NEVPT2, CIM, IAO-localization        
  Andreas Hansen         : Spin unrestricted coupled pair/coupled cluster methods 
  Ingolf Harden          : AUTO-CI MPn and infrastructure                
  Benjamin Helmich-Paris : MC-RPA, TRAH-(SCF,CASSCF), AVAS, COSX integrals, SCF dyn. polar. 
  Lee Huntington         : MR-EOM, pCC                                   
  Robert Izsak           : Overlap fitted RIJCOSX, COSX-SCS-MP3, EOM     
  Riya Kayal             : Wick's Theorem for AUTO-CI, AUTO-CI UHF-CCSDT 
  Emily Kempfer          : AUTO-CI, RHF CISDT and CCSDT                  
  Christian Kollmar      : KDIIS, OOCD, Brueckner-CCSD(T), CCSD density, CASPT2, CASPT2-K, improved NEVPT2 
  Axel Koslowski         : Symmetry handling                             
  Simone Kossmann        : meta-GGA functionals, TD-DFT gradient, OOMP2, (MP2 Hessian; deprecated post 5.0) 
  Lucas Lang             : DCDCAS                                        
  Marvin Lechner         : AUTO-CI (C++ implementation), FIC-MRCC        
  Spencer Leger          : CASSCF response                               
  Dagmar Lenk            : GEPOL surface, SMD, ORCA-2-JSON               
  Dimitrios Liakos       : Extrapolation schemes; Compound Job, initial MDCI parallelization 
  Dimitrios Manganas     : Further ROCIS development; embedding schemes. LFT, Crystal Embedding 
  Dimitrios Pantazis     : SARC Basis sets                               
  Anastasios Papadopoulos: AUTO-CI, single reference methods and gradients 
  Taras Petrenko         : pre 6.0 DFT Hessian and TD-DFT gradient, (ASA, deprecated), ECA, 1-Electron XAS/XES, NRVS 
  Peter Pinski           : DLPNO-MP2, DLPNO-MP2 Gradient                 
  Christoph Reimann      : Effective Core Potentials                     
  Marius Retegan         : Local ZFS, SOC                                
  Christoph Riplinger    : Optimizer, TS searches, QM/MM, DLPNO-CCSD(T), (RO)-DLPNO pert. Triples 
  Michael Roemelt        : Original ROCIS implementation                 
  Masaaki Saitow         : Open-shell DLPNO-CCSD energy and density      
  Barbara Sandhoefer     : DKH picture change effects                    
  Kantharuban Sivalingam : CASSCF convergence/infrastructure, NEVPT2 and variants, FIC-MRCI 
  Bernardo de Souza      : ESD, SOC TD-DFT                               
  Georgi L. Stoychev     : AutoAux, RI-MP2 NMR, DLPNO-MP2 response, X2C  
  Van Anh Tran           : RI-MP2 g-tensors                              
  Willem Van den Heuvel  : Paramagnetic NMR                              
  Zikuan Wang            : NOTCH, Electric field optimization            
  Frank Wennmohs         : Technical directorship and infrastructure     
  Hang Xu                : AUTO-CI-Response properties                   
                                                                         
[FACCTs GmbH]                                                            
  Markus Bursch, Miquel Garcia-Rates, Christoph Riplinger, Bernardo de Souza, Georgi L. Stoychev 
                                                                 
  APM, Basis sets (HGBS, AHGBS, def-TZVP (Ac-Lr), def2-XVPD (La-Lu)), CI-OPT, improved COSX, DLPNO-Multilevel,           
  DOCKER, DRACO, updates on ESD, GOAT, IRC, LR-CPCM, MBIS, meta-GGA TD-DFT gradient, ML-optimized integration grids, 
  MM, NACMEs, nearIR, NEB, NEB-TS, NL-DFT gradient (VV10), 2- and 3-layer-ONIOM, interface openCOSMO-RS, QMMM,   
  Crystal-QMMM, SF, symmetry and pop. for TD-DFT, r2SCAN hybrids, SOLVATOR                                   
                                                                         
[Other institutions]                                                     
  V. Asgeirsson          : NEB                                           
  Christoph Bannwarth    : sTDA-DFT, sTD-DFT, PBEh-3c, B97-3c, D3        
  Sebastian Ehlert       : rSCAN, r2SCAN, r2SCAN-3c, D4, dhf basis sets  
  Marvin Friede          : D4 for Fr, Ra, Ac-Lr                          
  Lars Goerigk           : TD-DFT with DH, B97 family of functionals     
  Stefan Grimme          : VdW corrections, initial TS optimization, DFT functionals, gCP, sTDA/sTD-DF 
  Waldemar Hujo          : DFT-NL                                        
  H. Jonsson             : NEB                                           
  Holger Kruse           : gCP                                           
  Marcel Mueller         : wB97X-3c, vDZP basis set                      
  Hagen Neugebauer       : wr2SCAN                                       
  Tobias Risthaus        : range-separated hybrid DFT                    
  Lukas Wittmann         : regularized MP2, r2SCAN double-hybrids, wr2SCAN        
                                                                         
We gratefully acknowledge several colleagues who have allowed us to      
interface, adapt or use parts of their codes:                            
  Ed Valeev, F. Pavosevic, A. Kumar             : LibInt (2-el integral package), F12 methods 
  Garnet Chan, S. Sharma, J. Yang, R. Olivares  : DMRG                   
  Ulf Ekstrom                                   : XCFun DFT Library      
  Mihaly Kallay                                 : mrcc  (arbitrary order and MRCC methods)
  Frank Weinhold                                : gennbo (NPA and NBO analysis)           
  Simon Mueller                                 : openCOSMO-RS                            
  Christopher J. Cramer and Donald G. Truhlar   : smd solvation model                     
  S Lehtola, MJT Oliveira, MAL Marques          : LibXC Library                           
  Liviu Ungur et al                             : ANISO software                          


 Your calculation uses the libint2 library for the computation of 2-el integrals
 For citations please refer to: http://libint.valeyev.net

 Your ORCA version has been built with support for libXC version: 6.2.2
 For citations please refer to: https://libxc.gitlab.io

 This ORCA versions uses:
   CBLAS   interface :  Fast vector & matrix operations
   LAPACKE interface :  Fast linear algebra routines
   SCALAPACK package :  Parallel linear algebra routines
   Shared memory     :  Shared parallel matrices
   BLAS/LAPACK       :  OpenBLAS 0.3.27  USE64BITINT DYNAMIC_ARCH NO_AFFINITY Zen SINGLE_THREADED
        Core in use  :  Zen
   Copyright (c) 2011-2014, The OpenBLAS Project




***************************************
The coordinates will be read from file: xtb_opt.xyz
***************************************


Your calculation utilizes the geometrical counterpoise correction gCP
Please cite in your paper:
H.Kruse, S. Grimme J.Chem.Phys., 136, (2012), 154101 
   

Your calculation utilizes the atom-pairwise dispersion correction
based on EEQ partial charges (D4)


================================================================================

----- Orbital basis set information -----
Your calculation utilizes the basis: def2-mTZVPP
   Stefan Grimme, Andreas Hansen, Sebastian Ehlert, and Jan-Michael Mewes 
   J. Chem. Phys. 154, 064103 (2021). DOI: 10.1063/5.0040021

----- AuxJ basis set information -----
Your calculation utilizes the auxiliary basis: def2/J
   F. Weigend, Phys. Chem. Chem. Phys. 8, 1057 (2006).

================================================================================
                                        WARNINGS
                       Please study these warnings very carefully!
================================================================================

WARNING: Old DensityContainer found on disk!
         Will remove this file - 
         If you want to keep old densities, please start your calculation with a different basename. 



WARNING: SCAN, rSCAN, or r2SCAN functional requested.
  ===> : libXC variant has now been activated.



================================================================================
                                       INPUT FILE
================================================================================
NAME = xtb_opt.inp
|  1> ! r2scan-3c def2/J RI DEFGRID2 scfconv7 ENGRAD tightSCF miniprint
|  2> * xyzfile 0 1 xtb_opt.xyz
|  3> 
|  4>                          ****END OF INPUT****
================================================================================

                     *******************************
                     * Energy+Gradient Calculation *
                     *******************************

---------------------------------
CARTESIAN COORDINATES (ANGSTROEM)
---------------------------------
  C      1.198249    1.312000   -0.046171
  C      0.492423    0.025207    0.417126
  C      0.956764   -1.174451   -0.403205
  C     -0.996373    0.238722    0.400653
  C     -1.888433   -0.410058   -0.345850
  H      2.284955    1.214029    0.044818
  H      0.883024    2.177304    0.545175
  H      0.956780    1.514272   -1.095422
  H      0.779361   -0.145084    1.466629
  H      0.727585   -1.035626   -1.465360
  H      2.039591   -1.300919   -0.310870
  H      0.476485   -2.098906   -0.067682
  H     -1.349194    1.025854    1.069437
  H     -2.943782   -0.165677   -0.291013
  H     -1.605710   -1.203879   -1.033547

----------------------------
CARTESIAN COORDINATES (A.U.)
----------------------------
  NO LB      ZA    FRAG     MASS         X           Y           Z
   0 C     6.0000    0    12.011    2.264363    2.479321   -0.087251
   1 C     6.0000    0    12.011    0.930545    0.047634    0.788254
   2 C     6.0000    0    12.011    1.808022   -2.219391   -0.761947
   3 C     6.0000    0    12.011   -1.882872    0.451120    0.757125
   4 C     6.0000    0    12.011   -3.568621   -0.774897   -0.653563
   5 H     1.0000    0     1.008    4.317939    2.294183    0.084693
   6 H     1.0000    0     1.008    1.668674    4.114508    1.030232
   7 H     1.0000    0     1.008    1.808052    2.861559   -2.070048
   8 H     1.0000    0     1.008    1.472778   -0.274169    2.771526
   9 H     1.0000    0     1.008    1.374937   -1.957049   -2.769129
  10 H     1.0000    0     1.008    3.854268   -2.458382   -0.587459
  11 H     1.0000    0     1.008    0.900427   -3.966357   -0.127900
  12 H     1.0000    0     1.008   -2.549607    1.938584    2.020943
  13 H     1.0000    0     1.008   -5.562943   -0.313084   -0.549936
  14 H     1.0000    0     1.008   -3.034351   -2.275002   -1.953121

------------------------------------------------------------------------------
                   ___                                                        
                  /   \      - P O W E R E D   B Y -                         
                 /     \                                                     
                 |  |  |   _    _      __       _____    __    __             
                 |  |  |  | |  | |    /  \     |  _  \  |  |  /  |          
                  \  \/   | |  | |   /    \    | | | |  |  | /  /          
                 / \  \   | |__| |  /  /\  \   | |_| |  |  |/  /          
                |  |  |   |  __  | /  /__\  \  |    /   |      \           
                |  |  |   | |  | | |   __   |  |    \   |  |\   \          
                \     /   | |  | | |  |  |  |  | |\  \  |  | \   \       
                 \___/    |_|  |_| |__|  |__|  |_| \__\ |__|  \__/        
                                                                              
                      - O R C A' S   B I G   F R I E N D -                    
                                      &                                       
                       - I N T E G R A L  F E E D E R -                       
                                                                              
 v1 FN, 2020, v2 2021, v3 2022-2024                                           
------------------------------------------------------------------------------


----------------------
SHARK INTEGRAL PACKAGE
----------------------

Number of atoms                             ...     15
Number of basis functions                   ...    145
Number of shells                            ...     75
Maximum angular momentum                    ...      2
Integral batch strategy                     ... SHARK/LIBINT Hybrid
RI-J (if used) integral strategy            ... SPLIT-RIJ (Revised 2003 algorithm where possible)
Printlevel                                  ...      1
Contraction scheme used                     ... SEGMENTED contraction
Prescreening option                         ... SCHWARTZ
   Thresh                                   ... 3.000e-11
   Tcut                                     ... 1.000e-12
   Tpresel                                  ... 1.000e-12 
Coulomb Range Separation                    ... NOT USED
Exchange Range Separation                   ... NOT USED
Multipole approximations                    ... NOT USED
Finite Nucleus Model                        ... NOT USED
CABS basis                                  ... NOT available
Auxiliary Coulomb fitting basis             ... AVAILABLE
   # of basis functions in Aux-J            ...    355
   # of shells in Aux-J                     ...    125
   Maximum angular momentum in Aux-J        ...      4
Auxiliary J/K fitting basis                 ... NOT available
Auxiliary Correlation fitting basis         ... NOT available
Auxiliary 'external' fitting basis          ... NOT available

Checking pre-screening integrals            ... done (  0.0 sec) Dimension = 75
Check shell pair data                       ... done (  0.0 sec)
Shell pair information
Shell pair cut-off parameter TPreSel        ...   1.0e-12
Total number of shell pairs                 ...      2850
Shell pairs after pre-screening             ...      2756
Total number of primitive shell pairs       ...     10010
Primitive shell pairs kept                  ...      7386
          la=0 lb=0:    987 shell pairs
          la=1 lb=0:   1090 shell pairs
          la=1 lb=1:    316 shell pairs
          la=2 lb=0:    223 shell pairs
          la=2 lb=1:    125 shell pairs
          la=2 lb=2:     15 shell pairs

Calculating one electron integrals          ... done (  0.0 sec)
Calculating RI/J V-Matrix + Cholesky decomp.... done (  0.0 sec)
Calculating Nuclear repulsion               ... done (  0.0 sec) ENN=    177.055762697069 Eh

Diagonalization of the overlap matrix:
Smallest eigenvalue                        ... 1.872e-04
Time for diagonalization                   ...    0.002 sec
Threshold for overlap eigenvalues          ... 1.000e-07
Number of eigenvalues below threshold      ... 0
Time for construction of square roots      ...    0.003 sec
Total time needed                          ...    0.006 sec

-------------------
DFT GRID GENERATION
-------------------

General Integration Accuracy     IntAcc      ... 4.388
Radial Grid Type                 RadialGrid  ... OptM3 with GC (2021)
Angular Grid (max. ang.)         AngularGrid ... 4 (Lebedev-302)
Angular grid pruning method      GridPruning ... 4 (adaptive)
Weight generation scheme         WeightScheme... mBecke (2022)
Basis function cutoff            BFCut       ... 1.0000e-11
Integration weight cutoff        WCut        ... 1.0000e-14
Partially contracted basis set               ... off
Rotationally invariant grid construction     ... off
Angular grids for H and He will be reduced by one unit

Total number of grid points                  ...    62327
Total number of batches                      ...      981
Average number of points per batch           ...       63
Average number of grid points per atom       ...     4155
Initializing property integral containers    ... done (  0.0 sec)

SHARK setup successfully completed in   0.5 seconds

Maximum memory used throughout the entire STARTUP-calculation: 26.4 MB
Occupation numbers will be reassigned to an Aufbau configuration
             **** ENERGY FILE WAS UPDATED (xtb_opt.en.tmp) ****
Finished Guess after   0.1 sec
Maximum memory used throughout the entire GUESS-calculation: 10.6 MB
----------------------------------------D-I-I-S--------------------------------------------
Iteration    Energy (Eh)           Delta-E    RMSDP     MaxDP     DIISErr   Damp  Time(sec)
-------------------------------------------------------------------------------------------
               ***  Starting incremental Fock matrix formation  ***
                              *** Initializing SOSCF ***
---------------------------------------S-O-S-C-F--------------------------------------
Iteration    Energy (Eh)           Delta-E    RMSDP     MaxDP     MaxGrad    Time(sec)
--------------------------------------------------------------------------------------
    1    -196.4627438730283870     0.00e+00  1.21e-06  2.25e-05  5.73e-06     0.9
               *** Restarting incremental Fock matrix formation ***
    2    -196.4627438737726379    -7.44e-10  1.49e-06  2.81e-05  1.06e-05     0.9
                  *** Gradient check signals convergence ***

               *****************************************************
               *                     SUCCESS                       *
               *           SCF CONVERGED AFTER   2 CYCLES          *
               *****************************************************

             **** ENERGY FILE WAS UPDATED (xtb_opt.en.tmp) ****

----------------
TOTAL SCF ENERGY
----------------

Total Energy       :       -196.46274387377264 Eh           -5346.02305 eV

Components:
Nuclear Repulsion  :        177.05576269706933 Eh            4817.93224 eV
Electronic Energy  :       -373.51850657084196 Eh          -10163.95529 eV
One Electron Energy:       -613.25949761376899 Eh          -16687.63931 eV
Two Electron Energy:        239.74099104292702 Eh            6523.68402 eV

Virial components:
Potential Energy   :       -391.88511525031691 Eh          -10663.73612 eV
Kinetic Energy     :        195.42237137654428 Eh            5317.71307 eV
Virial Ratio       :          2.00532371237694

DFT components:
N(Alpha)           :       20.000034693963 electrons
N(Beta)            :       20.000034693963 electrons
N(Total)           :       40.000069387926 electrons
E(X)               :      -29.522792367516 Eh       
E(C)               :       -1.223494915906 Eh       
E(XC)              :      -30.746287283422 Eh       

---------------
SCF CONVERGENCE
---------------

  Last Energy change         ...    7.4425e-10  Tolerance :   1.0000e-07
  Last MAX-Density change    ...    2.8127e-05  Tolerance :   1.0000e-07
  Last RMS-Density change    ...    1.4927e-06  Tolerance :   5.0000e-09
  Last DIIS Error            ...    2.7464e-05  Tolerance :   1.0000e-07
  Last Orbital Gradient      ...    1.0618e-05  Tolerance :   1.0000e-04
  Last Orbital Rotation      ...    4.7694e-05  Tolerance :   1.0000e-04


----------------
ORBITAL ENERGIES
----------------

  NO   OCC          E(Eh)            E(eV) 
   0   2.0000     -10.042402      -273.2677 
   1   2.0000     -10.032927      -273.0098 
   2   2.0000     -10.022641      -272.7299 
   3   2.0000     -10.020222      -272.6641 
   4   2.0000     -10.019728      -272.6507 
   5   2.0000      -0.781471       -21.2649 
   6   2.0000      -0.700788       -19.0694 
   7   2.0000      -0.651449       -17.7268 
   8   2.0000      -0.581450       -15.8221 
   9   2.0000      -0.497961       -13.5502 
  10   2.0000      -0.447890       -12.1877 
  11   2.0000      -0.413772       -11.2593 
  12   2.0000      -0.403905       -10.9908 
  13   2.0000      -0.365158        -9.9365 
  14   2.0000      -0.350550        -9.5389 
  15   2.0000      -0.345556        -9.4031 
  16   2.0000      -0.314649        -8.5620 
  17   2.0000      -0.302211        -8.2236 
  18   2.0000      -0.295835        -8.0501 
  19   2.0000      -0.234412        -6.3787 
  20   0.0000      -0.011791        -0.3208 
  21   0.0000       0.090034         2.4499 
  22   0.0000       0.119944         3.2638 
  23   0.0000       0.131828         3.5872 
  24   0.0000       0.137399         3.7388 
  25   0.0000       0.146710         3.9922 
  26   0.0000       0.156848         4.2681 
  27   0.0000       0.161362         4.3909 
  28   0.0000       0.171721         4.6728 
  29   0.0000       0.178672         4.8619 
  30   0.0000       0.192383         5.2350 
*Only the first 10 virtual orbitals were printed.
Total SCF time: 0 days 0 hours 0 min 3 sec 
Finished LeanSCF after   6.4 sec

Maximum memory used throughout the entire LEANSCF-calculation: 16.2 MB


-------------------------------------------------------------------------------
                          DFT DISPERSION CORRECTION                            
                                                                               
                                DFTD4 V3.4.0                                   
-------------------------------------------------------------------------------
-------------------------   ----------------
Dispersion correction           -0.003461941
-------------------------   ----------------

------------------   -----------------
gCP correction             0.005999654
------------------   -----------------

-------------------------   --------------------
FINAL SINGLE POINT ENERGY      -196.460206161050
-------------------------   --------------------

------------------------------------------------------------------------------
                         ORCA SCF GRADIENT CALCULATION
------------------------------------------------------------------------------

Nuc. rep. gradient        (SHARK) ... done (  0.0 sec)
HCore & Overlap gradient  (SHARK) ... done (  0.1 sec)
Split-RIJ-J gradient      (SHARK) ... done (  0.6 sec)
XC gradient                       ... done (  2.8 sec)
Dispersion correction             ... done (  0.0 sec)

-------------------
DISPERSION GRADIENT
-------------------

   1   C   :    0.000046642    0.000052974    0.000001003
   2   C   :    0.000019678    0.000001964    0.000014493
   3   C   :    0.000036151   -0.000047794   -0.000015890
   4   C   :   -0.000042535    0.000009586    0.000018632
   5   C   :   -0.000090138   -0.000020987   -0.000012857
   6   H   :    0.000025602    0.000020514    0.000000673
   7   H   :    0.000016092    0.000030888    0.000006264
   8   H   :    0.000020086    0.000026242   -0.000007946
   9   H   :    0.000011052    0.000000409    0.000014253
  10   H   :    0.000014073   -0.000019294   -0.000013447
  11   H   :    0.000026011   -0.000021938   -0.000004150
  12   H   :    0.000011914   -0.000029463   -0.000002085
  13   H   :   -0.000024665    0.000011697    0.000014738
  14   H   :   -0.000039687   -0.000001304   -0.000003304
  15   H   :   -0.000030275   -0.000013494   -0.000010375

Difference to translation invariance:
           :   -0.0000000000   -0.0000000000    0.0000000000

Difference to rotation invariance:
           :    0.0000000000   -0.0000000000   -0.0000000000

Norm of the Dispersion gradient    ...    0.0001758212
RMS gradient                       ...    0.0000262099
MAX gradient                       ...    0.0000901383
gCP correction                   ... done

------------------
CARTESIAN GRADIENT
------------------

   1   C   :   -0.000047782    0.000338388    0.000058864
   2   C   :   -0.000154552   -0.000646298    0.000044945
   3   C   :   -0.000013396    0.000240041    0.000010869
   4   C   :    0.000992604    0.001298781    0.000612126
   5   C   :   -0.001320288    0.000115954   -0.000309165
   6   H   :    0.000104382   -0.000010091   -0.000025873
   7   H   :    0.000003730    0.000029956   -0.000099320
   8   H   :   -0.000102218   -0.000068964   -0.000259166
   9   H   :    0.000123824   -0.000039860    0.000146107
  10   H   :    0.000014968   -0.000038141    0.000073905
  11   H   :   -0.000022612   -0.000029937    0.000065455
  12   H   :   -0.000057247   -0.000097309    0.000135652
  13   H   :   -0.000003993    0.000005203    0.000636541
  14   H   :    0.000312614   -0.000156801    0.000069203
  15   H   :    0.000169966   -0.000940921   -0.001160144

Difference to translation invariance:
           :    0.0000000000    0.0000000000   -0.0000000000

Difference to rotation invariance:
           :    0.0000799396   -0.0000614401   -0.0000429581

Norm of the Cartesian gradient     ...    0.0029155290
RMS gradient                       ...    0.0004346214
MAX gradient                       ...    0.0013202876

-------
TIMINGS
-------

Total SCF gradient time     ....        3.469 sec

Densities                   ....       0.000 sec  (  0.0%)
One electron gradient       ....       0.102 sec  (  2.9%)
RI-J Coulomb gradient       ....       0.562 sec  ( 16.2%)
XC gradient                 ....       2.763 sec  ( 79.6%)

Maximum memory used throughout the entire SCFGRAD-calculation: 30.6 MB

------------------------------------------------------------------------------
                              ORCA PROPERTY CALCULATIONS
------------------------------------------------------------------------------

GBWName                                 ... xtb_opt.gbw
Number of atoms                         ...     15
Number of basis functions               ...    145
Max core memory                         ...   1024 MB

Electric properties:
Dipole moment                           ... YES
Quadrupole moment                       ...  NO
Static polarizability (Dipole/Dipole)   ...  NO
Static polarizability (Dipole/Quad.)    ...  NO
Static polarizability (Quad./Quad.)     ...  NO
Static polarizability (Velocity)        ...  NO

Atomic electric properties:
Dipole moment                           ...  NO
Quadrupole moment                       ...  NO
Static polarizability                   ...  NO

Choice of electric origin               ... Center of mass
Position of electric origin             ...    -0.015734    -0.003283    -0.023605

General magnetic properties:
Magnetizability                         ...  NO

EPR properties:
g-Tensor (aka g-matrix)                 ...  NO
Zero-Field splitting spin-orbit         ...  NO
Zero-field splitting spin-spin          ...  NO
Hyperfine couplings                     ...  NO (   0 nuclei)
Quadrupole couplings                    ...  NO (   0 nuclei)
Contact density                         ...  NO (   0 nuclei)

NMR properties:
Chemical shifts                         ...  NO (   0 nuclei)
Spin-rotation constants                 ...  NO (   0 nuclei)
Spin-spin couplings                     ...  NO (   0 nuclei,    0 pairs)

Choice of magnetic origin               ... GIAO
Position of magnetic origin             ...     0.000000     0.000000     0.000000

Properties with geometric perturbations:
SCF Hessian                             ...  NO
IR spectrum                             ...  NO
VCD spectrum                            ...  NO
X-ray spectroscopy properties:
SCF XES/XAS/RIXS spectra                ...  NO


-------------
DIPOLE MOMENT
-------------

Method             : SCF
Type of density    : Electron Density
Multiplicity       :   1
Irrep              :   0
Energy             :  -196.4627438737726379 Eh
Relativity type    : 
Basis              : AO
                                X                 Y                 Z
Electronic contribution:     -2.011940307       0.043600643       1.018940904
Nuclear contribution   :      2.188162098      -0.001183744      -0.950302640
                        -----------------------------------------
Total Dipole Moment    :      0.176221791       0.042416899       0.068638264
                        -----------------------------------------
Magnitude (a.u.)       :      0.193815697
Magnitude (Debye)      :      0.492640351



--------------------
Rotational spectrum 
--------------------
 
Rotational constants in cm-1:             0.240341             0.131702             0.097382 
Rotational constants in MHz :          7205.243754          3948.320681          2919.428882 

Dipole components along the rotational axes: 
x,y,z [a.u.] :     0.183337     0.012613     0.061586 
x,y,z [Debye]:     0.466006     0.032061     0.156540 

 

Dipole moment calculation done in   0.3 sec 

Maximum memory used throughout the entire PROP-calculation: 8.8 MB

--------------------------------
SUGGESTED CITATIONS FOR THIS RUN
--------------------------------

Below you find a list of papers that are relevant to this ORCA run
We neither can nor want to force you to cite these papers, but we appreciate if you do
You receive ORCA, which is the product of decades of hard work by many enthusiastic individuals, for free
The only thing we kindly ask in return is that you cite our papers,
We deeply appreciate it, if you show your appreciation for ORCA by not just citing the generic ORCA reference.

Please note that relegating all ORCA citations to the supporting information does *not* help us.
SI sections are not indexed - citations you put there will not count into any citation statistics
But we need these citations in order to attract the funding resources that allow us to do what we are doing

Therefore, if you are a happy ORCA user, please consider citing a few of the papers listed below in the main body of your paper

In addition to the list printed below, the program has created the file xtb_opt.bibtex that contains the list in bibtex format
You can import this file easily into all common literature databanks and citation aid programs


List of essential papers. We consider these as the minimum necessary citations

  1. Neese,F.
     Software update: the ORCA program system, version 5.0
     WIRES Comput. Molec. Sci., 2022 12(1)e1606
     doi.org/10.1002/wcms.1606
  2. Grimme,S.; Hansen,A.; Ehlert,S.; Mewes,J.
     r2SCAN-3c: A 'Swiss army knife' composite electronic-structure method
     J. Chem. Phys., 2021 154 064103
     doi.org/10.1063/5.0040021

List of papers to cite with high priority. The work reported in these papers was absolutely
necessary for this run to complete.
Our perspective: the developers of density functionals and basis sets usually get cited in chemistry papers
Good! But without the algorithms to do something with them, the functionals or basis sets would not do anything.
Hence, in our opinion, the algorithm design and method developments papers are equally worthy of getting cited

  1. Neese,F.
     An improvement of the resolution of the identity approximation for the formation of the Coulomb matrix
     J. Comp. Chem., 2003 24(14)1740-1747
     doi.org/10.1002/jcc.10318
  2. Neese,F.
     The SHARK Integral Generation and Digestion System
     J. Comp. Chem., 2022  1-16
     doi.org/10.1002/jcc.26942
  3. Lehtola,S.; Steigemann,C.; Oliveira,M.; Marques,M.
     Recent developments in Libxc - A comprehensive library of functionals for density functional theory
     Software X, 2018 7 
     doi.org/10.1016/j.softx.2017.11.002
  4. Caldeweyher,E.; Bannwarth,C.; Grimme,S.
     Extension of the D3 dispersion coefficient model
     J. Chem. Phys., 2017 147 034112
     doi.org/10.1063/1.4993215
  5. Caldeweyher,E.; Ehlert,S.; Hansen,A.; Neugebauer,H.; Spicher,S.; Bannwarth,C.; Grimme,S.
     A generally applicable atomic-charge dependent London dispersion correction
     J. Chem. Phys., 2019 150 154122
     doi.org/10.1063/1.5090222
  6. Caldeweyher,E.; Mewes,J.; Ehlert,S.; Grimme,S.
     Extension and evaluation of the D4 London-dispersion model for periodic systems
     Phys. Chem. Chem. Phys., 2020 22(16)8499-8512
     doi.org/10.1039/D0CP00502A
  7. Wittmann,L.; Gordiy,I.; Friede,M.; Helmich-Paris,B.; Grimme,S.; Hansen,A.; Bursch,M.
     Extension of the D3 and D4 London Dispersion Corrections to the full Actinides Series
     Phys. Chem. Chem. Phys., 2024 26(32)21379-21394
     doi.org/https://doi.org/10.1039/D4CP01514B 

List of suggested additional citations. These are papers that are important in the 'surrounding' of 
of this run, or papers that preceded the highly important papers. If you like your results we are grateful for a citation.

  1. Neese,F.
     The ORCA program system
     WIRES Comput. Molec. Sci., 2012 2(1)73-78
     doi.org/10.1002/wcms.81
  2. Neese,F.
     Software update: the ORCA program system, version 4.0
     WIRES Comput. Molec. Sci., 2018 8(1)1-6
     doi.org/10.1002/wcms.1327
  3. Neese,F.; Wennmohs,F.; Becker,U.; Riplinger,C.
     The ORCA quantum chemistry program package
     J. Chem. Phys., 2020 152 Art. No. L224108
     doi.org/10.1063/5.0004608

List of optional additional citations

  1. Neese,F.
     Approximate second-order SCF convergence for spin unrestricted wavefunctions
     Chem. Phys. Lett., 2000 325(1-3)93-98
     doi.org/10.1016/s0009-2614(00)00662-x

Timings for individual modules:

Sum of individual times          ...       11.331 sec (=   0.189 min)
Startup calculation              ...        0.533 sec (=   0.009 min)   4.7 %
SCF iterations                   ...        6.479 sec (=   0.108 min)  57.2 %
Property calculations            ...        0.363 sec (=   0.006 min)   3.2 %
SCF Gradient evaluation          ...        3.956 sec (=   0.066 min)  34.9 %
                             ****ORCA TERMINATED NORMALLY****
TOTAL RUN TIME: 0 days 0 hours 0 minutes 15 seconds 495 msec
  ------------------------------------------------------------------------
          * successful ORCA run, taking over control again...

         :::::::::::::::::::::::::::::::::::::::::::::::::::::
         ::                  ORCA SUMMARY                   ::
         :::::::::::::::::::::::::::::::::::::::::::::::::::::
         :: total energy            -196.460206161050 Eh    ::
         :: gradient norm              0.002915528970 Eh/a0 ::
         :: HOMO-LUMO gap              0.000000000000 eV    ::
         :::::::::::::::::::::::::::::::::::::::::::::::::::::

      ----------------------------------------------------------- 
     |                       L-ANC optimizer                     |
      ----------------------------------------------------------- 
          low memory version by Sebastian Ehlert

          ...................................................
          :                      SETUP                      :
          :.................................................:
          :   energy convergence        0.5000000E-05 Eh    :
          :   grad. convergence         0.1000000E-02 Eh/a0 :
          :   optimization log               true           :
          :   writing optlog all                1     steps :
          :   Hessian reset                     8     steps :
          :   maximium step len.        1.0000000     a0    :
          :   LBFGS images                      8           :
          ...................................................
 * calculating model hessian...
Using Lindh-Hessian (1995)
 Shifting diagonal of input Hessian by   1.000000000000000E-002
 Lowest  eigenvalues of input Hessian
    0.000000    0.000000    0.000000    0.000000    0.000000    0.000000
    0.013993    0.017387    0.018206    0.019712    0.021489    0.022908
    0.030677    0.049125    0.051144    0.061762    0.062772    0.066117
 Highest eigenvalues
    1.103269    1.156401    1.187425    1.241983    1.469977    1.892430
 

........................................................................
.............................. CYCLE    1 ..............................
........................................................................
                         * ORCA takes the control...
  ------------------------------------------------------------------------

                                 *****************
                                 * O   R   C   A *
                                 *****************

                                            #,                                       
                                            ###                                      
                                            ####                                     
                                            #####                                    
                                            ######                                   
                                           ########,                                 
                                     ,,################,,,,,                         
                               ,,#################################,,                 
                          ,,##########################################,,             
                       ,#########################################, ''#####,          
                    ,#############################################,,   '####,        
                  ,##################################################,,,,####,       
                ,###########''''           ''''###############################       
              ,#####''   ,,,,##########,,,,          '''####'''          '####       
            ,##' ,,,,###########################,,,                        '##       
           ' ,,###''''                  '''############,,,                           
         ,,##''                                '''############,,,,        ,,,,,,###''
      ,#''                                            '''#######################'''  
     '                                                          ''''####''''         
             ,#######,   #######,   ,#######,      ##                                
            ,#'     '#,  ##    ##  ,#'     '#,    #''#        ,####,   ,####,        
            ##       ##  ##   ,#'  ##            #'  '#       #'       #'  '#        
            ##       ##  #######   ##           ,######,      #####,   #    #        
            '#,     ,#'  ##    ##  '#,     ,#' ,#      #,     #,   #   #,  ,#        
             '#######'   ##     ##  '#######'  #'      '#     '####' # '####'        



                #########################################################
                #                        -***-                          #
                #          Department of theory and spectroscopy        #
                #                                                       #
                #                      Frank Neese                      #
                #                                                       #
                #     Directorship, Architecture, Infrastructure        #
                #                    SHARK, DRIVERS                     #
                #        Core code/Algorithms in most modules           #
                #                                                       #
                #        Max Planck Institute fuer Kohlenforschung      #
                #                Kaiser Wilhelm Platz 1                 #
                #                 D-45470 Muelheim/Ruhr                 #
                #                      Germany                          #
                #                                                       #
                #                  All rights reserved                  #
                #                        -***-                          #
                #########################################################


                         Program Version 6.0.1  -  RELEASE   -


 With contributions from (in alphabetic order):
[Max-Planck-Institut fuer Kohlenforschung]                               
  Daniel Aravena         : Magnetic Suceptibility                        
  Michael Atanasov       : Ab Initio Ligand Field Theory (pilot matlab implementation)
  Alexander A. Auer      : GIAO ZORA, VPT2 properties, NMR spectrum      
  Ute Becker             : All parallelization in ORCA, NUMFREQ, NUMCALC 
  Giovanni Bistoni       : ED, misc. LED, open-shell LED, HFLD           
  Martin Brehm           : Molecular dynamics                            
  Dmytro Bykov           : pre 5.0 version of the SCF Hessian            
  Marcos Casanova-Páez   : Triplet and SCS-CIS(D). UHF-(DLPNO)-IP/EA/STEOM-CCSD. UHF-CVS-IP/STEOM-CCSD   
  Vijay G. Chilkuri      : MRCI spin determinant printing, contributions to CSF-ICE 
  Pauline Colinet        : FMM embedding                                 
  Dipayan Datta          : RHF DLPNO-CCSD density                        
  Achintya Kumar Dutta   : EOM-CC, STEOM-CC                              
  Nicolas Foglia         : Exact transition moments, OPA infrastructure, MCD improvements    
  Dmitry Ganyushin       : Spin-Orbit,Spin-Spin,Magnetic field MRCI      
  Miquel Garcia-Rates    : C-PCM and meta-GGA Hessian, CCSD/C-PCM, Gaussian charge scheme 
  Tiago L. C. Gouveia    : GS-ROHF, GS-ROCIS                             
  Yang Guo               : DLPNO-NEVPT2, F12-NEVPT2, CIM, IAO-localization        
  Andreas Hansen         : Spin unrestricted coupled pair/coupled cluster methods 
  Ingolf Harden          : AUTO-CI MPn and infrastructure                
  Benjamin Helmich-Paris : MC-RPA, TRAH-(SCF,CASSCF), AVAS, COSX integrals, SCF dyn. polar. 
  Lee Huntington         : MR-EOM, pCC                                   
  Robert Izsak           : Overlap fitted RIJCOSX, COSX-SCS-MP3, EOM     
  Riya Kayal             : Wick's Theorem for AUTO-CI, AUTO-CI UHF-CCSDT 
  Emily Kempfer          : AUTO-CI, RHF CISDT and CCSDT                  
  Christian Kollmar      : KDIIS, OOCD, Brueckner-CCSD(T), CCSD density, CASPT2, CASPT2-K, improved NEVPT2 
  Axel Koslowski         : Symmetry handling                             
  Simone Kossmann        : meta-GGA functionals, TD-DFT gradient, OOMP2, (MP2 Hessian; deprecated post 5.0) 
  Lucas Lang             : DCDCAS                                        
  Marvin Lechner         : AUTO-CI (C++ implementation), FIC-MRCC        
  Spencer Leger          : CASSCF response                               
  Dagmar Lenk            : GEPOL surface, SMD, ORCA-2-JSON               
  Dimitrios Liakos       : Extrapolation schemes; Compound Job, initial MDCI parallelization 
  Dimitrios Manganas     : Further ROCIS development; embedding schemes. LFT, Crystal Embedding 
  Dimitrios Pantazis     : SARC Basis sets                               
  Anastasios Papadopoulos: AUTO-CI, single reference methods and gradients 
  Taras Petrenko         : pre 6.0 DFT Hessian and TD-DFT gradient, (ASA, deprecated), ECA, 1-Electron XAS/XES, NRVS 
  Peter Pinski           : DLPNO-MP2, DLPNO-MP2 Gradient                 
  Christoph Reimann      : Effective Core Potentials                     
  Marius Retegan         : Local ZFS, SOC                                
  Christoph Riplinger    : Optimizer, TS searches, QM/MM, DLPNO-CCSD(T), (RO)-DLPNO pert. Triples 
  Michael Roemelt        : Original ROCIS implementation                 
  Masaaki Saitow         : Open-shell DLPNO-CCSD energy and density      
  Barbara Sandhoefer     : DKH picture change effects                    
  Kantharuban Sivalingam : CASSCF convergence/infrastructure, NEVPT2 and variants, FIC-MRCI 
  Bernardo de Souza      : ESD, SOC TD-DFT                               
  Georgi L. Stoychev     : AutoAux, RI-MP2 NMR, DLPNO-MP2 response, X2C  
  Van Anh Tran           : RI-MP2 g-tensors                              
  Willem Van den Heuvel  : Paramagnetic NMR                              
  Zikuan Wang            : NOTCH, Electric field optimization            
  Frank Wennmohs         : Technical directorship and infrastructure     
  Hang Xu                : AUTO-CI-Response properties                   
                                                                         
[FACCTs GmbH]                                                            
  Markus Bursch, Miquel Garcia-Rates, Christoph Riplinger, Bernardo de Souza, Georgi L. Stoychev 
                                                                 
  APM, Basis sets (HGBS, AHGBS, def-TZVP (Ac-Lr), def2-XVPD (La-Lu)), CI-OPT, improved COSX, DLPNO-Multilevel,           
  DOCKER, DRACO, updates on ESD, GOAT, IRC, LR-CPCM, MBIS, meta-GGA TD-DFT gradient, ML-optimized integration grids, 
  MM, NACMEs, nearIR, NEB, NEB-TS, NL-DFT gradient (VV10), 2- and 3-layer-ONIOM, interface openCOSMO-RS, QMMM,   
  Crystal-QMMM, SF, symmetry and pop. for TD-DFT, r2SCAN hybrids, SOLVATOR                                   
                                                                         
[Other institutions]                                                     
  V. Asgeirsson          : NEB                                           
  Christoph Bannwarth    : sTDA-DFT, sTD-DFT, PBEh-3c, B97-3c, D3        
  Sebastian Ehlert       : rSCAN, r2SCAN, r2SCAN-3c, D4, dhf basis sets  
  Marvin Friede          : D4 for Fr, Ra, Ac-Lr                          
  Lars Goerigk           : TD-DFT with DH, B97 family of functionals     
  Stefan Grimme          : VdW corrections, initial TS optimization, DFT functionals, gCP, sTDA/sTD-DF 
  Waldemar Hujo          : DFT-NL                                        
  H. Jonsson             : NEB                                           
  Holger Kruse           : gCP                                           
  Marcel Mueller         : wB97X-3c, vDZP basis set                      
  Hagen Neugebauer       : wr2SCAN                                       
  Tobias Risthaus        : range-separated hybrid DFT                    
  Lukas Wittmann         : regularized MP2, r2SCAN double-hybrids, wr2SCAN        
                                                                         
We gratefully acknowledge several colleagues who have allowed us to      
interface, adapt or use parts of their codes:                            
  Ed Valeev, F. Pavosevic, A. Kumar             : LibInt (2-el integral package), F12 methods 
  Garnet Chan, S. Sharma, J. Yang, R. Olivares  : DMRG                   
  Ulf Ekstrom                                   : XCFun DFT Library      
  Mihaly Kallay                                 : mrcc  (arbitrary order and MRCC methods)
  Frank Weinhold                                : gennbo (NPA and NBO analysis)           
  Simon Mueller                                 : openCOSMO-RS                            
  Christopher J. Cramer and Donald G. Truhlar   : smd solvation model                     
  S Lehtola, MJT Oliveira, MAL Marques          : LibXC Library                           
  Liviu Ungur et al                             : ANISO software                          


 Your calculation uses the libint2 library for the computation of 2-el integrals
 For citations please refer to: http://libint.valeyev.net

 Your ORCA version has been built with support for libXC version: 6.2.2
 For citations please refer to: https://libxc.gitlab.io

 This ORCA versions uses:
   CBLAS   interface :  Fast vector & matrix operations
   LAPACKE interface :  Fast linear algebra routines
   SCALAPACK package :  Parallel linear algebra routines
   Shared memory     :  Shared parallel matrices
   BLAS/LAPACK       :  OpenBLAS 0.3.27  USE64BITINT DYNAMIC_ARCH NO_AFFINITY Zen SINGLE_THREADED
        Core in use  :  Zen
   Copyright (c) 2011-2014, The OpenBLAS Project




***************************************
The coordinates will be read from file: xtb_opt.xyz
***************************************


Your calculation utilizes the geometrical counterpoise correction gCP
Please cite in your paper:
H.Kruse, S. Grimme J.Chem.Phys., 136, (2012), 154101 
   

Your calculation utilizes the atom-pairwise dispersion correction
based on EEQ partial charges (D4)


================================================================================

----- Orbital basis set information -----
Your calculation utilizes the basis: def2-mTZVPP
   Stefan Grimme, Andreas Hansen, Sebastian Ehlert, and Jan-Michael Mewes 
   J. Chem. Phys. 154, 064103 (2021). DOI: 10.1063/5.0040021

----- AuxJ basis set information -----
Your calculation utilizes the auxiliary basis: def2/J
   F. Weigend, Phys. Chem. Chem. Phys. 8, 1057 (2006).

================================================================================
                                        WARNINGS
                       Please study these warnings very carefully!
================================================================================

WARNING: Old DensityContainer found on disk!
         Will remove this file - 
         If you want to keep old densities, please start your calculation with a different basename. 



WARNING: SCAN, rSCAN, or r2SCAN functional requested.
  ===> : libXC variant has now been activated.



================================================================================
                                       INPUT FILE
================================================================================
NAME = xtb_opt.inp
|  1> ! r2scan-3c def2/J RI DEFGRID2 scfconv7 ENGRAD tightSCF miniprint
|  2> * xyzfile 0 1 xtb_opt.xyz
|  3> 
|  4>                          ****END OF INPUT****
================================================================================

                     *******************************
                     * Energy+Gradient Calculation *
                     *******************************

---------------------------------
CARTESIAN COORDINATES (ANGSTROEM)
---------------------------------
  C      1.198778    1.311785   -0.044683
  C      0.492043    0.025183    0.416271
  C      0.956996   -1.173950   -0.404956
  C     -0.997083    0.236941    0.400584
  C     -1.889185   -0.412750   -0.342671
  H      2.285240    1.213227    0.046863
  H      0.883667    2.176042    0.548298
  H      0.958265    1.516539   -1.093367
  H      0.778399   -0.145429    1.465687
  H      0.727650   -1.034143   -1.467010
  H      2.039917   -1.299994   -0.312971
  H      0.477135   -2.098866   -0.070635
  H     -1.349059    1.031539    1.060336
  H     -2.944074   -0.163522   -0.292952
  H     -1.606963   -1.209814   -1.024076

----------------------------
CARTESIAN COORDINATES (A.U.)
----------------------------
  NO LB      ZA    FRAG     MASS         X           Y           Z
   0 C     6.0000    0    12.011    2.265362    2.478915   -0.084438
   1 C     6.0000    0    12.011    0.929826    0.047589    0.786639
   2 C     6.0000    0    12.011    1.808460   -2.218444   -0.765255
   3 C     6.0000    0    12.011   -1.884215    0.447753    0.756995
   4 C     6.0000    0    12.011   -3.570042   -0.779985   -0.647555
   5 H     1.0000    0     1.008    4.318477    2.292667    0.088558
   6 H     1.0000    0     1.008    1.669888    4.112124    1.036134
   7 H     1.0000    0     1.008    1.810859    2.865843   -2.066165
   8 H     1.0000    0     1.008    1.470960   -0.274822    2.769748
   9 H     1.0000    0     1.008    1.375060   -1.954248   -2.772248
  10 H     1.0000    0     1.008    3.854884   -2.456633   -0.591429
  11 H     1.0000    0     1.008    0.901655   -3.966282   -0.133481
  12 H     1.0000    0     1.008   -2.549352    1.949326    2.003744
  13 H     1.0000    0     1.008   -5.563493   -0.309011   -0.553600
  14 H     1.0000    0     1.008   -3.036720   -2.286216   -1.935224

------------------------------------------------------------------------------
                   ___                                                        
                  /   \      - P O W E R E D   B Y -                         
                 /     \                                                     
                 |  |  |   _    _      __       _____    __    __             
                 |  |  |  | |  | |    /  \     |  _  \  |  |  /  |          
                  \  \/   | |  | |   /    \    | | | |  |  | /  /          
                 / \  \   | |__| |  /  /\  \   | |_| |  |  |/  /          
                |  |  |   |  __  | /  /__\  \  |    /   |      \           
                |  |  |   | |  | | |   __   |  |    \   |  |\   \          
                \     /   | |  | | |  |  |  |  | |\  \  |  | \   \       
                 \___/    |_|  |_| |__|  |__|  |_| \__\ |__|  \__/        
                                                                              
                      - O R C A' S   B I G   F R I E N D -                    
                                      &                                       
                       - I N T E G R A L  F E E D E R -                       
                                                                              
 v1 FN, 2020, v2 2021, v3 2022-2024                                           
------------------------------------------------------------------------------


----------------------
SHARK INTEGRAL PACKAGE
----------------------

Number of atoms                             ...     15
Number of basis functions                   ...    145
Number of shells                            ...     75
Maximum angular momentum                    ...      2
Integral batch strategy                     ... SHARK/LIBINT Hybrid
RI-J (if used) integral strategy            ... SPLIT-RIJ (Revised 2003 algorithm where possible)
Printlevel                                  ...      1
Contraction scheme used                     ... SEGMENTED contraction
Prescreening option                         ... SCHWARTZ
   Thresh                                   ... 3.000e-11
   Tcut                                     ... 1.000e-12
   Tpresel                                  ... 1.000e-12 
Coulomb Range Separation                    ... NOT USED
Exchange Range Separation                   ... NOT USED
Multipole approximations                    ... NOT USED
Finite Nucleus Model                        ... NOT USED
CABS basis                                  ... NOT available
Auxiliary Coulomb fitting basis             ... AVAILABLE
   # of basis functions in Aux-J            ...    355
   # of shells in Aux-J                     ...    125
   Maximum angular momentum in Aux-J        ...      4
Auxiliary J/K fitting basis                 ... NOT available
Auxiliary Correlation fitting basis         ... NOT available
Auxiliary 'external' fitting basis          ... NOT available

Checking pre-screening integrals            ... done (  0.0 sec) Dimension = 75
Check shell pair data                       ... done (  0.0 sec)
Shell pair information
Shell pair cut-off parameter TPreSel        ...   1.0e-12
Total number of shell pairs                 ...      2850
Shell pairs after pre-screening             ...      2756
Total number of primitive shell pairs       ...     10010
Primitive shell pairs kept                  ...      7386
          la=0 lb=0:    987 shell pairs
          la=1 lb=0:   1090 shell pairs
          la=1 lb=1:    316 shell pairs
          la=2 lb=0:    223 shell pairs
          la=2 lb=1:    125 shell pairs
          la=2 lb=2:     15 shell pairs

Calculating one electron integrals          ... done (  0.0 sec)
Calculating RI/J V-Matrix + Cholesky decomp.... done (  0.0 sec)
Calculating Nuclear repulsion               ... done (  0.0 sec) ENN=    177.077757127604 Eh

Diagonalization of the overlap matrix:
Smallest eigenvalue                        ... 1.866e-04
Time for diagonalization                   ...    0.002 sec
Threshold for overlap eigenvalues          ... 1.000e-07
Number of eigenvalues below threshold      ... 0
Time for construction of square roots      ...    0.003 sec
Total time needed                          ...    0.006 sec

-------------------
DFT GRID GENERATION
-------------------

General Integration Accuracy     IntAcc      ... 4.388
Radial Grid Type                 RadialGrid  ... OptM3 with GC (2021)
Angular Grid (max. ang.)         AngularGrid ... 4 (Lebedev-302)
Angular grid pruning method      GridPruning ... 4 (adaptive)
Weight generation scheme         WeightScheme... mBecke (2022)
Basis function cutoff            BFCut       ... 1.0000e-11
Integration weight cutoff        WCut        ... 1.0000e-14
Partially contracted basis set               ... off
Rotationally invariant grid construction     ... off
Angular grids for H and He will be reduced by one unit

Total number of grid points                  ...    62327
Total number of batches                      ...      981
Average number of points per batch           ...       63
Average number of grid points per atom       ...     4155
Initializing property integral containers    ... done (  0.0 sec)

SHARK setup successfully completed in   0.5 seconds

Maximum memory used throughout the entire STARTUP-calculation: 26.3 MB
Occupation numbers will be reassigned to an Aufbau configuration
             **** ENERGY FILE WAS UPDATED (xtb_opt.en.tmp) ****
Finished Guess after   0.1 sec
Maximum memory used throughout the entire GUESS-calculation: 10.6 MB
----------------------------------------D-I-I-S--------------------------------------------
Iteration    Energy (Eh)           Delta-E    RMSDP     MaxDP     DIISErr   Damp  Time(sec)
-------------------------------------------------------------------------------------------
               ***  Starting incremental Fock matrix formation  ***
                              *** Initializing SOSCF ***
---------------------------------------S-O-S-C-F--------------------------------------
Iteration    Energy (Eh)           Delta-E    RMSDP     MaxDP     MaxGrad    Time(sec)
--------------------------------------------------------------------------------------
    1    -196.4627454759593661     0.00e+00  8.34e-05  1.65e-03  2.76e-04     1.0
               *** Restarting incremental Fock matrix formation ***
    2    -196.4627675969187521    -2.21e-05  4.12e-05  6.43e-04  2.78e-04     9.4
    3    -196.4627700477782355    -2.45e-06  1.19e-05  1.66e-04  7.03e-05     0.9
    4    -196.4627700449012195     2.88e-09  6.52e-06  9.63e-05  5.80e-05     0.7
                 **** Energy Check signals convergence ****

               *****************************************************
               *                     SUCCESS                       *
               *           SCF CONVERGED AFTER   4 CYCLES          *
               *****************************************************

             **** ENERGY FILE WAS UPDATED (xtb_opt.en.tmp) ****

----------------
TOTAL SCF ENERGY
----------------

Total Energy       :       -196.46277004490122 Eh           -5346.02376 eV

Components:
Nuclear Repulsion  :        177.07775712760355 Eh            4818.53074 eV
Electronic Energy  :       -373.54052717250477 Eh          -10164.55450 eV
One Electron Energy:       -613.30483524175133 Eh          -16688.87301 eV
Two Electron Energy:        239.76430806924657 Eh            6524.31851 eV

Virial components:
Potential Energy   :       -391.89248207479955 Eh          -10663.93658 eV
Kinetic Energy     :        195.42971202989830 Eh            5317.91282 eV
Virial Ratio       :          2.00528608472209

DFT components:
N(Alpha)           :       20.000033694810 electrons
N(Beta)            :       20.000033694810 electrons
N(Total)           :       40.000067389620 electrons
E(X)               :      -29.524742513166 Eh       
E(C)               :       -1.223567997384 Eh       
E(XC)              :      -30.748310510550 Eh       

---------------
SCF CONVERGENCE
---------------

  Last Energy change         ...   -2.8770e-09  Tolerance :   1.0000e-07
  Last MAX-Density change    ...    9.6314e-05  Tolerance :   1.0000e-07
  Last RMS-Density change    ...    6.5221e-06  Tolerance :   5.0000e-09
  Last DIIS Error            ...    2.1323e-03  Tolerance :   1.0000e-07
  Last Orbital Gradient      ...    5.8023e-05  Tolerance :   1.0000e-04
  Last Orbital Rotation      ...    9.4385e-05  Tolerance :   1.0000e-04


----------------
ORBITAL ENERGIES
----------------

  NO   OCC          E(Eh)            E(eV) 
   0   2.0000     -10.042352      -273.2663 
   1   2.0000     -10.032283      -272.9923 
   2   2.0000     -10.022524      -272.7267 
   3   2.0000     -10.019769      -272.6518 
   4   2.0000     -10.019618      -272.6477 
   5   2.0000      -0.781457       -21.2645 
   6   2.0000      -0.700967       -19.0743 
   7   2.0000      -0.651471       -17.7274 
   8   2.0000      -0.581392       -15.8205 
   9   2.0000      -0.498004       -13.5514 
  10   2.0000      -0.447759       -12.1841 
  11   2.0000      -0.413881       -11.2623 
  12   2.0000      -0.404027       -10.9941 
  13   2.0000      -0.365131        -9.9357 
  14   2.0000      -0.350380        -9.5343 
  15   2.0000      -0.345573        -9.4035 
  16   2.0000      -0.314705        -8.5635 
  17   2.0000      -0.302256        -8.2248 
  18   2.0000      -0.295691        -8.0461 
  19   2.0000      -0.234469        -6.3802 
  20   0.0000      -0.011369        -0.3094 
  21   0.0000       0.090017         2.4495 
  22   0.0000       0.120190         3.2705 
  23   0.0000       0.131967         3.5910 
  24   0.0000       0.137539         3.7426 
  25   0.0000       0.146723         3.9925 
  26   0.0000       0.156835         4.2677 
  27   0.0000       0.161408         4.3921 
  28   0.0000       0.171775         4.6742 
  29   0.0000       0.178766         4.8645 
  30   0.0000       0.192617         5.2414 
*Only the first 10 virtual orbitals were printed.
Total SCF time: 0 days 0 hours 0 min 12 sec 
Finished LeanSCF after  13.3 sec

Maximum memory used throughout the entire LEANSCF-calculation: 16.2 MB


-------------------------------------------------------------------------------
                          DFT DISPERSION CORRECTION                            
                                                                               
                                DFTD4 V3.4.0                                   
-------------------------------------------------------------------------------
-------------------------   ----------------
Dispersion correction           -0.003461743
-------------------------   ----------------

------------------   -----------------
gCP correction             0.006003503
------------------   -----------------

-------------------------   --------------------
FINAL SINGLE POINT ENERGY      -196.460228285156
-------------------------   --------------------

------------------------------------------------------------------------------
                         ORCA SCF GRADIENT CALCULATION
------------------------------------------------------------------------------

Nuc. rep. gradient        (SHARK) ... done (  0.0 sec)
HCore & Overlap gradient  (SHARK) ... done (  0.1 sec)
Split-RIJ-J gradient      (SHARK) ... done (  0.6 sec)
XC gradient                       ... done (  2.8 sec)
Dispersion correction             ... done (  0.0 sec)

-------------------
DISPERSION GRADIENT
-------------------

   1   C   :    0.000046656    0.000052991    0.000001081
   2   C   :    0.000019659    0.000001964    0.000014455
   3   C   :    0.000036153   -0.000047757   -0.000015960
   4   C   :   -0.000042593    0.000009540    0.000018597
   5   C   :   -0.000090153   -0.000021061   -0.000012725
   6   H   :    0.000025601    0.000020495    0.000000701
   7   H   :    0.000016093    0.000030869    0.000006301
   8   H   :    0.000020099    0.000026264   -0.000007939
   9   H   :    0.000011040    0.000000424    0.000014224
  10   H   :    0.000014092   -0.000019282   -0.000013489
  11   H   :    0.000026014   -0.000021909   -0.000004196
  12   H   :    0.000011898   -0.000029448   -0.000002128
  13   H   :   -0.000024641    0.000011720    0.000014611
  14   H   :   -0.000039676   -0.000001297   -0.000003303
  15   H   :   -0.000030242   -0.000013513   -0.000010230

Difference to translation invariance:
           :    0.0000000000   -0.0000000000   -0.0000000000

Difference to rotation invariance:
           :   -0.0000000000   -0.0000000000   -0.0000000000

Norm of the Dispersion gradient    ...    0.0001758045
RMS gradient                       ...    0.0000262074
MAX gradient                       ...    0.0000901531
gCP correction                   ... done

------------------
CARTESIAN GRADIENT
------------------

   1   C   :    0.000184989    0.000133806   -0.000030498
   2   C   :   -0.000092403   -0.000093922   -0.000208481
   3   C   :   -0.000004424    0.000091325    0.000035386
   4   C   :    0.000035759   -0.000159163    0.000543888
   5   C   :   -0.000112531    0.000074394   -0.000112548
   6   H   :    0.000040512    0.000045539   -0.000043154
   7   H   :   -0.000018411    0.000004613   -0.000076109
   8   H   :   -0.000052710   -0.000085468   -0.000069475
   9   H   :   -0.000012825    0.000092931    0.000022227
  10   H   :    0.000024768   -0.000047223    0.000043176
  11   H   :   -0.000005101   -0.000014660    0.000037633
  12   H   :   -0.000038266   -0.000014923    0.000070060
  13   H   :   -0.000026629   -0.000031053    0.000208252
  14   H   :    0.000054830    0.000056794   -0.000062187
  15   H   :    0.000022442   -0.000052991   -0.000358172

Difference to translation invariance:
           :    0.0000000000    0.0000000000    0.0000000000

Difference to rotation invariance:
           :    0.0000699572   -0.0000566067   -0.0000423978

Norm of the Cartesian gradient     ...    0.0008440476
RMS gradient                       ...    0.0001258232
MAX gradient                       ...    0.0005438882

-------
TIMINGS
-------

Total SCF gradient time     ....        3.490 sec

Densities                   ....       0.000 sec  (  0.0%)
One electron gradient       ....       0.103 sec  (  3.0%)
RI-J Coulomb gradient       ....       0.564 sec  ( 16.2%)
XC gradient                 ....       2.785 sec  ( 79.8%)

Maximum memory used throughout the entire SCFGRAD-calculation: 30.6 MB

------------------------------------------------------------------------------
                              ORCA PROPERTY CALCULATIONS
------------------------------------------------------------------------------

GBWName                                 ... xtb_opt.gbw
Number of atoms                         ...     15
Number of basis functions               ...    145
Max core memory                         ...   1024 MB

Electric properties:
Dipole moment                           ... YES
Quadrupole moment                       ...  NO
Static polarizability (Dipole/Dipole)   ...  NO
Static polarizability (Dipole/Quad.)    ...  NO
Static polarizability (Quad./Quad.)     ...  NO
Static polarizability (Velocity)        ...  NO

Atomic electric properties:
Dipole moment                           ...  NO
Quadrupole moment                       ...  NO
Static polarizability                   ...  NO

Choice of electric origin               ... Center of mass
Position of electric origin             ...    -0.016055    -0.004531    -0.023014

General magnetic properties:
Magnetizability                         ...  NO

EPR properties:
g-Tensor (aka g-matrix)                 ...  NO
Zero-Field splitting spin-orbit         ...  NO
Zero-field splitting spin-spin          ...  NO
Hyperfine couplings                     ...  NO (   0 nuclei)
Quadrupole couplings                    ...  NO (   0 nuclei)
Contact density                         ...  NO (   0 nuclei)

NMR properties:
Chemical shifts                         ...  NO (   0 nuclei)
Spin-rotation constants                 ...  NO (   0 nuclei)
Spin-spin couplings                     ...  NO (   0 nuclei,    0 pairs)

Choice of magnetic origin               ... GIAO
Position of magnetic origin             ...     0.000000     0.000000     0.000000

Properties with geometric perturbations:
SCF Hessian                             ...  NO
IR spectrum                             ...  NO
VCD spectrum                            ...  NO
X-ray spectroscopy properties:
SCF XES/XAS/RIXS spectra                ...  NO


-------------
DIPOLE MOMENT
-------------

Method             : SCF
Type of density    : Electron Density
Multiplicity       :   1
Irrep              :   0
Energy             :  -196.4627700449012195 Eh
Relativity type    : 
Basis              : AO
                                X                 Y                 Z
Electronic contribution:     -2.014004035       0.035892895       1.020818020
Nuclear contribution   :      2.190770562       0.008966743      -0.955105962
                        -----------------------------------------
Total Dipole Moment    :      0.176766527       0.044859638       0.065712059
                        -----------------------------------------
Magnitude (a.u.)       :      0.193847535
Magnitude (Debye)      :      0.492721277



--------------------
Rotational spectrum 
--------------------
 
Rotational constants in cm-1:             0.240607             0.131662             0.097317 
Rotational constants in MHz :          7213.202620          3947.125562          2917.488590 

Dipole components along the rotational axes: 
x,y,z [a.u.] :     0.184355     0.013894     0.058284 
x,y,z [Debye]:     0.468594     0.035316     0.148145 

 

Dipole moment calculation done in   0.5 sec 

Maximum memory used throughout the entire PROP-calculation: 8.8 MB

--------------------------------
SUGGESTED CITATIONS FOR THIS RUN
--------------------------------

Below you find a list of papers that are relevant to this ORCA run
We neither can nor want to force you to cite these papers, but we appreciate if you do
You receive ORCA, which is the product of decades of hard work by many enthusiastic individuals, for free
The only thing we kindly ask in return is that you cite our papers,
We deeply appreciate it, if you show your appreciation for ORCA by not just citing the generic ORCA reference.

[...]
    1    -196.4628512528119870     0.00e+00  1.29e-06  2.35e-05  1.17e-05     0.9
               *** Restarting incremental Fock matrix formation ***
    2    -196.4628512528535964    -4.16e-11  2.05e-06  3.78e-05  1.96e-05     0.9
                  *** Gradient check signals convergence ***

               *****************************************************
               *                     SUCCESS                       *
               *           SCF CONVERGED AFTER   2 CYCLES          *
               *****************************************************

             **** ENERGY FILE WAS UPDATED (xtb_opt.en.tmp) ****

----------------
TOTAL SCF ENERGY
----------------

Total Energy       :       -196.46285125285360 Eh           -5346.02597 eV

Components:
Nuclear Repulsion  :        177.04307802326539 Eh            4817.58707 eV
Electronic Energy  :       -373.50592927611899 Eh          -10163.61304 eV
One Electron Energy:       -613.22859032093936 Eh          -16686.79828 eV
Two Electron Energy:        239.72266104482034 Eh            6523.18524 eV

Virial components:
Potential Energy   :       -391.89637643535536 Eh          -10664.04255 eV
Kinetic Energy     :        195.43352518250174 Eh            5318.01658 eV
Virial Ratio       :          2.00526688585999

DFT components:
N(Alpha)           :       20.000021290578 electrons
N(Beta)            :       20.000021290578 electrons
N(Total)           :       40.000042581156 electrons
E(X)               :      -29.525421706924 Eh       
E(C)               :       -1.223634129657 Eh       
E(XC)              :      -30.749055836581 Eh       

---------------
SCF CONVERGENCE
---------------

  Last Energy change         ...    4.1609e-11  Tolerance :   1.0000e-07
  Last MAX-Density change    ...    3.7786e-05  Tolerance :   1.0000e-07
  Last RMS-Density change    ...    2.0512e-06  Tolerance :   5.0000e-09
  Last DIIS Error            ...    2.7557e-05  Tolerance :   1.0000e-07
  Last Orbital Gradient      ...    1.9573e-05  Tolerance :   1.0000e-04
  Last Orbital Rotation      ...    8.7674e-05  Tolerance :   1.0000e-04


----------------
ORBITAL ENERGIES
----------------

  NO   OCC          E(Eh)            E(eV) 
   0   2.0000     -10.042475      -273.2696 
   1   2.0000     -10.032648      -273.0022 
   2   2.0000     -10.022547      -272.7274 
   3   2.0000     -10.019839      -272.6537 
   4   2.0000     -10.019702      -272.6500 
   5   2.0000      -0.781680       -21.2706 
   6   2.0000      -0.701316       -19.0838 
   7   2.0000      -0.651728       -17.7344 
   8   2.0000      -0.581161       -15.8142 
   9   2.0000      -0.498689       -13.5700 
  10   2.0000      -0.447048       -12.1648 
  11   2.0000      -0.414590       -11.2816 
  12   2.0000      -0.405424       -11.0321 
  13   2.0000      -0.364572        -9.9205 
  14   2.0000      -0.349259        -9.5038 
  15   2.0000      -0.345734        -9.4079 
  16   2.0000      -0.315244        -8.5782 
  17   2.0000      -0.302905        -8.2425 
  18   2.0000      -0.295803        -8.0492 
  19   2.0000      -0.234647        -6.3851 
  20   0.0000      -0.011403        -0.3103 
  21   0.0000       0.090468         2.4618 
  22   0.0000       0.120448         3.2776 
  23   0.0000       0.132194         3.5972 
  24   0.0000       0.137694         3.7468 
  25   0.0000       0.146644         3.9904 
  26   0.0000       0.155671         4.2360 
  27   0.0000       0.161359         4.3908 
  28   0.0000       0.170613         4.6426 
  29   0.0000       0.180119         4.9013 
  30   0.0000       0.193619         5.2686 
*Only the first 10 virtual orbitals were printed.
Total SCF time: 0 days 0 hours 0 min 2 sec 
Finished LeanSCF after   5.0 sec

Maximum memory used throughout the entire LEANSCF-calculation: 16.2 MB


-------------------------------------------------------------------------------
                          DFT DISPERSION CORRECTION                            
                                                                               
                                DFTD4 V3.4.0                                   
-------------------------------------------------------------------------------
-------------------------   ----------------
Dispersion correction           -0.003457945
-------------------------   ----------------

------------------   -----------------
gCP correction             0.006010930
------------------   -----------------

-------------------------   --------------------
FINAL SINGLE POINT ENERGY      -196.460298268558
-------------------------   --------------------

------------------------------------------------------------------------------
                         ORCA SCF GRADIENT CALCULATION
------------------------------------------------------------------------------

Nuc. rep. gradient        (SHARK) ... done (  0.0 sec)
HCore & Overlap gradient  (SHARK) ... done (  0.1 sec)
Split-RIJ-J gradient      (SHARK) ... done (  0.6 sec)
XC gradient                       ... done (  2.9 sec)
Dispersion correction             ... done (  0.0 sec)

-------------------
DISPERSION GRADIENT
-------------------

   1   C   :    0.000046743    0.000053003    0.000001809
   2   C   :    0.000019563    0.000002073    0.000014242
   3   C   :    0.000035971   -0.000047533   -0.000016457
   4   C   :   -0.000042661    0.000010050    0.000017681
   5   C   :   -0.000090201   -0.000022125   -0.000011626
   6   H   :    0.000025543    0.000020208    0.000001062
   7   H   :    0.000016046    0.000030573    0.000006638
   8   H   :    0.000020126    0.000026339   -0.000007637
   9   H   :    0.000010919    0.000000470    0.000014015
  10   H   :    0.000014075   -0.000019084   -0.000013797
  11   H   :    0.000025973   -0.000021712   -0.000004513
  12   H   :    0.000011716   -0.000029270   -0.000002525
  13   H   :   -0.000024400    0.000012299    0.000013597
  14   H   :   -0.000039472   -0.000001430   -0.000003124
  15   H   :   -0.000029941   -0.000013863   -0.000009366

Difference to translation invariance:
           :    0.0000000000    0.0000000000    0.0000000000

Difference to rotation invariance:
           :    0.0000000000    0.0000000000   -0.0000000000

Norm of the Dispersion gradient    ...    0.0001754262
RMS gradient                       ...    0.0000261510
MAX gradient                       ...    0.0000902010
gCP correction                   ... done

------------------
CARTESIAN GRADIENT
------------------

   1   C   :   -0.000060411    0.000000796   -0.000016997
   2   C   :   -0.000026366   -0.000013457    0.000123930
   3   C   :   -0.000015338   -0.000037098   -0.000018475
   4   C   :   -0.000057989    0.000300636   -0.000099838
   5   C   :    0.000002539   -0.000376676    0.000005267
   6   H   :    0.000007758    0.000006288   -0.000012606
   7   H   :   -0.000009860   -0.000009878   -0.000010576
   8   H   :   -0.000027890   -0.000003993    0.000012994
   9   H   :    0.000056854   -0.000018508   -0.000000035
  10   H   :    0.000009645    0.000009208    0.000022869
  11   H   :    0.000004751   -0.000012489    0.000021925
  12   H   :    0.000010145   -0.000002010   -0.000010837
  13   H   :    0.000110165   -0.000279533   -0.000154728
  14   H   :    0.000083665    0.000016180   -0.000051912
  15   H   :   -0.000087669    0.000420534    0.000189020

Difference to translation invariance:
           :   -0.0000000000    0.0000000000   -0.0000000000

Difference to rotation invariance:
           :    0.0000027955    0.0000697572   -0.0000943349

Norm of the Cartesian gradient     ...    0.0007866896
RMS gradient                       ...    0.0001172728
MAX gradient                       ...    0.0004205337

-------
TIMINGS
-------

Total SCF gradient time     ....        3.595 sec

Densities                   ....       0.000 sec  (  0.0%)
One electron gradient       ....       0.102 sec  (  2.8%)
RI-J Coulomb gradient       ....       0.564 sec  ( 15.7%)
XC gradient                 ....       2.891 sec  ( 80.4%)

Maximum memory used throughout the entire SCFGRAD-calculation: 30.6 MB

------------------------------------------------------------------------------
                              ORCA PROPERTY CALCULATIONS
------------------------------------------------------------------------------

GBWName                                 ... xtb_opt.gbw
Number of atoms                         ...     15
Number of basis functions               ...    145
Max core memory                         ...   1024 MB

Electric properties:
Dipole moment                           ... YES
Quadrupole moment                       ...  NO
Static polarizability (Dipole/Dipole)   ...  NO
Static polarizability (Dipole/Quad.)    ...  NO
Static polarizability (Quad./Quad.)     ...  NO
Static polarizability (Velocity)        ...  NO

Atomic electric properties:
Dipole moment                           ...  NO
Quadrupole moment                       ...  NO
Static polarizability                   ...  NO

Choice of electric origin               ... Center of mass
Position of electric origin             ...    -0.017517    -0.003583    -0.027383

General magnetic properties:
Magnetizability                         ...  NO

EPR properties:
g-Tensor (aka g-matrix)                 ...  NO
Zero-Field splitting spin-orbit         ...  NO
Zero-field splitting spin-spin          ...  NO
Hyperfine couplings                     ...  NO (   0 nuclei)
Quadrupole couplings                    ...  NO (   0 nuclei)
Contact density                         ...  NO (   0 nuclei)

NMR properties:
Chemical shifts                         ...  NO (   0 nuclei)
Spin-rotation constants                 ...  NO (   0 nuclei)
Spin-spin couplings                     ...  NO (   0 nuclei,    0 pairs)

Choice of magnetic origin               ... GIAO
Position of magnetic origin             ...     0.000000     0.000000     0.000000

Properties with geometric perturbations:
SCF Hessian                             ...  NO
IR spectrum                             ...  NO
VCD spectrum                            ...  NO
X-ray spectroscopy properties:
SCF XES/XAS/RIXS spectra                ...  NO


-------------
DIPOLE MOMENT
-------------

Method             : SCF
Type of density    : Electron Density
Multiplicity       :   1
Irrep              :   0
Energy             :  -196.4628512528535964 Eh
Relativity type    : 
Basis              : AO
                                X                 Y                 Z
Electronic contribution:     -2.026041972       0.040028624       0.985998088
Nuclear contribution   :      2.202648494       0.001256303      -0.919563935
                        -----------------------------------------
Total Dipole Moment    :      0.176606522       0.041284927       0.066434154
                        -----------------------------------------
Magnitude (a.u.)       :      0.193152286
Magnitude (Debye)      :      0.490954094



--------------------
Rotational spectrum 
--------------------
 
Rotational constants in cm-1:             0.243056             0.131200             0.096492 
Rotational constants in MHz :          7286.627283          3933.267921          2892.765940 

Dipole components along the rotational axes: 
x,y,z [a.u.] :     0.183280     0.008723     0.060335 
x,y,z [Debye]:     0.465860     0.022172     0.153359 

 

Dipole moment calculation done in   0.2 sec 

Maximum memory used throughout the entire PROP-calculation: 8.8 MB

--------------------------------
SUGGESTED CITATIONS FOR THIS RUN
--------------------------------

Below you find a list of papers that are relevant to this ORCA run
We neither can nor want to force you to cite these papers, but we appreciate if you do
You receive ORCA, which is the product of decades of hard work by many enthusiastic individuals, for free
The only thing we kindly ask in return is that you cite our papers,
We deeply appreciate it, if you show your appreciation for ORCA by not just citing the generic ORCA reference.

Please note that relegating all ORCA citations to the supporting information does *not* help us.
SI sections are not indexed - citations you put there will not count into any citation statistics
But we need these citations in order to attract the funding resources that allow us to do what we are doing

Therefore, if you are a happy ORCA user, please consider citing a few of the papers listed below in the main body of your paper

In addition to the list printed below, the program has created the file xtb_opt.bibtex that contains the list in bibtex format
You can import this file easily into all common literature databanks and citation aid programs


List of essential papers. We consider these as the minimum necessary citations

  1. Neese,F.
     Software update: the ORCA program system, version 5.0
     WIRES Comput. Molec. Sci., 2022 12(1)e1606
     doi.org/10.1002/wcms.1606
  2. Grimme,S.; Hansen,A.; Ehlert,S.; Mewes,J.
     r2SCAN-3c: A 'Swiss army knife' composite electronic-structure method
     J. Chem. Phys., 2021 154 064103
     doi.org/10.1063/5.0040021

List of papers to cite with high priority. The work reported in these papers was absolutely
necessary for this run to complete.
Our perspective: the developers of density functionals and basis sets usually get cited in chemistry papers
Good! But without the algorithms to do something with them, the functionals or basis sets would not do anything.
Hence, in our opinion, the algorithm design and method developments papers are equally worthy of getting cited

  1. Neese,F.
     An improvement of the resolution of the identity approximation for the formation of the Coulomb matrix
     J. Comp. Chem., 2003 24(14)1740-1747
     doi.org/10.1002/jcc.10318
  2. Neese,F.
     The SHARK Integral Generation and Digestion System
     J. Comp. Chem., 2022  1-16
     doi.org/10.1002/jcc.26942
  3. Lehtola,S.; Steigemann,C.; Oliveira,M.; Marques,M.
     Recent developments in Libxc - A comprehensive library of functionals for density functional theory
     Software X, 2018 7 
     doi.org/10.1016/j.softx.2017.11.002
  4. Caldeweyher,E.; Bannwarth,C.; Grimme,S.
     Extension of the D3 dispersion coefficient model
     J. Chem. Phys., 2017 147 034112
     doi.org/10.1063/1.4993215
  5. Caldeweyher,E.; Ehlert,S.; Hansen,A.; Neugebauer,H.; Spicher,S.; Bannwarth,C.; Grimme,S.
     A generally applicable atomic-charge dependent London dispersion correction
     J. Chem. Phys., 2019 150 154122
     doi.org/10.1063/1.5090222
  6. Caldeweyher,E.; Mewes,J.; Ehlert,S.; Grimme,S.
     Extension and evaluation of the D4 London-dispersion model for periodic systems
     Phys. Chem. Chem. Phys., 2020 22(16)8499-8512
     doi.org/10.1039/D0CP00502A
  7. Wittmann,L.; Gordiy,I.; Friede,M.; Helmich-Paris,B.; Grimme,S.; Hansen,A.; Bursch,M.
     Extension of the D3 and D4 London Dispersion Corrections to the full Actinides Series
     Phys. Chem. Chem. Phys., 2024 26(32)21379-21394
     doi.org/https://doi.org/10.1039/D4CP01514B 

List of suggested additional citations. These are papers that are important in the 'surrounding' of 
of this run, or papers that preceded the highly important papers. If you like your results we are grateful for a citation.

  1. Neese,F.
     The ORCA program system
     WIRES Comput. Molec. Sci., 2012 2(1)73-78
     doi.org/10.1002/wcms.81
  2. Neese,F.
     Software update: the ORCA program system, version 4.0
     WIRES Comput. Molec. Sci., 2018 8(1)1-6
     doi.org/10.1002/wcms.1327
  3. Neese,F.; Wennmohs,F.; Becker,U.; Riplinger,C.
     The ORCA quantum chemistry program package
     J. Chem. Phys., 2020 152 Art. No. L224108
     doi.org/10.1063/5.0004608

List of optional additional citations

  1. Neese,F.
     Approximate second-order SCF convergence for spin unrestricted wavefunctions
     Chem. Phys. Lett., 2000 325(1-3)93-98
     doi.org/10.1016/s0009-2614(00)00662-x

Timings for individual modules:

Sum of individual times          ...       10.142 sec (=   0.169 min)
Startup calculation              ...        0.730 sec (=   0.012 min)   7.2 %
SCF iterations                   ...        5.154 sec (=   0.086 min)  50.8 %
Property calculations            ...        0.228 sec (=   0.004 min)   2.2 %
SCF Gradient evaluation          ...        4.029 sec (=   0.067 min)  39.7 %
                             ****ORCA TERMINATED NORMALLY****
TOTAL RUN TIME: 0 days 0 hours 0 minutes 13 seconds 698 msec
  ------------------------------------------------------------------------
          * successful ORCA run, taking over control again...

         :::::::::::::::::::::::::::::::::::::::::::::::::::::
         ::                  ORCA SUMMARY                   ::
         :::::::::::::::::::::::::::::::::::::::::::::::::::::
         :: total energy            -196.460298268558 Eh    ::
         :: gradient norm              0.000786689632 Eh/a0 ::
         :: HOMO-LUMO gap              0.000000000000 eV    ::
         :::::::::::::::::::::::::::::::::::::::::::::::::::::

           -------------------------------------------------
          |                Property Printout                |
           -------------------------------------------------
           -------------------------------------------------
          |                Geometry Summary                 |
           -------------------------------------------------

      molecular mass/u    :       70.1330870
   center of mass at/Å    :       -0.0092708      -0.0018961      -0.0144898
  moments of inertia/u·Å² :        0.6935467E+02   0.1284844E+03   0.1746991E+03
rotational constants/cm⁻¹ :        0.2430641E+00   0.1312037E+00   0.9649525E-01

 * 13 selected distances

     #   Z          #   Z                                           value/Å
     1   6 C        2   6 C                                       1.5376031 (max)
     2   6 C        3   6 C                                       1.5261468
     4   6 C        5   6 C                                       1.3303592
     1   6 C        6   1 H                                       1.0946542
     1   6 C        7   1 H                                       1.0945582
     1   6 C        8   1 H                                       1.0952067
     2   6 C        9   1 H                                       1.1014066
     3   6 C       10   1 H                                       1.0955933
     3   6 C       11   1 H                                       1.0940790
     3   6 C       12   1 H                                       1.0942001
     4   6 C       13   1 H                                       1.0905523
     5   6 C       14   1 H                                       1.0849900
     5   6 C       15   1 H                                       1.0848669 (min)

 * 2 distinct bonds (by element types)

   Z      Z             #   av. dist./Å        max./Å        min./Å
   1 H    6 C          10     1.0930107     1.1014066     1.0848669
   6 C    6 C           3     1.4647031     1.5376031     1.3303592


optimized geometry written to: xtbopt.coord


           -------------------------------------------------
          | TOTAL ENERGY             -196.460298268558 Eh   |
          | GRADIENT NORM               0.000786689632 Eh/α |
           -------------------------------------------------

------------------------------------------------------------------------
 * finished run on 2025/04/15 at 19:44:41.412     
------------------------------------------------------------------------
 total:
 * wall-time:     0 d,  0 h,  1 min, 58.126 sec
 *  cpu-time:     0 d,  0 h,  0 min,  3.468 sec
 * ratio c/w:     0.029 speedup
 SCF:
 * wall-time:     0 d,  0 h,  0 min, 15.521 sec
 *  cpu-time:     0 d,  0 h,  0 min,  1.518 sec
 * ratio c/w:     0.098 speedup
 ANC optimizer:
 * wall-time:     0 d,  0 h,  1 min, 42.590 sec
 *  cpu-time:     0 d,  0 h,  0 min,  1.893 sec
 * ratio c/w:     0.018 speedup

