 Entering Gaussian System
 *********************************************
 Gaussian 98:
 frequency output generated by the xtb code
 *********************************************
                         Standard orientation:
 --------------------------------------------------------------------
  Center     Atomic     Atomic              Coordinates (Angstroms)
  Number     Number      Type              X           Y           Z
 --------------------------------------------------------------------
    1          6             0       -2.368719   -1.196528   -0.312186
    2          6             0       -1.057156   -0.633593    0.244054
    3          1             0       -1.111619   -0.614552    1.344973
    4          6             0       -0.788848    0.797546   -0.249652
    5          1             0       -0.821247    0.803790   -1.353178
    6          6             0        0.611597    1.229015    0.200692
    7          1             0        0.610988    1.301741    1.301173
    8          6             0        1.662445    0.198899   -0.223469
    9          1             0        1.691176    0.163680   -1.327119
   10          6             0        1.252212   -1.191557    0.299458
   11          1             0        1.260724   -1.180900    1.399786
   12          8             0       -0.043206   -1.509531   -0.186784
   13          8             0        2.103818   -2.197032   -0.081070
   14          8             0        2.921917    0.527372    0.289502
   15          8             0        0.971299    2.470533   -0.356924
   16          8             0       -1.700318    1.732959    0.269717
   17          8             0       -3.448087   -0.416903    0.160514
   18          1             0       -2.455713   -2.238269    0.015694
   19          1             0       -2.323284   -1.178168   -1.408881
   20          1             0        2.141137   -2.232539   -1.045233
   21          1             0        3.061053    1.467712    0.115844
   22          1             0        0.223933    3.065955   -0.222050
   23          1             0       -2.573388    1.314816    0.296342
   24          1             0       -4.274615   -0.821201   -0.123332
 --------------------------------------------------------------------
     1 basis functions        1 primitive gaussians
     1 alpha electrons        1 beta electrons
 
 Harmonic frequencies (cm**-1), IR intensities (km*mol⁻¹),
 Raman scattering activities (A**4/amu), Raman depolarization ratios,
 reduced masses (AMU), force constants (mDyne/A) and normal coordinates:
                      1                      2                      3
                        a                      a                      a 
 Frequencies --    54.3206                89.5626                91.7980
 Red. masses --    14.2651                12.0364                14.6713
 Frc consts  --     0.0000                 0.0000                 0.0000
 IR Inten    --     0.3872                 2.9891                 1.1837
 Raman Activ --     0.0000                 0.0000                 0.0000
 Depolar     --     0.0000                 0.0000                 0.0000
 Atom AN      X      Y      Z        X      Y      Z        X      Y      Z
   1   6    -0.05   0.04   0.07    -0.03   0.14  -0.34     0.01  -0.03   0.03
   2   6     0.02   0.03  -0.10    -0.02   0.00  -0.23     0.02  -0.02   0.02
   3   1     0.03   0.02  -0.03    -0.03  -0.04  -0.07     0.02  -0.03   0.01
   4   6     0.04  -0.01  -0.18    -0.00   0.08  -0.00    -0.06   0.02   0.10
   5   1     0.05  -0.03  -0.05    -0.02   0.08   0.00    -0.08   0.03   0.03
   6   6    -0.01   0.01  -0.03     0.03   0.03  -0.05     0.01   0.06  -0.14
   7   1    -0.04   0.01  -0.01     0.02   0.02  -0.02     0.02   0.10  -0.05
   8   6     0.05   0.02   0.11    -0.01  -0.02  -0.03     0.05   0.02   0.09
   9   1     0.08   0.03   0.03    -0.01  -0.02  -0.01     0.09   0.02   0.03
  10   6    -0.01  -0.03  -0.08    -0.09   0.04   0.05    -0.00  -0.01  -0.05
  11   1    -0.01  -0.05  -0.02    -0.11   0.05   0.01    -0.00  -0.03  -0.01
  12   8    -0.00   0.03  -0.16     0.01   0.06  -0.27     0.01   0.04  -0.11
  13   8    -0.02   0.00  -0.22    -0.00  -0.01   0.47    -0.00   0.02  -0.16
  14   8    -0.06  -0.03   0.47     0.02  -0.04  -0.11    -0.08  -0.01   0.49
  15   8     0.06   0.01   0.01     0.08  -0.00  -0.12    -0.04  -0.10  -0.59
  16   8    -0.05   0.05  -0.46     0.01  -0.04   0.26     0.05  -0.05   0.44
  17   8     0.02  -0.12   0.53    -0.01  -0.25   0.34     0.01   0.06  -0.12
  18   1     0.03  -0.01  -0.03     0.04  -0.01  -0.25    -0.01   0.00   0.04
  19   1    -0.09   0.07   0.02    -0.07   0.21  -0.10     0.02  -0.04   0.01
  20   1    -0.01   0.02  -0.06     0.11  -0.01   0.12    -0.02   0.01  -0.04
  21   1     0.01  -0.01   0.13     0.01  -0.01  -0.03     0.03  -0.02   0.08
  22   1     0.00  -0.00  -0.04     0.04   0.02  -0.01     0.01   0.00  -0.13
  23   1     0.00  -0.02  -0.05     0.01  -0.03   0.10     0.00   0.01   0.09
  24   1    -0.01  -0.03   0.18    -0.01  -0.05   0.08     0.00   0.02  -0.04
                      4                      5                      6
                        a                      a                      a 
 Frequencies --   159.9427               196.1982               228.4132
 Red. masses --    12.1416                11.1525                12.1786
 Frc consts  --     0.0000                 0.0000                 0.0000
 IR Inten    --     2.1492                10.4352                24.5299
 Raman Activ --     0.0000                 0.0000                 0.0000
 Depolar     --     0.0000                 0.0000                 0.0000
 Atom AN      X      Y      Z        X      Y      Z        X      Y      Z
   1   6    -0.10  -0.09   0.25    -0.05   0.26  -0.29    -0.00   0.01  -0.06
   2   6     0.06  -0.13  -0.11    -0.01  -0.15   0.03     0.00  -0.02  -0.08
   3   1     0.10  -0.06  -0.03    -0.08  -0.06   0.00    -0.01   0.01  -0.02
   4   6    -0.04  -0.10  -0.06     0.04  -0.16   0.06    -0.06  -0.02  -0.10
   5   1    -0.02  -0.02  -0.02     0.04  -0.06   0.02    -0.05   0.01  -0.03
   6   6    -0.06  -0.09  -0.04    -0.03  -0.04   0.05    -0.06  -0.16  -0.10
   7   1    -0.03  -0.05  -0.01     0.00   0.01   0.01    -0.03  -0.08  -0.03
   8   6     0.01  -0.01  -0.06    -0.03  -0.01   0.05     0.06  -0.05  -0.05
   9   1     0.02   0.01  -0.02    -0.02  -0.00   0.01     0.05  -0.04  -0.01
  10   6    -0.04  -0.01  -0.11     0.07  -0.04   0.07     0.10  -0.06   0.02
  11   1    -0.11   0.02  -0.03     0.06  -0.02   0.02     0.05  -0.01   0.00
  12   8     0.06  -0.00  -0.48     0.04  -0.23   0.26     0.07   0.01   0.04
  13   8     0.15   0.01   0.31     0.18   0.10  -0.10    -0.17  -0.32   0.00
  14   8    -0.04   0.02   0.03    -0.01   0.01  -0.01    -0.15   0.66   0.04
  15   8    -0.18   0.01   0.13    -0.32  -0.03  -0.10     0.15  -0.15   0.09
  16   8     0.03  -0.09   0.01    -0.01  -0.17  -0.08     0.05  -0.02   0.10
  17   8     0.15   0.44   0.03     0.17   0.35   0.18     0.12   0.10   0.06
  18   1    -0.10   0.02   0.20    -0.09   0.03  -0.24    -0.02   0.00  -0.03
  19   1    -0.06  -0.16   0.07    -0.02   0.24  -0.08    -0.02   0.02  -0.02
  20   1     0.22   0.04   0.08     0.01   0.04  -0.03    -0.25  -0.23  -0.00
  21   1    -0.03   0.02   0.05    -0.00   0.00  -0.01    -0.21   0.20   0.04
  22   1    -0.07  -0.03   0.03    -0.13  -0.06  -0.06     0.07  -0.01   0.05
  23   1    -0.00  -0.01  -0.00     0.01  -0.07   0.04     0.01   0.01   0.04
  24   1     0.00   0.16   0.04     0.01   0.26  -0.11     0.01   0.07   0.01
                      7                      8                      9
                        a                      a                      a 
 Frequencies --   235.7804               266.1100               280.6689
 Red. masses --    11.3072                 4.3969                11.0743
 Frc consts  --     0.0000                 0.0000                 0.0000
 IR Inten    --    26.0407                57.5367                13.4909
 Raman Activ --     0.0000                 0.0000                 0.0000
 Depolar     --     0.0000                 0.0000                 0.0000
 Atom AN      X      Y      Z        X      Y      Z        X      Y      Z
   1   6    -0.04   0.03   0.03     0.09  -0.04   0.11    -0.04   0.01  -0.02
   2   6     0.01   0.00  -0.02     0.05   0.03   0.08    -0.07  -0.05   0.14
   3   1     0.01   0.01  -0.01     0.05  -0.02   0.02    -0.01  -0.09   0.04
   4   6    -0.07   0.06  -0.01    -0.01   0.03   0.07     0.04  -0.06   0.23
   5   1    -0.01   0.03  -0.00     0.02  -0.01   0.02     0.06  -0.06   0.06
   6   6    -0.08   0.01   0.08     0.02   0.06   0.05     0.03  -0.11   0.22
   7   1    -0.05   0.04   0.02     0.02   0.03   0.01     0.03   0.02   0.06
   8   6    -0.18  -0.07   0.14     0.02   0.03   0.02     0.07  -0.05   0.19
   9   1    -0.10  -0.03   0.04    -0.01   0.02   0.01    -0.03  -0.02   0.05
  10   6    -0.02  -0.09   0.07    -0.02   0.02  -0.02     0.02  -0.09   0.04
  11   1    -0.02  -0.08   0.02    -0.03   0.00  -0.01    -0.05  -0.09   0.01
  12   8    -0.04  -0.09   0.01     0.02   0.14  -0.15    -0.01   0.18  -0.20
  13   8     0.23   0.19  -0.11    -0.14  -0.10   0.04    -0.07  -0.13  -0.06
  14   8    -0.17   0.12  -0.11     0.06  -0.04  -0.03     0.14   0.27  -0.12
  15   8     0.55  -0.24  -0.06     0.06   0.03  -0.03    -0.19  -0.24  -0.12
  16   8    -0.26  -0.11  -0.00    -0.22  -0.05  -0.11     0.21   0.32  -0.15
  17   8    -0.03   0.09   0.01     0.04  -0.15   0.14    -0.15  -0.12  -0.02
  18   1    -0.02   0.01   0.02     0.02  -0.02   0.03    -0.01  -0.01  -0.06
  19   1    -0.02  -0.01   0.01     0.05  -0.00   0.04     0.02   0.05  -0.00
  20   1     0.30   0.28  -0.03    -0.09  -0.08   0.01     0.29   0.24  -0.01
  21   1    -0.11   0.04  -0.02     0.05  -0.02  -0.04    -0.08   0.09   0.01
  22   1     0.24   0.07  -0.02     0.02   0.02  -0.02    -0.11  -0.11  -0.15
  23   1    -0.05  -0.07  -0.00     0.00  -0.13   0.16     0.03   0.14  -0.03
  24   1    -0.01   0.05  -0.03     0.04   0.42  -0.71    -0.02  -0.03  -0.05
                     10                     11                     12
                        a                      a                      a 
 Frequencies --   292.4753               327.1953               348.0279
 Red. masses --    10.3172                13.3788                 8.5774
 Frc consts  --     0.0000                 0.0000                 0.0000
 IR Inten    --    42.1540                 2.5748                57.7183
 Raman Activ --     0.0000                 0.0000                 0.0000
 Depolar     --     0.0000                 0.0000                 0.0000
 Atom AN      X      Y      Z        X      Y      Z        X      Y      Z
   1   6     0.12   0.07  -0.01    -0.30   0.14   0.08     0.12   0.12   0.02
   2   6     0.11  -0.01   0.04    -0.09  -0.07   0.04     0.08   0.13   0.04
   3   1     0.05  -0.06   0.01    -0.01  -0.03   0.01     0.02   0.08   0.01
   4   6     0.03   0.02   0.19     0.13  -0.15   0.03     0.05   0.04  -0.09
   5   1     0.08  -0.01   0.05     0.05  -0.06   0.01    -0.01   0.02  -0.03
   6   6    -0.00   0.13   0.25     0.15  -0.02  -0.01     0.06   0.05  -0.15
   7   1     0.02   0.11   0.06     0.06  -0.01  -0.00     0.02  -0.01  -0.04
   8   6    -0.02   0.05   0.21     0.24   0.09  -0.05     0.09  -0.02  -0.10
   9   1    -0.07   0.03   0.06     0.09   0.05  -0.01     0.06  -0.01  -0.03
  10   6    -0.01  -0.04   0.06     0.07   0.11  -0.07     0.04  -0.04  -0.04
  11   1    -0.03  -0.05   0.02     0.02   0.05  -0.02     0.02   0.00  -0.01
  12   8     0.10   0.13  -0.22     0.01   0.02  -0.03    -0.05   0.01   0.17
  13   8    -0.18  -0.17  -0.01     0.06   0.08   0.03    -0.31  -0.34  -0.01
  14   8     0.13   0.01  -0.12     0.28   0.15   0.03     0.08   0.02   0.01
  15   8     0.00  -0.02  -0.13     0.12  -0.01  -0.01    -0.07   0.23   0.04
  16   8    -0.40  -0.22  -0.11    -0.05  -0.36  -0.02    -0.18  -0.26   0.05
  17   8     0.18   0.18  -0.09    -0.59   0.04  -0.03     0.03   0.02  -0.04
  18   1     0.01   0.02  -0.01    -0.10   0.04   0.01     0.05   0.03  -0.00
  19   1     0.05   0.02  -0.01    -0.08   0.05   0.02     0.05   0.04   0.01
  20   1    -0.22  -0.15  -0.01    -0.07  -0.07   0.01     0.46   0.31   0.00
  21   1     0.08  -0.03  -0.15     0.05   0.04   0.02    -0.10   0.07   0.27
  22   1    -0.01   0.00  -0.11     0.05   0.01   0.03    -0.10  -0.02  -0.08
  23   1    -0.07  -0.11  -0.12     0.00  -0.12  -0.04    -0.00  -0.15   0.06
  24   1     0.03  -0.16   0.33    -0.11  -0.04  -0.03     0.02  -0.05   0.04
                     13                     14                     15
                        a                      a                      a 
 Frequencies --   375.9829               386.9770               401.1965
 Red. masses --     8.8788                 6.1403                 9.6011
 Frc consts  --     0.0000                 0.0000                 0.0000
 IR Inten    --    13.6426                94.5655                41.9896
 Raman Activ --     0.0000                 0.0000                 0.0000
 Depolar     --     0.0000                 0.0000                 0.0000
 Atom AN      X      Y      Z        X      Y      Z        X      Y      Z
   1   6    -0.15  -0.20  -0.03     0.05   0.14  -0.00     0.04  -0.08  -0.01
   2   6    -0.10   0.04  -0.33     0.01   0.07   0.14     0.01  -0.19   0.11
   3   1    -0.07   0.08  -0.09     0.01   0.01   0.04     0.00  -0.08   0.03
   4   6    -0.01   0.02  -0.27    -0.16   0.04   0.04     0.19  -0.18   0.11
   5   1    -0.01   0.09  -0.07    -0.06  -0.01   0.01     0.08  -0.10   0.03
   6   6    -0.04  -0.00  -0.00    -0.05  -0.13  -0.11     0.09   0.15   0.04
   7   1    -0.10   0.02  -0.00     0.03  -0.08  -0.03     0.05   0.06   0.01
   8   6     0.10  -0.01   0.29     0.09  -0.07  -0.14    -0.08   0.11  -0.02
   9   1    -0.00  -0.07   0.08     0.07  -0.01  -0.03    -0.02   0.04  -0.00
  10   6     0.00   0.01   0.27     0.17  -0.05  -0.09    -0.23   0.09  -0.05
  11   1    -0.00  -0.07   0.08     0.06   0.01  -0.03    -0.09   0.04  -0.01
  12   8     0.06   0.07   0.09     0.07   0.14   0.03    -0.13  -0.18  -0.05
  13   8    -0.19   0.02  -0.14     0.13  -0.20   0.04    -0.34   0.07   0.01
  14   8     0.28   0.06  -0.04    -0.05   0.01   0.18    -0.13   0.15   0.04
  15   8    -0.10   0.01   0.00    -0.14  -0.11  -0.02     0.06   0.15  -0.11
  16   8     0.09  -0.10   0.11    -0.22   0.11  -0.05     0.28  -0.17  -0.06
  17   8     0.05   0.04   0.06    -0.06   0.02  -0.02     0.15  -0.03   0.03
  18   1    -0.03  -0.02   0.11     0.01   0.02  -0.07    -0.01  -0.03  -0.04
  19   1    -0.13  -0.16  -0.01     0.05   0.10   0.00     0.03   0.01  -0.00
  20   1     0.03   0.20  -0.04     0.21   0.04   0.01     0.07   0.13   0.00
  21   1     0.20  -0.07  -0.35     0.23  -0.12  -0.45     0.01   0.01  -0.12
  22   1    -0.00   0.01   0.08     0.15   0.10   0.46     0.20   0.17   0.37
  23   1     0.03  -0.04   0.08    -0.06   0.04  -0.07     0.02   0.05  -0.24
  24   1    -0.02   0.10  -0.01     0.00  -0.04   0.01     0.02   0.04  -0.02
                     16                     17                     18
                        a                      a                      a 
 Frequencies --   411.1225               436.3348               477.2980
 Red. masses --    11.0146                 5.6916                11.6431
 Frc consts  --     0.0000                 0.0000                 0.0000
 IR Inten    --    59.8737                98.6060                14.3663
 Raman Activ --     0.0000                 0.0000                 0.0000
 Depolar     --     0.0000                 0.0000                 0.0000
 Atom AN      X      Y      Z        X      Y      Z        X      Y      Z
   1   6    -0.04  -0.19  -0.13    -0.01   0.06   0.05    -0.24  -0.27  -0.12
   2   6    -0.18  -0.10   0.07     0.06   0.09  -0.12    -0.14  -0.21  -0.10
   3   1    -0.11  -0.05   0.02     0.03   0.05  -0.03    -0.11  -0.10  -0.03
   4   6    -0.19  -0.09   0.08     0.01   0.10  -0.08    -0.10   0.08   0.18
   5   1    -0.06  -0.05   0.02     0.02   0.07  -0.02    -0.02   0.04   0.05
   6   6    -0.04  -0.17  -0.03    -0.03   0.06   0.05     0.03   0.23   0.06
   7   1    -0.00  -0.07  -0.01    -0.04   0.06   0.01     0.04   0.10   0.01
   8   6     0.16   0.09  -0.13    -0.03  -0.05   0.18     0.05   0.12  -0.03
   9   1     0.07   0.06  -0.03    -0.05  -0.03   0.05     0.02   0.10  -0.01
  10   6     0.02   0.28  -0.02     0.06  -0.17   0.12     0.15  -0.08  -0.15
  11   1     0.03   0.12  -0.01     0.01  -0.10   0.03     0.07   0.01  -0.04
  12   8     0.03   0.26   0.09     0.07  -0.02  -0.03     0.03  -0.25   0.11
  13   8    -0.19   0.19  -0.00     0.16  -0.10  -0.03     0.10  -0.31   0.03
  14   8     0.25  -0.15  -0.03     0.14  -0.09  -0.17     0.11   0.03   0.03
  15   8     0.08  -0.29  -0.03    -0.23   0.04  -0.20     0.15   0.30  -0.04
  16   8    -0.17   0.05  -0.04    -0.03   0.02   0.05    -0.17   0.27  -0.00
  17   8     0.27   0.06   0.03    -0.11  -0.02   0.05     0.02   0.02   0.06
  18   1    -0.05  -0.05  -0.05     0.02   0.02   0.04    -0.10  -0.06   0.01
  19   1    -0.01  -0.03  -0.04    -0.03  -0.01   0.01    -0.13  -0.11  -0.04
  20   1    -0.01   0.09   0.00    -0.08  -0.08  -0.01     0.14  -0.07   0.01
  21   1    -0.03   0.04   0.34    -0.20   0.10   0.44     0.06   0.00  -0.00
  22   1     0.12   0.02   0.16     0.15   0.15   0.47     0.01   0.07  -0.11
  23   1    -0.04   0.02  -0.01    -0.06   0.09  -0.27    -0.07   0.11  -0.11
  24   1     0.01   0.07   0.10    -0.01   0.02  -0.09    -0.05   0.10   0.02
                     19                     20                     21
                        a                      a                      a 
 Frequencies --   480.3391               530.2533               566.6414
 Red. masses --     3.0631                10.3276                12.2015
 Frc consts  --     0.0000                 0.0000                 0.0000
 IR Inten    --   323.4170                32.1124                33.1836
 Raman Activ --     0.0000                 0.0000                 0.0000
 Depolar     --     0.0000                 0.0000                 0.0000
 Atom AN      X      Y      Z        X      Y      Z        X      Y      Z
   1   6     0.03   0.05   0.02    -0.01   0.02  -0.01    -0.05   0.05   0.01
   2   6     0.01   0.04   0.02    -0.00  -0.23   0.27     0.12  -0.11  -0.03
   3   1    -0.00   0.04   0.00     0.04  -0.13   0.08     0.04  -0.03  -0.01
   4   6    -0.05   0.00  -0.07    -0.22  -0.18  -0.02    -0.03  -0.12  -0.11
   5   1    -0.04  -0.00  -0.02    -0.19  -0.18  -0.00    -0.01  -0.05  -0.03
   6   6    -0.07  -0.06  -0.06    -0.09   0.08  -0.39    -0.25   0.11   0.14
   7   1    -0.05  -0.04  -0.02    -0.09   0.01  -0.10    -0.16   0.07   0.03
   8   6     0.01  -0.01  -0.04     0.02  -0.12   0.14    -0.22   0.24   0.02
   9   1     0.01  -0.01  -0.01     0.02  -0.19   0.04    -0.13   0.16  -0.00
  10   6     0.04   0.05   0.02    -0.00  -0.10   0.28     0.28   0.19  -0.01
  11   1     0.02   0.02   0.00    -0.04  -0.11   0.08     0.14   0.09  -0.00
  12   8     0.05   0.12   0.01     0.13   0.12  -0.17     0.41   0.14   0.04
  13   8    -0.03   0.01  -0.01     0.01   0.02  -0.08    -0.16  -0.22   0.01
  14   8    -0.01  -0.04   0.02     0.09  -0.05  -0.05    -0.24  -0.20  -0.05
  15   8     0.06  -0.04   0.11     0.15   0.37   0.10     0.05  -0.09  -0.02
  16   8     0.01  -0.15   0.20     0.03   0.06  -0.02     0.24  -0.05  -0.01
  17   8     0.02  -0.03   0.11    -0.04   0.02  -0.03    -0.18   0.04  -0.00
  18   1     0.01   0.00  -0.03    -0.08  -0.03  -0.13    -0.05   0.01  -0.02
  19   1     0.01   0.04   0.00     0.07   0.13   0.00    -0.02   0.04   0.00
  20   1     0.01   0.03  -0.00    -0.10   0.06  -0.03     0.07   0.02   0.00
  21   1     0.05  -0.03  -0.07    -0.03   0.00   0.03     0.05  -0.05   0.05
  22   1    -0.11  -0.10  -0.29     0.01   0.07  -0.01     0.08   0.07  -0.03
  23   1    -0.16   0.25  -0.78    -0.01   0.06   0.07     0.05   0.03   0.11
  24   1     0.02   0.09  -0.15    -0.01  -0.03   0.03    -0.02  -0.02  -0.01
                     22                     23                     24
                        a                      a                      a 
 Frequencies --   595.6403               641.6017               902.4664
 Red. masses --    11.0584                12.9604                 6.3402
 Frc consts  --     0.0000                 0.0000                 0.0000
 IR Inten    --    10.2615                 9.7727                 1.8497
 Raman Activ --     0.0000                 0.0000                 0.0000
 Depolar     --     0.0000                 0.0000                 0.0000
 Atom AN      X      Y      Z        X      Y      Z        X      Y      Z
   1   6    -0.15  -0.15  -0.09     0.06   0.12   0.09     0.17   0.36  -0.12
   2   6    -0.07   0.01  -0.10     0.30  -0.19  -0.19    -0.06   0.09  -0.23
   3   1    -0.09  -0.05  -0.03     0.16  -0.08  -0.05    -0.22  -0.14  -0.07
   4   6     0.20   0.06   0.22    -0.03   0.11   0.09    -0.10  -0.25   0.32
   5   1     0.13   0.03   0.06    -0.02   0.09   0.03    -0.07  -0.17   0.08
   6   6     0.29  -0.03  -0.02     0.07  -0.08  -0.05    -0.14  -0.00  -0.10
   7   1     0.25  -0.04  -0.00     0.09  -0.06  -0.01    -0.01  -0.00  -0.02
   8   6    -0.06  -0.24  -0.18     0.07  -0.04  -0.10    -0.00   0.04  -0.03
   9   1    -0.02  -0.19  -0.05     0.05  -0.07  -0.02     0.02  -0.01  -0.01
  10   6     0.12   0.01   0.25    -0.03   0.13   0.16     0.04  -0.01   0.06
  11   1     0.07  -0.00   0.07    -0.02   0.08   0.05     0.01  -0.01   0.01
  12   8     0.23   0.34   0.00     0.31  -0.45  -0.03    -0.06  -0.01  -0.00
  13   8     0.00   0.02  -0.06    -0.32   0.16  -0.03     0.03  -0.03  -0.01
  14   8    -0.39  -0.07   0.03     0.03   0.01   0.03     0.04  -0.00   0.01
  15   8    -0.03   0.14  -0.03    -0.04  -0.10   0.03     0.03   0.03   0.02
  16   8    -0.05  -0.07  -0.06    -0.21   0.27   0.01     0.06  -0.05  -0.07
  17   8    -0.03   0.02   0.03    -0.17   0.02   0.00     0.01  -0.04   0.07
  18   1    -0.04  -0.02   0.06     0.00   0.04   0.02     0.24   0.20   0.38
  19   1    -0.11  -0.11  -0.03    -0.01   0.03   0.02    -0.16  -0.31  -0.04
  20   1    -0.04   0.10  -0.02    -0.08   0.17  -0.01    -0.01   0.01  -0.00
  21   1    -0.12  -0.01   0.00     0.01   0.00   0.01     0.04  -0.00   0.02
  22   1    -0.06  -0.04   0.05    -0.03  -0.05   0.01     0.04   0.06  -0.03
  23   1     0.02  -0.08  -0.06    -0.05   0.06  -0.02    -0.03   0.08   0.03
  24   1    -0.04   0.06   0.03     0.01  -0.06  -0.05     0.09  -0.11  -0.09
                     25                     26                     27
                        a                      a                      a 
 Frequencies --   969.3611              1001.8353              1024.8012
 Red. masses --     9.9486                 9.8006                11.0924
 Frc consts  --     0.0000                 0.0000                 0.0000
 IR Inten    --    59.8859                 4.1767                77.9447
 Raman Activ --     0.0000                 0.0000                 0.0000
 Depolar     --     0.0000                 0.0000                 0.0000
 Atom AN      X      Y      Z        X      Y      Z        X      Y      Z
   1   6    -0.03  -0.00   0.08     0.05   0.12   0.26    -0.04   0.14   0.08
   2   6    -0.11   0.03   0.02    -0.22  -0.10  -0.21    -0.20  -0.07   0.05
   3   1     0.02   0.02   0.01    -0.01   0.09  -0.05    -0.07  -0.04   0.01
   4   6     0.03   0.06  -0.01    -0.29  -0.21  -0.14     0.14  -0.02  -0.10
   5   1     0.05   0.04  -0.00     0.06   0.07  -0.04    -0.05  -0.02  -0.02
   6   6    -0.07   0.09   0.02     0.06  -0.06   0.41     0.29  -0.11  -0.20
   7   1     0.06  -0.06   0.01     0.10   0.05   0.09    -0.01   0.00  -0.05
   8   6     0.00   0.34  -0.38     0.13  -0.25  -0.12    -0.07   0.17   0.34
   9   1     0.00   0.08  -0.09     0.00  -0.03  -0.03    -0.10   0.04   0.08
  10   6     0.11  -0.16   0.49     0.18   0.07   0.03     0.44   0.21   0.02
  11   1    -0.03  -0.01   0.12     0.07   0.10   0.00     0.12   0.01  -0.00
  12   8    -0.22  -0.10  -0.19    -0.11   0.00  -0.04    -0.24  -0.15  -0.17
  13   8     0.13  -0.16  -0.04    -0.02   0.04   0.01    -0.07  -0.01   0.03
  14   8    -0.01   0.04   0.03    -0.01  -0.02   0.04    -0.17  -0.05  -0.09
  15   8    -0.02  -0.13   0.04     0.05   0.25  -0.13     0.05  -0.02  -0.00
  16   8     0.04  -0.03  -0.01     0.02  -0.05  -0.01    -0.13   0.10   0.07
  17   8     0.07  -0.03  -0.03     0.11  -0.01  -0.05     0.12  -0.07  -0.03
  18   1    -0.01  -0.03  -0.06    -0.01  -0.01  -0.08     0.01   0.04   0.04
  19   1     0.06   0.07   0.02     0.08   0.17   0.07     0.02   0.00   0.02
  20   1    -0.17   0.24  -0.03    -0.04   0.05  -0.00     0.00  -0.03   0.01
  21   1     0.28  -0.01   0.13    -0.14   0.01  -0.06     0.03  -0.02   0.01
  22   1     0.05   0.06  -0.05     0.02   0.07  -0.03    -0.15  -0.24   0.15
  23   1     0.02  -0.03  -0.01    -0.09   0.20   0.09     0.01  -0.06  -0.03
  24   1     0.01   0.00   0.01     0.12  -0.15  -0.09     0.06  -0.06  -0.03
                     28                     29                     30
                        a                      a                      a 
 Frequencies --  1041.0824              1072.0644              1081.8927
 Red. masses --     9.7403                 8.9675                 9.2951
 Frc consts  --     0.0000                 0.0000                 0.0000
 IR Inten    --    34.0077                 0.6469                22.3935
 Raman Activ --     0.0000                 0.0000                 0.0000
 Depolar     --     0.0000                 0.0000                 0.0000
 Atom AN      X      Y      Z        X      Y      Z        X      Y      Z
   1   6    -0.06  -0.04  -0.07    -0.05  -0.10   0.30    -0.15   0.28   0.22
   2   6     0.04   0.07   0.11     0.03   0.03  -0.40    -0.28  -0.28   0.03
   3   1     0.03  -0.05   0.03     0.11   0.06  -0.09    -0.19  -0.15   0.00
   4   6     0.14   0.22   0.14    -0.06  -0.00   0.41     0.29   0.16  -0.09
   5   1     0.08   0.03   0.03     0.05   0.11   0.09     0.14   0.11  -0.02
   6   6    -0.39   0.05  -0.01    -0.12  -0.02  -0.29    -0.15   0.10  -0.08
   7   1    -0.17   0.02  -0.00     0.15  -0.04  -0.06    -0.13  -0.01  -0.02
   8   6     0.05  -0.31  -0.04    -0.16   0.10   0.14     0.06  -0.04  -0.03
   9   1     0.08  -0.16  -0.00     0.02  -0.15   0.04     0.07  -0.08  -0.01
  10   6     0.43   0.13  -0.01     0.02   0.07  -0.05    -0.24   0.06  -0.03
  11   1     0.13   0.11  -0.01     0.05  -0.10  -0.01    -0.04   0.02  -0.01
  12   8    -0.23  -0.14  -0.15    -0.11   0.08   0.11     0.20   0.06   0.05
  13   8    -0.12   0.11   0.05    -0.00  -0.00  -0.01     0.08  -0.08  -0.05
  14   8     0.11  -0.04   0.05     0.06   0.01  -0.01     0.01  -0.01  -0.00
  15   8    -0.07   0.01   0.03     0.00  -0.05   0.07    -0.07  -0.09   0.05
  16   8     0.10  -0.04  -0.03     0.11  -0.10  -0.12    -0.06   0.09   0.06
  17   8     0.01  -0.03  -0.01     0.06   0.02  -0.09     0.23  -0.12  -0.07
  18   1     0.02  -0.00   0.01     0.01  -0.12  -0.22    -0.13   0.07   0.05
  19   1     0.01  -0.04  -0.02    -0.03   0.28   0.07    -0.05   0.05   0.05
  20   1    -0.04   0.04   0.01     0.10  -0.15   0.01     0.05  -0.05  -0.01
  21   1    -0.17   0.01  -0.08     0.09  -0.00   0.04    -0.04   0.00  -0.02
  22   1     0.12   0.20  -0.11     0.02   0.02  -0.02     0.08   0.11  -0.07
  23   1     0.09  -0.15  -0.06     0.02  -0.01  -0.01     0.06  -0.14  -0.04
  24   1    -0.07   0.09   0.06     0.05  -0.06  -0.04     0.19  -0.22  -0.12
                     31                     32                     33
                        a                      a                      a 
 Frequencies --  1102.8651              1108.3926              1116.3425
 Red. masses --    11.2024                12.2503                10.9510
 Frc consts  --     0.0000                 0.0000                 0.0000
 IR Inten    --   202.6832               162.1771               141.1130
 Raman Activ --     0.0000                 0.0000                 0.0000
 Depolar     --     0.0000                 0.0000                 0.0000
 Atom AN      X      Y      Z        X      Y      Z        X      Y      Z
   1   6     0.55  -0.23  -0.03     0.12  -0.05   0.05     0.14  -0.09  -0.02
   2   6    -0.07  -0.32  -0.07    -0.47   0.27   0.15    -0.06   0.01  -0.01
   3   1    -0.24  -0.16  -0.03    -0.21   0.03   0.02    -0.05   0.02  -0.01
   4   6     0.08   0.13  -0.06    -0.22   0.27   0.09    -0.06  -0.09  -0.10
   5   1     0.08   0.13  -0.02    -0.06   0.05   0.01    -0.07  -0.08  -0.02
   6   6    -0.06  -0.12  -0.01     0.02  -0.09  -0.02     0.19   0.64  -0.05
   7   1    -0.04  -0.05  -0.00     0.10  -0.04  -0.00     0.10   0.14   0.00
   8   6     0.01   0.04   0.00    -0.09   0.00   0.07     0.03  -0.09  -0.01
   9   1     0.00   0.01   0.00    -0.03   0.01   0.02     0.07  -0.30   0.01
  10   6     0.03  -0.00   0.02    -0.06   0.07  -0.04     0.00   0.23   0.01
  11   1     0.00  -0.03   0.00    -0.04   0.05  -0.01    -0.01   0.06  -0.00
  12   8    -0.18   0.12   0.03     0.41  -0.31  -0.16    -0.05  -0.05  -0.05
  13   8     0.02  -0.00  -0.00    -0.01  -0.04  -0.01     0.08  -0.11  -0.06
  14   8    -0.01  -0.00  -0.01     0.05   0.01   0.01    -0.01  -0.02   0.01
  15   8     0.01   0.07  -0.04     0.02   0.04  -0.02    -0.12  -0.38   0.20
  16   8    -0.00   0.04   0.01     0.18  -0.19  -0.11    -0.02  -0.02   0.01
  17   8    -0.34   0.32   0.18    -0.04   0.06   0.02    -0.09   0.09   0.05
  18   1     0.06  -0.05  -0.04     0.14  -0.03  -0.03     0.06  -0.03  -0.02
  19   1     0.11  -0.00   0.00     0.10   0.05   0.02     0.03   0.01  -0.00
  20   1     0.01  -0.03   0.00    -0.02   0.03  -0.00     0.04  -0.05  -0.01
  21   1     0.03  -0.00   0.01     0.00   0.00   0.00    -0.10   0.01  -0.03
  22   1     0.00   0.02  -0.01    -0.02  -0.03   0.01     0.02  -0.01  -0.01
  23   1     0.05  -0.11  -0.04     0.05  -0.07  -0.02    -0.06   0.12   0.05
  24   1     0.07  -0.14  -0.08    -0.03   0.05   0.03    -0.00  -0.01  -0.01
                     34                     35                     36
                        a                      a                      a 
 Frequencies --  1118.9504              1136.9160              1146.6729
 Red. masses --     9.4944                 6.4047                 9.7944
 Frc consts  --     0.0000                 0.0000                 0.0000
 IR Inten    --    14.5233               106.0937                81.2719
 Raman Activ --     0.0000                 0.0000                 0.0000
 Depolar     --     0.0000                 0.0000                 0.0000
 Atom AN      X      Y      Z        X      Y      Z        X      Y      Z
   1   6     0.06  -0.13   0.09    -0.04   0.02   0.03     0.04  -0.08   0.12
   2   6    -0.09   0.21  -0.11     0.16  -0.10  -0.08    -0.10   0.10  -0.08
   3   1    -0.00   0.11  -0.03     0.07  -0.17  -0.01    -0.12   0.02  -0.03
   4   6     0.23  -0.27   0.13    -0.17   0.27   0.12     0.27  -0.24  -0.02
   5   1     0.05  -0.10   0.04    -0.21   0.02   0.03     0.01  -0.15   0.00
   6   6    -0.10  -0.10  -0.05     0.10   0.01  -0.05     0.02   0.07  -0.08
   7   1    -0.23   0.07  -0.02    -0.13   0.14  -0.02    -0.16   0.09  -0.03
   8   6     0.42   0.05   0.13    -0.03  -0.12   0.04    -0.43  -0.19  -0.19
   9   1     0.12   0.11   0.02    -0.05   0.28   0.00    -0.17   0.20  -0.05
  10   6    -0.13   0.12   0.03    -0.11   0.14   0.06     0.03  -0.17  -0.00
  11   1    -0.16   0.14   0.01    -0.08   0.40   0.01     0.13   0.14  -0.00
  12   8     0.06  -0.08  -0.01    -0.15   0.09   0.07     0.10   0.03  -0.05
  13   8     0.13  -0.15  -0.04     0.21  -0.23  -0.06    -0.05   0.06   0.04
  14   8    -0.27  -0.09  -0.14     0.07  -0.02   0.03     0.33   0.08   0.18
  15   8    -0.00   0.06   0.00     0.03  -0.02   0.00     0.03  -0.02   0.02
  16   8    -0.13   0.15   0.08     0.14  -0.13  -0.12    -0.15   0.15   0.11
  17   8    -0.05   0.06  -0.03     0.03  -0.02  -0.01    -0.02   0.06  -0.04
  18   1     0.19  -0.08  -0.11    -0.06   0.00  -0.01     0.19  -0.07  -0.09
  19   1     0.01   0.13   0.02    -0.08   0.01   0.00    -0.09   0.13   0.03
  20   1    -0.09   0.13  -0.02    -0.16   0.23  -0.03    -0.05   0.06   0.00
  21   1    -0.11  -0.02  -0.06    -0.20   0.01  -0.10    -0.06   0.02  -0.04
  22   1     0.05   0.08  -0.04    -0.12  -0.18   0.11    -0.06  -0.10   0.06
  23   1    -0.00  -0.03  -0.01     0.05  -0.07  -0.04    -0.01  -0.02  -0.01
  24   1    -0.08   0.11   0.06     0.05  -0.06  -0.04    -0.01   0.02   0.00
                     37                     38                     39
                        a                      a                      a 
 Frequencies --  1159.5365              1190.3325              1207.1611
 Red. masses --     8.7318                 4.2269                 3.4481
 Frc consts  --     0.0000                 0.0000                 0.0000
 IR Inten    --    82.1985                14.3853                 8.5851
 Raman Activ --     0.0000                 0.0000                 0.0000
 Depolar     --     0.0000                 0.0000                 0.0000
 Atom AN      X      Y      Z        X      Y      Z        X      Y      Z
   1   6    -0.02  -0.05   0.12    -0.04  -0.01   0.12    -0.06  -0.13  -0.04
   2   6    -0.00   0.04  -0.05     0.13  -0.01   0.04     0.18   0.08   0.20
   3   1    -0.13  -0.15  -0.02    -0.06  -0.29   0.01    -0.20   0.12   0.04
   4   6    -0.08   0.17   0.05    -0.02   0.11  -0.15     0.00   0.03  -0.09
   5   1    -0.24  -0.11   0.01    -0.18  -0.21  -0.03     0.18  -0.07  -0.03
   6   6     0.11   0.20   0.02     0.04  -0.11   0.23    -0.06  -0.03  -0.07
   7   1    -0.20   0.12   0.01    -0.06  -0.16   0.06     0.30  -0.16  -0.01
   8   6     0.32   0.01  -0.07    -0.01   0.02  -0.06    -0.10   0.04   0.15
   9   1     0.06   0.21  -0.03    -0.12  -0.30  -0.01     0.13   0.07   0.04
  10   6     0.14  -0.40  -0.06    -0.08   0.24   0.06     0.13  -0.03  -0.12
  11   1     0.08  -0.24  -0.01    -0.02  -0.04   0.01    -0.23   0.07  -0.03
  12   8     0.05   0.01   0.03    -0.08  -0.01   0.01     0.00  -0.03  -0.03
  13   8    -0.21   0.28   0.12     0.06  -0.09  -0.07     0.01  -0.03   0.05
  14   8    -0.19  -0.03  -0.07    -0.00   0.04   0.02     0.02  -0.03  -0.03
  15   8    -0.04  -0.12   0.05     0.01   0.09  -0.10    -0.04  -0.00   0.01
  16   8     0.08  -0.07  -0.06     0.00   0.03   0.03    -0.03  -0.03   0.03
  17   8     0.03   0.04  -0.04     0.03  -0.00  -0.13     0.03   0.11  -0.00
  18   1     0.06  -0.05  -0.09     0.40  -0.07  -0.08     0.01  -0.05  -0.06
  19   1    -0.20   0.11   0.02    -0.39   0.13   0.02    -0.46   0.06  -0.02
  20   1     0.00  -0.01   0.03     0.10  -0.13  -0.01    -0.17   0.20  -0.01
  21   1    -0.03  -0.01  -0.02     0.15  -0.00   0.08    -0.07  -0.00  -0.04
  22   1    -0.02  -0.05   0.03     0.01   0.03  -0.01     0.07   0.11  -0.07
  23   1     0.04  -0.06  -0.03     0.04  -0.09  -0.04    -0.08   0.15   0.08
  24   1     0.08  -0.10  -0.07    -0.08   0.12   0.05     0.21  -0.26  -0.17
                     40                     41                     42
                        a                      a                      a 
 Frequencies --  1217.2849              1227.5517              1240.4028
 Red. masses --     3.1716                 3.1302                 3.9439
 Frc consts  --     0.0000                 0.0000                 0.0000
 IR Inten    --    40.9416                40.6325                24.4731
 Raman Activ --     0.0000                 0.0000                 0.0000
 Depolar     --     0.0000                 0.0000                 0.0000
 Atom AN      X      Y      Z        X      Y      Z        X      Y      Z
   1   6    -0.02  -0.12  -0.09     0.01  -0.09  -0.06    -0.02  -0.10  -0.08
   2   6     0.03   0.18   0.03    -0.04   0.20  -0.09    -0.02   0.13   0.11
   3   1    -0.01   0.19   0.01     0.13   0.04  -0.02     0.17  -0.11   0.03
   4   6     0.06  -0.02   0.13     0.06  -0.05   0.01    -0.01   0.08  -0.01
   5   1    -0.04  -0.05   0.04    -0.39  -0.28   0.02     0.31  -0.06  -0.01
   6   6    -0.05  -0.05   0.08     0.16  -0.05   0.08    -0.09  -0.05  -0.03
   7   1    -0.33   0.21   0.00     0.06  -0.29   0.04    -0.07   0.10  -0.02
   8   6     0.06  -0.11  -0.12    -0.06   0.06   0.02     0.06   0.07  -0.03
   9   1    -0.23  -0.32  -0.03    -0.05   0.09   0.01     0.18   0.09  -0.00
  10   6     0.03   0.10  -0.06    -0.06   0.09   0.11    -0.23   0.07   0.25
  11   1    -0.17   0.02  -0.02     0.17  -0.02   0.03     0.51   0.03   0.06
  12   8     0.03  -0.08  -0.02    -0.01  -0.06  -0.05    -0.03  -0.08  -0.13
  13   8     0.01  -0.02  -0.02     0.02  -0.03  -0.03     0.00   0.00  -0.07
  14   8    -0.03   0.09   0.02     0.05  -0.03   0.04    -0.00  -0.04  -0.02
  15   8     0.08   0.06  -0.04    -0.10   0.02  -0.01     0.06   0.02  -0.02
  16   8    -0.00  -0.02  -0.02    -0.02   0.09   0.03    -0.01  -0.08   0.01
  17   8     0.00   0.09   0.08    -0.01   0.07   0.09     0.00   0.08   0.03
  18   1    -0.29  -0.01  -0.03    -0.30   0.00  -0.03     0.03  -0.03  -0.01
  19   1    -0.05  -0.02  -0.02     0.07  -0.03  -0.02    -0.17  -0.00  -0.03
  20   1    -0.00  -0.01  -0.01     0.08  -0.09  -0.00     0.20  -0.22   0.00
  21   1     0.33  -0.00   0.16    -0.17   0.00  -0.08    -0.13   0.00  -0.06
  22   1    -0.12  -0.18   0.12     0.17   0.27  -0.17    -0.09  -0.15   0.09
  23   1    -0.01   0.01   0.01     0.11  -0.23  -0.11    -0.10   0.20   0.10
  24   1     0.21  -0.28  -0.16     0.16  -0.22  -0.12     0.12  -0.15  -0.09
                     43                     44                     45
                        a                      a                      a 
 Frequencies --  1261.6167              1270.3881              1279.8566
 Red. masses --     3.7599                 3.3941                 3.3479
 Frc consts  --     0.0000                 0.0000                 0.0000
 IR Inten    --     7.2066                40.8876               109.2131
 Raman Activ --     0.0000                 0.0000                 0.0000
 Depolar     --     0.0000                 0.0000                 0.0000
 Atom AN      X      Y      Z        X      Y      Z        X      Y      Z
   1   6     0.02  -0.02   0.02    -0.00  -0.00   0.09    -0.01  -0.00  -0.12
   2   6    -0.13   0.13  -0.16     0.10   0.11  -0.13    -0.26  -0.06   0.02
   3   1     0.22  -0.41  -0.03    -0.23  -0.13  -0.04     0.53   0.02   0.03
   4   6    -0.00   0.11  -0.10     0.02   0.13  -0.00    -0.10  -0.07  -0.06
   5   1     0.20  -0.41  -0.04     0.15  -0.38  -0.01     0.08  -0.05  -0.02
   6   6    -0.03   0.03   0.02    -0.12   0.03   0.07    -0.14   0.03   0.03
   7   1     0.10  -0.05   0.01    -0.06  -0.11   0.02     0.19   0.20  -0.01
   8   6    -0.04  -0.08   0.15    -0.07   0.12  -0.14    -0.01   0.04  -0.09
   9   1     0.15  -0.11   0.04     0.19   0.01  -0.02     0.05   0.01  -0.02
  10   6     0.02  -0.19  -0.19     0.10   0.14   0.07     0.09   0.03  -0.02
  11   1     0.09   0.27  -0.05    -0.34  -0.31   0.02    -0.25  -0.20   0.00
  12   8     0.02   0.04   0.11     0.00  -0.03   0.05     0.04   0.02   0.11
  13   8    -0.00   0.02   0.07     0.00  -0.02  -0.03    -0.00  -0.00   0.01
  14   8    -0.08   0.07  -0.09     0.09  -0.08   0.05     0.05  -0.04   0.03
  15   8    -0.01   0.00  -0.00     0.10   0.03  -0.08     0.06  -0.00   0.01
  16   8    -0.02   0.00   0.08    -0.01  -0.02   0.05     0.03   0.13   0.07
  17   8    -0.01   0.01   0.03     0.00  -0.06  -0.00    -0.00   0.09   0.04
  18   1    -0.09   0.00  -0.01    -0.22   0.00  -0.03     0.24  -0.00   0.03
  19   1     0.19  -0.01   0.01     0.21   0.01   0.03    -0.13  -0.04  -0.03
  20   1    -0.14   0.19   0.00     0.04  -0.07  -0.00    -0.02   0.01   0.00
  21   1     0.29  -0.00   0.14    -0.28   0.00  -0.14    -0.13   0.00  -0.06
  22   1     0.01   0.01  -0.00    -0.14  -0.22   0.13    -0.08  -0.14   0.08
  23   1    -0.02   0.03   0.02    -0.04   0.07   0.04     0.18  -0.34  -0.15
  24   1     0.01  -0.01  -0.00    -0.05   0.06   0.05     0.10  -0.12  -0.08
                     46                     47                     48
                        a                      a                      a 
 Frequencies --  1286.3623              1298.4318              1334.5588
 Red. masses --     3.2074                 3.3652                 4.0689
 Frc consts  --     0.0000                 0.0000                 0.0000
 IR Inten    --    84.0746                23.9709                75.0182
 Raman Activ --     0.0000                 0.0000                 0.0000
 Depolar     --     0.0000                 0.0000                 0.0000
 Atom AN      X      Y      Z        X      Y      Z        X      Y      Z
   1   6     0.05   0.05   0.05     0.06   0.03   0.05    -0.08  -0.01  -0.03
   2   6     0.14  -0.07  -0.01     0.10  -0.01  -0.03    -0.05  -0.08   0.00
   3   1    -0.28   0.31  -0.02    -0.18   0.05  -0.02     0.07   0.09   0.01
   4   6    -0.10  -0.09  -0.01    -0.12   0.09  -0.08     0.13   0.09   0.01
   5   1    -0.12  -0.08   0.00     0.21  -0.31  -0.04    -0.17  -0.05   0.01
   6   6    -0.16   0.05   0.15    -0.07  -0.10  -0.13     0.02  -0.01   0.03
   7   1     0.18   0.10   0.03     0.34   0.40  -0.06    -0.01   0.03   0.01
   8   6    -0.07   0.02   0.05     0.19  -0.16   0.01    -0.15  -0.28   0.02
   9   1     0.45  -0.12   0.03    -0.42   0.23  -0.02     0.37   0.31   0.02
  10   6    -0.09  -0.08   0.01    -0.03   0.08   0.10     0.12   0.04   0.20
  11   1     0.23   0.20  -0.00    -0.03   0.02   0.03    -0.34   0.15   0.05
  12   8     0.00   0.00  -0.10    -0.03  -0.03  -0.04     0.00   0.01   0.01
  13   8     0.00   0.01  -0.00    -0.01   0.03  -0.06    -0.05   0.07  -0.15
  14   8    -0.04   0.01  -0.09    -0.03   0.03   0.03    -0.06   0.07  -0.10
  15   8     0.09   0.03  -0.04    -0.06  -0.04   0.12    -0.03   0.01   0.01
  16   8     0.04   0.13   0.04     0.01   0.05   0.07    -0.01  -0.05  -0.03
  17   8     0.00  -0.06  -0.04    -0.00  -0.05  -0.03     0.00   0.04   0.02
  18   1    -0.12   0.02  -0.01    -0.13   0.01  -0.02     0.15  -0.01   0.00
  19   1    -0.07   0.02   0.01    -0.03   0.01   0.01     0.09  -0.02  -0.00
  20   1     0.01   0.00  -0.00     0.12  -0.16  -0.00     0.24  -0.33  -0.01
  21   1     0.09  -0.00   0.04     0.09   0.00   0.05     0.26  -0.00   0.12
  22   1    -0.11  -0.19   0.12     0.07   0.12  -0.06     0.04   0.06  -0.03
  23   1     0.18  -0.35  -0.15     0.06  -0.11  -0.04    -0.06   0.12   0.06
  24   1    -0.04   0.05   0.04    -0.05   0.06   0.04     0.04  -0.04  -0.03
                     49                     50                     51
                        a                      a                      a 
 Frequencies --  1338.7469              1344.4210              1353.8669
 Red. masses --     4.3797                 5.4793                 4.7644
 Frc consts  --     0.0000                 0.0000                 0.0000
 IR Inten    --    11.5097                10.9941                73.3537
 Raman Activ --     0.0000                 0.0000                 0.0000
 Depolar     --     0.0000                 0.0000                 0.0000
 Atom AN      X      Y      Z        X      Y      Z        X      Y      Z
   1   6    -0.02   0.05  -0.04     0.08   0.04  -0.00    -0.17  -0.04  -0.02
   2   6    -0.09  -0.36  -0.06    -0.01  -0.09  -0.01     0.05   0.03   0.00
   3   1     0.10   0.52  -0.01     0.04   0.17   0.00    -0.06  -0.05  -0.00
   4   6     0.05   0.28   0.11    -0.30   0.05   0.07     0.06  -0.03  -0.02
   5   1     0.05  -0.39   0.02     0.38  -0.14  -0.00    -0.08   0.05  -0.00
   6   6    -0.07   0.14  -0.02     0.39  -0.09  -0.04    -0.19   0.08   0.01
   7   1    -0.06  -0.34   0.03    -0.41   0.02  -0.01     0.18  -0.16   0.02
   8   6     0.12  -0.07   0.04    -0.13   0.20  -0.02     0.19   0.23   0.03
   9   1    -0.18   0.04  -0.00     0.08  -0.16   0.00    -0.28  -0.19   0.00
  10   6    -0.06   0.02  -0.05     0.08  -0.17   0.05     0.06  -0.32   0.08
  11   1     0.15  -0.05  -0.01    -0.15   0.25   0.01    -0.16   0.49   0.02
  12   8    -0.00   0.04  -0.02     0.01   0.01   0.00     0.01   0.02  -0.00
  13   8     0.02  -0.02   0.04    -0.04   0.05  -0.06    -0.08   0.11  -0.11
  14   8    -0.02   0.01   0.00     0.02  -0.03   0.02     0.02  -0.06   0.05
  15   8     0.03  -0.00  -0.06    -0.08  -0.02   0.03     0.06   0.00  -0.04
  16   8     0.01  -0.05   0.00     0.03   0.03   0.04     0.00   0.00  -0.00
  17   8    -0.01   0.02   0.01    -0.00  -0.03  -0.02     0.01   0.05   0.04
  18   1     0.20   0.00   0.02    -0.03   0.02   0.02     0.15  -0.02  -0.00
  19   1     0.04  -0.04  -0.01    -0.12   0.00  -0.01     0.19  -0.01   0.00
  20   1    -0.06   0.08   0.00     0.10  -0.12  -0.00     0.17  -0.22  -0.01
  21   1     0.03  -0.00   0.02    -0.10  -0.00  -0.06    -0.19   0.00  -0.08
  22   1    -0.05  -0.08   0.05     0.10   0.17  -0.10    -0.07  -0.13   0.07
  23   1    -0.04   0.09   0.06     0.06  -0.12  -0.05     0.00  -0.00  -0.00
  24   1    -0.00   0.01  -0.00    -0.04   0.04   0.03     0.07  -0.08  -0.05
                     52                     53                     54
                        a                      a                      a 
 Frequencies --  1355.9290              1363.8449              1482.3417
 Red. masses --     4.8567                 5.3133                 1.8079
 Frc consts  --     0.0000                 0.0000                 0.0000
 IR Inten    --    12.1854                 8.6903                 1.2731
 Raman Activ --     0.0000                 0.0000                 0.0000
 Depolar     --     0.0000                 0.0000                 0.0000
 Atom AN      X      Y      Z        X      Y      Z        X      Y      Z
   1   6    -0.11  -0.00  -0.01    -0.43  -0.07  -0.05    -0.02  -0.21  -0.16
   2   6    -0.00  -0.13  -0.03     0.26   0.04   0.01     0.01  -0.03  -0.01
   3   1    -0.02   0.11  -0.01    -0.23  -0.04  -0.01    -0.01   0.00  -0.00
   4   6     0.20   0.20  -0.03    -0.21  -0.07  -0.01     0.00   0.02  -0.01
   5   1    -0.27  -0.19   0.00     0.20   0.02  -0.01    -0.02  -0.02  -0.00
   6   6     0.03  -0.33   0.05     0.12   0.02  -0.02    -0.00  -0.00   0.00
   7   1     0.08   0.53  -0.04    -0.10  -0.01  -0.00     0.01   0.01   0.00
   8   6    -0.10   0.26  -0.05    -0.03  -0.08  -0.00     0.00   0.00  -0.00
   9   1     0.12  -0.26   0.00     0.03   0.07  -0.00    -0.00   0.00  -0.00
  10   6    -0.01  -0.06  -0.06    -0.06   0.11  -0.02    -0.00   0.00   0.00
  11   1     0.07  -0.02  -0.02     0.10  -0.14  -0.01     0.00  -0.00   0.00
  12   8     0.00   0.03   0.01    -0.01  -0.01  -0.02    -0.01   0.00   0.00
  13   8     0.01  -0.02   0.04     0.03  -0.04   0.03     0.00  -0.00   0.00
  14   8     0.05  -0.05   0.03    -0.01   0.02  -0.01     0.00  -0.00   0.00
  15   8    -0.06  -0.01   0.08    -0.02  -0.00   0.01    -0.00  -0.00   0.00
  16   8    -0.04  -0.07  -0.03     0.02   0.07   0.03     0.00   0.00   0.00
  17   8    -0.00   0.04   0.03     0.02   0.12   0.08     0.02  -0.03  -0.02
  18   1     0.16  -0.02  -0.01     0.38  -0.06  -0.01    -0.02   0.20   0.65
  19   1     0.16  -0.03   0.00     0.45  -0.03   0.01     0.04   0.68   0.01
  20   1    -0.07   0.09   0.00    -0.06   0.07   0.00    -0.00   0.00   0.00
  21   1    -0.14   0.00  -0.07     0.06  -0.00   0.03    -0.00  -0.00  -0.00
  22   1     0.08   0.13  -0.06     0.02   0.04  -0.03     0.00   0.00  -0.00
  23   1    -0.10   0.18   0.08     0.09  -0.17  -0.07     0.00  -0.00  -0.00
  24   1     0.03  -0.03  -0.02     0.15  -0.19  -0.11    -0.00  -0.00   0.00
                     55                     56                     57
                        a                      a                      a 
 Frequencies --  2828.4054              2835.8623              2850.3403
 Red. masses --     1.6956                 1.6585                 1.7240
 Frc consts  --     0.0000                 0.0000                 0.0000
 IR Inten    --    21.8030                28.2971                10.1683
 Raman Activ --     0.0000                 0.0000                 0.0000
 Depolar     --     0.0000                 0.0000                 0.0000
 Atom AN      X      Y      Z        X      Y      Z        X      Y      Z
   1   6    -0.00  -0.00   0.00     0.00   0.00  -0.00    -0.00  -0.01   0.02
   2   6    -0.00   0.00   0.00     0.00  -0.00  -0.06     0.00   0.00  -0.22
   3   1     0.00   0.00  -0.02    -0.01   0.00   0.26    -0.04   0.01   0.84
   4   6    -0.00   0.00  -0.06     0.02  -0.01   0.22    -0.00   0.00  -0.04
   5   1     0.01  -0.00   0.24    -0.03   0.01  -0.88     0.01  -0.00   0.13
   6   6    -0.00  -0.00  -0.02     0.00  -0.01  -0.05     0.00   0.01   0.12
   7   1    -0.00   0.01   0.12     0.00   0.02   0.24     0.00  -0.03  -0.45
   8   6    -0.02   0.00   0.24    -0.01   0.00   0.05    -0.00   0.00   0.01
   9   1     0.03  -0.03  -0.92     0.01  -0.01  -0.20    -0.00  -0.00  -0.04
  10   6    -0.00   0.00  -0.01    -0.00  -0.00  -0.00    -0.00  -0.00  -0.01
  11   1     0.00  -0.00   0.08     0.00   0.00   0.03     0.01   0.00   0.03
  12   8    -0.00   0.00  -0.00     0.00  -0.00  -0.00     0.01  -0.01  -0.01
  13   8     0.00  -0.00  -0.00     0.00   0.00  -0.00     0.00  -0.00   0.00
  14   8     0.01   0.00   0.01     0.00   0.00   0.00     0.00  -0.00   0.00
  15   8     0.00   0.00  -0.00     0.00   0.00  -0.00    -0.00  -0.01   0.01
  16   8     0.00  -0.00  -0.00    -0.01   0.01   0.01    -0.00  -0.00  -0.00
  17   8     0.00  -0.00   0.00     0.00   0.00  -0.00    -0.00   0.00   0.00
  18   1     0.00   0.00   0.00     0.00  -0.01   0.00     0.00   0.03  -0.01
  19   1     0.00   0.00  -0.00    -0.00  -0.00   0.01     0.00   0.00  -0.10
  20   1     0.00  -0.00  -0.00     0.00  -0.00  -0.00    -0.00   0.00  -0.00
  21   1     0.00   0.00  -0.00     0.00   0.00  -0.00    -0.00   0.00   0.00
  22   1    -0.00   0.00   0.00     0.00   0.00   0.00    -0.00  -0.00  -0.00
  23   1     0.00   0.00  -0.00    -0.01  -0.00   0.00     0.00   0.00  -0.00
  24   1     0.00   0.00  -0.00    -0.00  -0.00   0.00    -0.00  -0.00  -0.00
                     58                     59                     60
                        a                      a                      a 
 Frequencies --  2860.2338              2889.8961              2904.6249
 Red. masses --     1.7695                 1.7337                 1.9098
 Frc consts  --     0.0000                 0.0000                 0.0000
 IR Inten    --   138.7812                62.2102                76.3247
 Raman Activ --     0.0000                 0.0000                 0.0000
 Depolar     --     0.0000                 0.0000                 0.0000
 Atom AN      X      Y      Z        X      Y      Z        X      Y      Z
   1   6     0.00   0.01  -0.02    -0.00  -0.00   0.02     0.01   0.10  -0.26
   2   6    -0.00  -0.00   0.10     0.00  -0.00  -0.00    -0.00   0.00  -0.04
   3   1     0.02  -0.00  -0.39    -0.01   0.00   0.01    -0.01   0.00   0.12
   4   6     0.01  -0.00   0.09    -0.00   0.00  -0.01    -0.00   0.00  -0.01
   5   1    -0.01   0.00  -0.28     0.00  -0.00   0.03     0.00  -0.00   0.05
   6   6     0.00   0.03   0.21    -0.00  -0.00  -0.03    -0.00  -0.00  -0.01
   7   1    -0.00  -0.06  -0.80    -0.00   0.01   0.10     0.00   0.00   0.03
   8   6    -0.00   0.00   0.05     0.00   0.00  -0.04     0.00   0.00  -0.01
   9   1     0.01  -0.00  -0.16    -0.00   0.00   0.10    -0.00   0.00   0.02
  10   6     0.00   0.00  -0.03     0.00   0.00  -0.25     0.00   0.00  -0.02
  11   1    -0.00   0.00   0.12     0.01   0.01   0.95     0.00   0.00   0.06
  12   8    -0.00   0.00   0.00    -0.01  -0.00  -0.01     0.00  -0.00  -0.00
  13   8     0.00  -0.00  -0.00     0.00  -0.00  -0.00     0.00  -0.00  -0.00
  14   8     0.00  -0.00   0.00    -0.00  -0.00   0.00    -0.00  -0.00   0.00
  15   8    -0.00  -0.01   0.01     0.00   0.00  -0.00     0.00   0.00   0.00
  16   8    -0.00   0.00   0.00     0.00  -0.00   0.00     0.00  -0.00   0.00
  17   8     0.00  -0.00  -0.00    -0.00   0.00   0.00     0.01  -0.00  -0.01
  18   1    -0.00  -0.03   0.00     0.00   0.01  -0.00    -0.03  -0.34   0.07
  19   1    -0.00  -0.00   0.08     0.00   0.00  -0.07    -0.03  -0.01   0.88
  20   1     0.00  -0.00  -0.00    -0.00   0.00  -0.01    -0.00   0.00  -0.00
  21   1    -0.00   0.00   0.00     0.00   0.00  -0.00    -0.00   0.00  -0.00
  22   1     0.00  -0.00   0.00    -0.00  -0.00  -0.00    -0.00   0.00  -0.00
  23   1    -0.00  -0.00   0.00     0.00  -0.00  -0.00    -0.00  -0.00  -0.00
  24   1     0.00  -0.00   0.00    -0.00   0.00  -0.00     0.00  -0.00   0.00
                     61                     62                     63
                        a                      a                      a 
 Frequencies --  2937.4401              3455.5992              3507.7852
 Red. masses --     1.5320                 1.8771                 1.8718
 Frc consts  --     0.0000                 0.0000                 0.0000
 IR Inten    --    37.0884               150.9547                35.3307
 Raman Activ --     0.0000                 0.0000                 0.0000
 Depolar     --     0.0000                 0.0000                 0.0000
 Atom AN      X      Y      Z        X      Y      Z        X      Y      Z
   1   6    -0.02  -0.22  -0.02     0.00  -0.00  -0.00     0.00  -0.00   0.00
   2   6    -0.00  -0.01  -0.00     0.00   0.00   0.00     0.00  -0.00  -0.00
   3   1     0.00   0.00   0.01    -0.00   0.00  -0.00     0.00   0.00   0.00
   4   6     0.00   0.00  -0.00    -0.01   0.00   0.00     0.00   0.00   0.00
   5   1     0.00   0.00   0.00     0.00  -0.00  -0.01    -0.00  -0.00  -0.00
   6   6     0.00  -0.00  -0.00    -0.00  -0.00  -0.00    -0.00  -0.00   0.00
   7   1     0.00   0.00   0.00     0.00   0.00   0.00     0.00   0.00  -0.00
   8   6     0.00   0.00  -0.00    -0.00   0.00   0.00     0.00   0.00   0.00
   9   1    -0.00   0.00   0.00    -0.00  -0.00  -0.00    -0.00  -0.00  -0.00
  10   6    -0.00  -0.00  -0.00    -0.00   0.00  -0.00     0.00   0.00  -0.00
  11   1     0.00   0.00   0.01    -0.00   0.00   0.00    -0.00  -0.00   0.00
  12   8    -0.00   0.00  -0.00    -0.00  -0.00  -0.00    -0.00   0.00   0.00
  13   8     0.00   0.00   0.00     0.00  -0.00   0.00     0.00  -0.00  -0.01
  14   8    -0.00   0.00  -0.00     0.00   0.00   0.00     0.03   0.23  -0.04
  15   8    -0.00  -0.00  -0.00    -0.00   0.00   0.00    -0.00   0.00   0.00
  16   8     0.00   0.00   0.00    -0.22  -0.11   0.01     0.00   0.00  -0.00
  17   8     0.01  -0.01  -0.00    -0.01  -0.00  -0.00     0.00   0.00   0.00
  18   1     0.07   0.85  -0.30    -0.00   0.00  -0.00    -0.00  -0.00   0.00
  19   1    -0.02  -0.05   0.37    -0.00   0.00   0.00     0.00  -0.00  -0.00
  20   1    -0.00  -0.00  -0.00     0.00   0.00  -0.00    -0.00   0.00   0.03
  21   1     0.00  -0.00  -0.00    -0.00  -0.00   0.00    -0.15  -0.94   0.17
  22   1     0.00   0.00  -0.00     0.01  -0.01  -0.00     0.02  -0.02  -0.00
  23   1    -0.00   0.00   0.00     0.88   0.41  -0.03    -0.00  -0.00   0.00
  24   1    -0.00   0.00  -0.00     0.03   0.02   0.01    -0.00  -0.00  -0.00
                     64                     65                     66
                        a                      a                      a 
 Frequencies --  3517.6562              3530.5519              3556.9456
 Red. masses --     1.8639                 1.8738                 1.8754
 Frc consts  --     0.0000                 0.0000                 0.0000
 IR Inten    --    14.5492                33.0936                14.7655
 Raman Activ --     0.0000                 0.0000                 0.0000
 Depolar     --     0.0000                 0.0000                 0.0000
 Atom AN      X      Y      Z        X      Y      Z        X      Y      Z
   1   6    -0.00  -0.00  -0.00     0.00  -0.00  -0.00    -0.00  -0.00  -0.00
   2   6     0.00  -0.00   0.00    -0.00   0.00  -0.00    -0.00   0.00  -0.00
   3   1     0.00  -0.00  -0.00     0.00  -0.00   0.00     0.00   0.00   0.00
   4   6    -0.00   0.00  -0.00     0.00  -0.00  -0.00     0.00  -0.00  -0.00
   5   1    -0.00   0.00   0.00    -0.00   0.00   0.00    -0.00   0.00  -0.00
   6   6    -0.00  -0.00   0.00    -0.00   0.01  -0.00    -0.00  -0.00  -0.00
   7   1     0.00  -0.00  -0.00    -0.00  -0.00   0.00     0.00   0.00   0.00
   8   6     0.00   0.00  -0.00    -0.00   0.00  -0.00    -0.00  -0.00   0.00
   9   1    -0.00   0.00   0.00     0.00  -0.00  -0.00    -0.00   0.00  -0.00
  10   6    -0.00   0.00   0.01    -0.00   0.00  -0.00    -0.00   0.00  -0.00
  11   1    -0.00   0.00  -0.00     0.00   0.00  -0.00     0.00  -0.00   0.00
  12   8     0.00  -0.00  -0.00    -0.00  -0.00  -0.00    -0.00   0.00  -0.00
  13   8    -0.01   0.01   0.24     0.00  -0.00  -0.00    -0.00   0.00  -0.00
  14   8     0.00   0.01  -0.00    -0.00  -0.01   0.00     0.00   0.00  -0.00
  15   8    -0.00   0.00   0.00    -0.19   0.15   0.03    -0.00   0.00   0.00
  16   8     0.00   0.00  -0.00     0.00   0.00  -0.00     0.01   0.00  -0.00
  17   8    -0.00  -0.00  -0.00     0.00   0.00   0.00    -0.21  -0.10  -0.07
  18   1    -0.00  -0.00   0.00    -0.00  -0.00  -0.00     0.00   0.00   0.00
  19   1    -0.00   0.00  -0.00    -0.00   0.00   0.00     0.00   0.00  -0.00
  20   1     0.04  -0.04  -0.97    -0.00   0.00   0.00    -0.00   0.00   0.00
  21   1    -0.00  -0.03   0.00     0.01   0.03  -0.00    -0.00  -0.00   0.00
  22   1     0.00  -0.00  -0.00     0.74  -0.61  -0.13     0.00  -0.00  -0.00
  23   1    -0.00  -0.00   0.00    -0.01  -0.01   0.00    -0.04  -0.02   0.00
  24   1     0.00   0.00   0.00    -0.00  -0.00  -0.00     0.83   0.41   0.28
