      -----------------------------------------------------------      
     |                   =====================                   |     
     |                           x T B                           |     
     |                   =====================                   |     
     |                         S. Grimme                         |     
     |          Mulliken Center for Theoretical Chemistry        |     
     |                    University of Bonn                     |     
      -----------------------------------------------------------      

   * xtb version 6.7.1 (edcfbbe) compiled by 'albert@albert-system' on 2024-07-22

   xtb is free software: you can redistribute it and/or modify it under
   the terms of the GNU Lesser General Public License as published by
   the Free Software Foundation, either version 3 of the License, or
   (at your option) any later version.
   
   xtb is distributed in the hope that it will be useful,
   but WITHOUT ANY WARRANTY; without even the implied warranty of
   MERCHANTABILITY or FITNESS FOR A PARTICULAR PURPOSE.  See the
   GNU Lesser General Public License for more details.
   
   Cite this work as:
   * C. Bannwarth, E. Caldeweyher, S. Ehlert, A. Hansen, P. Pracht,
     J. Seibert, S. Spicher, S. Grimme, WIREs Comput. Mol. Sci., 2020, 11,
     e01493. DOI: 10.1002/wcms.1493
   
   for GFN2-xTB:
   * C. Bannwarth, S. Ehlert and S. Grimme., J. Chem. Theory Comput., 2019,
     15, 1652-1671. DOI: 10.1021/acs.jctc.8b01176
   for GFN1-xTB:
   * S. Grimme, C. Bannwarth, P. Shushkov, J. Chem. Theory Comput., 2017,
     13, 1989-2009. DOI: 10.1021/acs.jctc.7b00118
   for GFN0-xTB:
   * P. Pracht, E. Caldeweyher, S. Ehlert, S. Grimme, ChemRxiv, 2019, preprint.
     DOI: 10.26434/chemrxiv.8326202.v1
   for GFN-FF:
   * S. Spicher and S. Grimme, Angew. Chem. Int. Ed., 2020, 59, 15665-15673.
     DOI: 10.1002/anie.202004239
   
   for ALPB and GBSA implicit solvation:
   * S. Ehlert, M. Stahn, S. Spicher, S. Grimme, J. Chem. Theory Comput.,
     2021, 17, 4250-4261. DOI: 10.1021/acs.jctc.1c00471
   
   for ddCOSMO and CPCM-X implicit solvation:
   * M. Stahn, S. Ehlert, S. Grimme, J. Phys. Chem. A,
     2023, XX, XXXX-XXXX. DOI: 10.1021/acs.jpca.3c04382
   
   for DFT-D4:
   * E. Caldeweyher, C. Bannwarth and S. Grimme, J. Chem. Phys., 2017,
     147, 034112. DOI: 10.1063/1.4993215
   * E. Caldeweyher, S. Ehlert, A. Hansen, H. Neugebauer, S. Spicher,
     C. Bannwarth and S. Grimme, J. Chem. Phys., 2019, 150, 154122.
     DOI: 10.1063/1.5090222
   * E. Caldeweyher, J.-M. Mewes, S. Ehlert and S. Grimme, Phys. Chem. Chem. Phys.
     2020, 22, 8499-8512. DOI: 10.1039/D0CP00502A
   
   for sTDA-xTB:
   * S. Grimme and C. Bannwarth, J. Chem. Phys., 2016, 145, 054103.
     DOI: 10.1063/1.4959605
   
   in the mass-spec context:
   * V. Asgeirsson, C. Bauer and S. Grimme, Chem. Sci., 2017, 8, 4879.
     DOI: 10.1039/c7sc00601b
   * J. Koopman and S. Grimme, ACS Omega 2019, 4, 12, 15120-15133.
     DOI: 10.1021/acsomega.9b02011
   
   for metadynamics refer to:
   * S. Grimme, J. Chem. Theory Comput., 2019, 155, 2847-2862
     DOI: 10.1021/acs.jctc.9b00143
   
   for SPH calculations refer to:
   * S. Spicher and S. Grimme, J. Chem. Theory Comput., 2021, 17, 1701-1714
     DOI: 10.1021/acs.jctc.0c01306
   
   for ONIOM refer to:
   * C. Plett, A. Katbashev, S. Ehlert, S. Grimme, M. Bursch,
     Phys. Chem. Chem. Phys., 2023, 25, 17860-17868. DOI: 10.1039/D3CP02178E
   
   for DIPRO refer to:
   * J. Kohn, N. Gildemeister, S. Grimme, D. Fazzi, A. Hansen,
     J. Chem. Phys., 2023, just accepted.
   
   for PTB refer to:
   * S. Grimme, M. Mueller, A. Hansen, J. Chem. Phys., 2023, 158, 124111.
     DOI: 10.1063/5.0137838
   
   with help from (in alphabetical order)
   P. Atkinson, C. Bannwarth, F. Bohle, G. Brandenburg, E. Caldeweyher
   M. Checinski, S. Dohm, S. Ehlert, S. Ehrlich, I. Gerasimov, C. Hölzer
   A. Katbashev, J. Kohn, J. Koopman, C. Lavigne, S. Lehtola, F. März, M. Müller,
   F. Musil, H. Neugebauer, J. Pisarek, C. Plett, P. Pracht, F. Pultar,
   J. Seibert, P. Shushkov, S. Spicher, M. Stahn, M. Steiner, T. Strunk,
   J. Stückrath, T. Rose, and J. Unsleber
   
 * started run on 2025/04/15 at 19:37:48.208     
   ID    Z sym.   atoms
    1    6 C      1-6, 8, 10-12
    2    7 N      7, 13, 14
    3    8 O      9
    4   17 Cl     15
    5    1 H      16-23

           -------------------------------------------------
          |                Calculation Setup                |
           -------------------------------------------------

          program call               : /software/projects/pawsey0265/mwang1/xtb/bin/xtb xtb_opt.coord --opt normal --orca -I xtb_opt-xcontrol-inp
          hostname                   : nid002794
          coordinate file            : xtb_opt.coord
          omp threads                :                     8

           -------------------------------------------------
          |                   Orca driver                   |
           -------------------------------------------------
orca executable           : /software/projects/pawsey0265/mwang1/orca_avx2/orca
orca input file           : xtb_opt.inp
orca input line           : 
orca parallel             : true
orca number of threads    : 8
                         * ORCA takes the control...
  ------------------------------------------------------------------------

                                 *****************
                                 * O   R   C   A *
                                 *****************

                                            #,                                       
                                            ###                                      
                                            ####                                     
                                            #####                                    
                                            ######                                   
                                           ########,                                 
                                     ,,################,,,,,                         
                               ,,#################################,,                 
                          ,,##########################################,,             
                       ,#########################################, ''#####,          
                    ,#############################################,,   '####,        
                  ,##################################################,,,,####,       
                ,###########''''           ''''###############################       
              ,#####''   ,,,,##########,,,,          '''####'''          '####       
            ,##' ,,,,###########################,,,                        '##       
           ' ,,###''''                  '''############,,,                           
         ,,##''                                '''############,,,,        ,,,,,,###''
      ,#''                                            '''#######################'''  
     '                                                          ''''####''''         
             ,#######,   #######,   ,#######,      ##                                
            ,#'     '#,  ##    ##  ,#'     '#,    #''#        ,####,   ,####,        
            ##       ##  ##   ,#'  ##            #'  '#       #'       #'  '#        
            ##       ##  #######   ##           ,######,      #####,   #    #        
            '#,     ,#'  ##    ##  '#,     ,#' ,#      #,     #,   #   #,  ,#        
             '#######'   ##     ##  '#######'  #'      '#     '####' # '####'        



                #########################################################
                #                        -***-                          #
                #          Department of theory and spectroscopy        #
                #                                                       #
                #                      Frank Neese                      #
                #                                                       #
                #     Directorship, Architecture, Infrastructure        #
                #                    SHARK, DRIVERS                     #
                #        Core code/Algorithms in most modules           #
                #                                                       #
                #        Max Planck Institute fuer Kohlenforschung      #
                #                Kaiser Wilhelm Platz 1                 #
                #                 D-45470 Muelheim/Ruhr                 #
                #                      Germany                          #
                #                                                       #
                #                  All rights reserved                  #
                #                        -***-                          #
                #########################################################


                         Program Version 6.0.1  -  RELEASE   -


 With contributions from (in alphabetic order):
[Max-Planck-Institut fuer Kohlenforschung]                               
  Daniel Aravena         : Magnetic Suceptibility                        
  Michael Atanasov       : Ab Initio Ligand Field Theory (pilot matlab implementation)
  Alexander A. Auer      : GIAO ZORA, VPT2 properties, NMR spectrum      
  Ute Becker             : All parallelization in ORCA, NUMFREQ, NUMCALC 
  Giovanni Bistoni       : ED, misc. LED, open-shell LED, HFLD           
  Martin Brehm           : Molecular dynamics                            
  Dmytro Bykov           : pre 5.0 version of the SCF Hessian            
  Marcos Casanova-Páez   : Triplet and SCS-CIS(D). UHF-(DLPNO)-IP/EA/STEOM-CCSD. UHF-CVS-IP/STEOM-CCSD   
  Vijay G. Chilkuri      : MRCI spin determinant printing, contributions to CSF-ICE 
  Pauline Colinet        : FMM embedding                                 
  Dipayan Datta          : RHF DLPNO-CCSD density                        
  Achintya Kumar Dutta   : EOM-CC, STEOM-CC                              
  Nicolas Foglia         : Exact transition moments, OPA infrastructure, MCD improvements    
  Dmitry Ganyushin       : Spin-Orbit,Spin-Spin,Magnetic field MRCI      
  Miquel Garcia-Rates    : C-PCM and meta-GGA Hessian, CCSD/C-PCM, Gaussian charge scheme 
  Tiago L. C. Gouveia    : GS-ROHF, GS-ROCIS                             
  Yang Guo               : DLPNO-NEVPT2, F12-NEVPT2, CIM, IAO-localization        
  Andreas Hansen         : Spin unrestricted coupled pair/coupled cluster methods 
  Ingolf Harden          : AUTO-CI MPn and infrastructure                
  Benjamin Helmich-Paris : MC-RPA, TRAH-(SCF,CASSCF), AVAS, COSX integrals, SCF dyn. polar. 
  Lee Huntington         : MR-EOM, pCC                                   
  Robert Izsak           : Overlap fitted RIJCOSX, COSX-SCS-MP3, EOM     
  Riya Kayal             : Wick's Theorem for AUTO-CI, AUTO-CI UHF-CCSDT 
  Emily Kempfer          : AUTO-CI, RHF CISDT and CCSDT                  
  Christian Kollmar      : KDIIS, OOCD, Brueckner-CCSD(T), CCSD density, CASPT2, CASPT2-K, improved NEVPT2 
  Axel Koslowski         : Symmetry handling                             
  Simone Kossmann        : meta-GGA functionals, TD-DFT gradient, OOMP2, (MP2 Hessian; deprecated post 5.0) 
  Lucas Lang             : DCDCAS                                        
  Marvin Lechner         : AUTO-CI (C++ implementation), FIC-MRCC        
  Spencer Leger          : CASSCF response                               
  Dagmar Lenk            : GEPOL surface, SMD, ORCA-2-JSON               
  Dimitrios Liakos       : Extrapolation schemes; Compound Job, initial MDCI parallelization 
  Dimitrios Manganas     : Further ROCIS development; embedding schemes. LFT, Crystal Embedding 
  Dimitrios Pantazis     : SARC Basis sets                               
  Anastasios Papadopoulos: AUTO-CI, single reference methods and gradients 
  Taras Petrenko         : pre 6.0 DFT Hessian and TD-DFT gradient, (ASA, deprecated), ECA, 1-Electron XAS/XES, NRVS 
  Peter Pinski           : DLPNO-MP2, DLPNO-MP2 Gradient                 
  Christoph Reimann      : Effective Core Potentials                     
  Marius Retegan         : Local ZFS, SOC                                
  Christoph Riplinger    : Optimizer, TS searches, QM/MM, DLPNO-CCSD(T), (RO)-DLPNO pert. Triples 
  Michael Roemelt        : Original ROCIS implementation                 
  Masaaki Saitow         : Open-shell DLPNO-CCSD energy and density      
  Barbara Sandhoefer     : DKH picture change effects                    
  Kantharuban Sivalingam : CASSCF convergence/infrastructure, NEVPT2 and variants, FIC-MRCI 
  Bernardo de Souza      : ESD, SOC TD-DFT                               
  Georgi L. Stoychev     : AutoAux, RI-MP2 NMR, DLPNO-MP2 response, X2C  
  Van Anh Tran           : RI-MP2 g-tensors                              
  Willem Van den Heuvel  : Paramagnetic NMR                              
  Zikuan Wang            : NOTCH, Electric field optimization            
  Frank Wennmohs         : Technical directorship and infrastructure     
  Hang Xu                : AUTO-CI-Response properties                   
                                                                         
[FACCTs GmbH]                                                            
  Markus Bursch, Miquel Garcia-Rates, Christoph Riplinger, Bernardo de Souza, Georgi L. Stoychev 
                                                                 
  APM, Basis sets (HGBS, AHGBS, def-TZVP (Ac-Lr), def2-XVPD (La-Lu)), CI-OPT, improved COSX, DLPNO-Multilevel,           
  DOCKER, DRACO, updates on ESD, GOAT, IRC, LR-CPCM, MBIS, meta-GGA TD-DFT gradient, ML-optimized integration grids, 
  MM, NACMEs, nearIR, NEB, NEB-TS, NL-DFT gradient (VV10), 2- and 3-layer-ONIOM, interface openCOSMO-RS, QMMM,   
  Crystal-QMMM, SF, symmetry and pop. for TD-DFT, r2SCAN hybrids, SOLVATOR                                   
                                                                         
[Other institutions]                                                     
  V. Asgeirsson          : NEB                                           
  Christoph Bannwarth    : sTDA-DFT, sTD-DFT, PBEh-3c, B97-3c, D3        
  Sebastian Ehlert       : rSCAN, r2SCAN, r2SCAN-3c, D4, dhf basis sets  
  Marvin Friede          : D4 for Fr, Ra, Ac-Lr                          
  Lars Goerigk           : TD-DFT with DH, B97 family of functionals     
  Stefan Grimme          : VdW corrections, initial TS optimization, DFT functionals, gCP, sTDA/sTD-DF 
  Waldemar Hujo          : DFT-NL                                        
  H. Jonsson             : NEB                                           
  Holger Kruse           : gCP                                           
  Marcel Mueller         : wB97X-3c, vDZP basis set                      
  Hagen Neugebauer       : wr2SCAN                                       
  Tobias Risthaus        : range-separated hybrid DFT                    
  Lukas Wittmann         : regularized MP2, r2SCAN double-hybrids, wr2SCAN        
                                                                         
We gratefully acknowledge several colleagues who have allowed us to      
interface, adapt or use parts of their codes:                            
  Ed Valeev, F. Pavosevic, A. Kumar             : LibInt (2-el integral package), F12 methods 
  Garnet Chan, S. Sharma, J. Yang, R. Olivares  : DMRG                   
  Ulf Ekstrom                                   : XCFun DFT Library      
  Mihaly Kallay                                 : mrcc  (arbitrary order and MRCC methods)
  Frank Weinhold                                : gennbo (NPA and NBO analysis)           
  Simon Mueller                                 : openCOSMO-RS                            
  Christopher J. Cramer and Donald G. Truhlar   : smd solvation model                     
  S Lehtola, MJT Oliveira, MAL Marques          : LibXC Library                           
  Liviu Ungur et al                             : ANISO software                          


 Your calculation uses the libint2 library for the computation of 2-el integrals
 For citations please refer to: http://libint.valeyev.net

 Your ORCA version has been built with support for libXC version: 6.2.2
 For citations please refer to: https://libxc.gitlab.io

 This ORCA versions uses:
   CBLAS   interface :  Fast vector & matrix operations
   LAPACKE interface :  Fast linear algebra routines
   SCALAPACK package :  Parallel linear algebra routines
   Shared memory     :  Shared parallel matrices
   BLAS/LAPACK       :  OpenBLAS 0.3.27  USE64BITINT DYNAMIC_ARCH NO_AFFINITY Zen SINGLE_THREADED
        Core in use  :  Zen
   Copyright (c) 2011-2014, The OpenBLAS Project




***************************************
The coordinates will be read from file: xtb_opt.xyz
***************************************


Your calculation utilizes the geometrical counterpoise correction gCP
Please cite in your paper:
H.Kruse, S. Grimme J.Chem.Phys., 136, (2012), 154101 
   

Your calculation utilizes the atom-pairwise dispersion correction
based on EEQ partial charges (D4)


================================================================================

----- Orbital basis set information -----
Your calculation utilizes the basis: def2-mTZVPP
   Stefan Grimme, Andreas Hansen, Sebastian Ehlert, and Jan-Michael Mewes 
   J. Chem. Phys. 154, 064103 (2021). DOI: 10.1063/5.0040021

----- AuxJ basis set information -----
Your calculation utilizes the auxiliary basis: def2/J
   F. Weigend, Phys. Chem. Chem. Phys. 8, 1057 (2006).

================================================================================
                                        WARNINGS
                       Please study these warnings very carefully!
================================================================================



WARNING: SCAN, rSCAN, or r2SCAN functional requested.
  ===> : libXC variant has now been activated.



================================================================================
                                       INPUT FILE
================================================================================
NAME = xtb_opt.inp
|  1> ! r2scan-3c def2/J RI DEFGRID2 scfconv7 ENGRAD tightSCF miniprint
|  2> * xyzfile 0 1 xtb_opt.xyz
|  3> 
|  4>                          ****END OF INPUT****
================================================================================

                     *******************************
                     * Energy+Gradient Calculation *
                     *******************************

---------------------------------
CARTESIAN COORDINATES (ANGSTROEM)
---------------------------------
  C      4.536090   -0.220977    0.040391
  C      3.983192    1.048380    0.086512
  C      2.613085    1.215004    0.081609
  C      1.764453    0.107318    0.030578
  C      2.321945   -1.166664   -0.015284
  C      3.698251   -1.319464   -0.010294
  N      0.359182    0.342738    0.026404
  C     -0.610194   -0.681357   -0.030440
  O     -0.331032   -1.864417   -0.070183
  C     -1.967270   -0.190742   -0.032111
  C     -2.299671    1.140246    0.018419
  C     -1.182442    2.026611    0.080127
  N      0.038735    1.626451    0.082090
  N     -3.573379    1.595277   -0.037514
  Cl    -3.202777   -1.400187   -0.097180
  H      5.608026   -0.349798    0.043828
  H      4.622634    1.917743    0.126506
  H      2.186717    2.203587    0.116953
  H      1.692901   -2.037805   -0.055219
  H      4.113119   -2.315592   -0.046971
  H     -1.324486    3.095514    0.127328
  H     -3.768941    2.548692    0.208450
  H     -4.308253    0.912657    0.051793

----------------------------
CARTESIAN COORDINATES (A.U.)
----------------------------
  NO LB      ZA    FRAG     MASS         X           Y           Z
   0 C     6.0000    0    12.011    8.571967   -0.417586    0.076328
   1 C     6.0000    0    12.011    7.527142    1.981151    0.163484
   2 C     6.0000    0    12.011    4.938015    2.296025    0.154219
   3 C     6.0000    0    12.011    3.334332    0.202801    0.057783
   4 C     6.0000    0    12.011    4.387841   -2.204675   -0.028883
   5 C     6.0000    0    12.011    6.988681   -2.493427   -0.019453
   6 N     7.0000    0    14.007    0.678756    0.647681    0.049895
   7 C     6.0000    0    12.011   -1.153099   -1.287579   -0.057523
   8 O     8.0000    0    15.999   -0.625559   -3.523237   -0.132628
   9 C     6.0000    0    12.011   -3.717602   -0.360451   -0.060681
  10 C     6.0000    0    12.011   -4.345748    2.154753    0.034807
  11 C     6.0000    0    12.011   -2.234492    3.829740    0.151417
  12 N     7.0000    0    14.007    0.073199    3.073546    0.155128
  13 N     7.0000    0    14.007   -6.752708    3.014636   -0.070892
  14 Cl   17.0000    0    35.453   -6.052371   -2.645971   -0.183643
  15 H     1.0000    0     1.008   10.597633   -0.661023    0.082823
  16 H     1.0000    0     1.008    8.735513    3.624010    0.239061
  17 H     1.0000    0     1.008    4.132295    4.164176    0.221009
  18 H     1.0000    0     1.008    3.199119   -3.850894   -0.104348
  19 H     1.0000    0     1.008    7.772669   -4.375836   -0.088762
  20 H     1.0000    0     1.008   -2.502915    5.849673    0.240615
  21 H     1.0000    0     1.008   -7.122267    4.816331    0.393914
  22 H     1.0000    0     1.008   -8.141419    1.724672    0.097874

------------------------------------------------------------------------------
                   ___                                                        
                  /   \      - P O W E R E D   B Y -                         
                 /     \                                                     
                 |  |  |   _    _      __       _____    __    __             
                 |  |  |  | |  | |    /  \     |  _  \  |  |  /  |          
                  \  \/   | |  | |   /    \    | | | |  |  | /  /          
                 / \  \   | |__| |  /  /\  \   | |_| |  |  |/  /          
                |  |  |   |  __  | /  /__\  \  |    /   |      \           
                |  |  |   | |  | | |   __   |  |    \   |  |\   \          
                \     /   | |  | | |  |  |  |  | |\  \  |  | \   \       
                 \___/    |_|  |_| |__|  |__|  |_| \__\ |__|  \__/        
                                                                              
                      - O R C A' S   B I G   F R I E N D -                    
                                      &                                       
                       - I N T E G R A L  F E E D E R -                       
                                                                              
 v1 FN, 2020, v2 2021, v3 2022-2024                                           
------------------------------------------------------------------------------


----------------------
SHARK INTEGRAL PACKAGE
----------------------

Number of atoms                             ...     23
Number of basis functions                   ...    353
Number of shells                            ...    165
Maximum angular momentum                    ...      2
Integral batch strategy                     ... SHARK/LIBINT Hybrid
RI-J (if used) integral strategy            ... SPLIT-RIJ (Revised 2003 algorithm where possible)
Printlevel                                  ...      1
Contraction scheme used                     ... SEGMENTED contraction
Prescreening option                         ... SCHWARTZ
   Thresh                                   ... 3.000e-11
   Tcut                                     ... 1.000e-12
   Tpresel                                  ... 1.000e-12 
Coulomb Range Separation                    ... NOT USED
Exchange Range Separation                   ... NOT USED
Multipole approximations                    ... NOT USED
Finite Nucleus Model                        ... NOT USED
CABS basis                                  ... NOT available
Auxiliary Coulomb fitting basis             ... AVAILABLE
   # of basis functions in Aux-J            ...    825
   # of shells in Aux-J                     ...    267
   Maximum angular momentum in Aux-J        ...      4
Auxiliary J/K fitting basis                 ... NOT available
Auxiliary Correlation fitting basis         ... NOT available
Auxiliary 'external' fitting basis          ... NOT available

Checking pre-screening integrals            ... done (  0.0 sec) Dimension = 165
Check shell pair data                       ... done (  0.0 sec)
Shell pair information
Shell pair cut-off parameter TPreSel        ...   1.0e-12
Total number of shell pairs                 ...     13695
Shell pairs after pre-screening             ...     10887
Total number of primitive shell pairs       ...     52053
Primitive shell pairs kept                  ...     27164
          la=0 lb=0:   3102 shell pairs
          la=1 lb=0:   3986 shell pairs
          la=1 lb=1:   1281 shell pairs
          la=2 lb=0:   1428 shell pairs
          la=2 lb=1:    914 shell pairs
          la=2 lb=2:    176 shell pairs

Calculating one electron integrals          ... done (  0.1 sec)
Calculating RI/J V-Matrix + Cholesky decomp.... done (  0.0 sec)
Calculating Nuclear repulsion               ... done (  0.0 sec) ENN=   1038.189095951781 Eh

Diagonalization of the overlap matrix:
Smallest eigenvalue                        ... 2.302e-05
Time for diagonalization                   ...    0.014 sec
Threshold for overlap eigenvalues          ... 1.000e-07
Number of eigenvalues below threshold      ... 0
Time for construction of square roots      ...    0.008 sec
Total time needed                          ...    0.023 sec

-------------------
DFT GRID GENERATION
-------------------

General Integration Accuracy     IntAcc      ... 4.388
Radial Grid Type                 RadialGrid  ... OptM3 with GC (2021)
Angular Grid (max. ang.)         AngularGrid ... 4 (Lebedev-302)
Angular grid pruning method      GridPruning ... 4 (adaptive)
Weight generation scheme         WeightScheme... mBecke (2022)
Basis function cutoff            BFCut       ... 1.0000e-11
Integration weight cutoff        WCut        ... 1.0000e-14
Partially contracted basis set               ... off
Rotationally invariant grid construction     ... off
Angular grids for H and He will be reduced by one unit
Diffuse basis detected: some atoms will have their outermost
                        angular grid increased by 1.

Total number of grid points                  ...   117203
Total number of batches                      ...     1845
Average number of points per batch           ...       63
Average number of grid points per atom       ...     5096
Initializing property integral containers    ... done (  0.0 sec)

SHARK setup successfully completed in   1.5 seconds

Maximum memory used throughout the entire STARTUP-calculation: 61.3 MB
Occupation numbers will be reassigned to an Aufbau configuration
             **** ENERGY FILE WAS UPDATED (xtb_opt.en.tmp) ****
Finished Guess after   0.1 sec
Maximum memory used throughout the entire GUESS-calculation: 31.2 MB
----------------------------------------D-I-I-S--------------------------------------------
Iteration    Energy (Eh)           Delta-E    RMSDP     MaxDP     DIISErr   Damp  Time(sec)
-------------------------------------------------------------------------------------------
               ***  Starting incremental Fock matrix formation  ***
                              *** Initializing SOSCF ***
---------------------------------------S-O-S-C-F--------------------------------------
Iteration    Energy (Eh)           Delta-E    RMSDP     MaxDP     MaxGrad    Time(sec)
--------------------------------------------------------------------------------------
    1    -1085.3873862625903257     0.00e+00  1.36e-05  4.44e-04  6.22e-05     4.6
               *** Restarting incremental Fock matrix formation ***
    2    -1085.3873856151433301     6.47e-07  2.89e-05  1.05e-03  1.79e-04     4.6
    3    -1085.3873773299526420     8.29e-06  2.24e-05  8.26e-04  5.46e-04     3.5
    4    -1085.3873870170557439    -9.69e-06  5.81e-06  1.93e-04  3.46e-05     3.4
    5    -1085.3873867616141524     2.55e-07  4.11e-06  1.37e-04  7.92e-05     3.1
    6    -1085.3873870854083634    -3.24e-07  3.27e-06  2.05e-04  1.80e-05     3.1
                  *** Gradient check signals convergence ***

               *****************************************************
               *                     SUCCESS                       *
               *           SCF CONVERGED AFTER   6 CYCLES          *
               *****************************************************

             **** ENERGY FILE WAS UPDATED (xtb_opt.en.tmp) ****

----------------
TOTAL SCF ENERGY
----------------

Total Energy       :      -1085.38738708540836 Eh          -29534.89233 eV

Components:
Nuclear Repulsion  :       1038.18909595178116 Eh           28250.56153 eV
Electronic Energy  :      -2123.57648303718952 Eh          -57785.45386 eV
One Electron Energy:      -3545.51299223777141 Eh          -96478.31338 eV
Two Electron Energy:       1421.93650920058190 Eh           38692.85952 eV

Virial components:
Potential Energy   :      -2167.41439348832500 Eh          -58978.34405 eV
Kinetic Energy     :       1082.02700640291687 Eh           29443.45172 eV
Virial Ratio       :          2.00310563476014

DFT components:
N(Alpha)           :       57.000028635533 electrons
N(Beta)            :       57.000028635533 electrons
N(Total)           :      114.000057271066 electrons
E(X)               :     -110.789612179154 Eh       
E(C)               :       -3.883521187948 Eh       
E(XC)              :     -114.673133367102 Eh       

---------------
SCF CONVERGENCE
---------------

  Last Energy change         ...    3.2379e-07  Tolerance :   1.0000e-07
  Last MAX-Density change    ...    2.0481e-04  Tolerance :   1.0000e-07
  Last RMS-Density change    ...    3.2661e-06  Tolerance :   5.0000e-09
  Last DIIS Error            ...    4.8559e-04  Tolerance :   1.0000e-07
  Last Orbital Gradient      ...    1.7998e-05  Tolerance :   1.0000e-04
  Last Orbital Rotation      ...    8.8228e-05  Tolerance :   1.0000e-04


----------------
ORBITAL ENERGIES
----------------

  NO   OCC          E(Eh)            E(eV) 
   0   2.0000    -101.232074     -2754.6648 
   1   2.0000     -18.917736      -514.7778 
   2   2.0000     -14.267484      -388.2380 
   3   2.0000     -14.216432      -386.8488 
   4   2.0000     -14.209227      -386.6527 
   5   2.0000     -10.145403      -276.0705 
   6   2.0000     -10.119163      -275.3564 
   7   2.0000     -10.104506      -274.9576 
   8   2.0000     -10.094482      -274.6848 
   9   2.0000     -10.085820      -274.4491 
  10   2.0000     -10.036385      -273.1039 
  11   2.0000     -10.034152      -273.0432 
  12   2.0000     -10.033849      -273.0349 
  13   2.0000     -10.032894      -273.0089 
  14   2.0000     -10.030183      -272.9352 
  15   2.0000      -9.387323      -255.4421 
  16   2.0000      -7.133655      -194.1166 
  17   2.0000      -7.123670      -193.8449 
  18   2.0000      -7.123054      -193.8282 
  19   2.0000      -1.049274       -28.5522 
  20   2.0000      -0.992944       -27.0194 
  21   2.0000      -0.936520       -25.4840 
  22   2.0000      -0.856706       -23.3122 
  23   2.0000      -0.842691       -22.9308 
  24   2.0000      -0.813640       -22.1403 
  25   2.0000      -0.752928       -20.4882 
  26   2.0000      -0.721308       -19.6278 
  27   2.0000      -0.717561       -19.5258 
  28   2.0000      -0.646321       -17.5873 
  29   2.0000      -0.641683       -17.4611 
  30   2.0000      -0.581237       -15.8163 
  31   2.0000      -0.580931       -15.8079 
  32   2.0000      -0.553324       -15.0567 
  33   2.0000      -0.522285       -14.2121 
  34   2.0000      -0.511996       -13.9321 
  35   2.0000      -0.482109       -13.1188 
  36   2.0000      -0.465686       -12.6720 
  37   2.0000      -0.460610       -12.5338 
  38   2.0000      -0.442312       -12.0359 
  39   2.0000      -0.421575       -11.4717 
  40   2.0000      -0.406799       -11.0696 
  41   2.0000      -0.401582       -10.9276 
  42   2.0000      -0.399554       -10.8724 
  43   2.0000      -0.387954       -10.5568 
  44   2.0000      -0.382129       -10.3983 
  45   2.0000      -0.362630        -9.8677 
  46   2.0000      -0.343552        -9.3485 
  47   2.0000      -0.334849        -9.1117 
  48   2.0000      -0.314554        -8.5595 
  49   2.0000      -0.312111        -8.4930 
  50   2.0000      -0.297468        -8.0945 
  51   2.0000      -0.279876        -7.6158 
  52   2.0000      -0.274379        -7.4662 
  53   2.0000      -0.237557        -6.4643 
  54   2.0000      -0.223781        -6.0894 
  55   2.0000      -0.217874        -5.9287 
  56   2.0000      -0.210469        -5.7272 
  57   0.0000      -0.091031        -2.4771 
  58   0.0000      -0.036781        -1.0009 
  59   0.0000      -0.027729        -0.7545 
  60   0.0000      -0.012019        -0.3271 
  61   0.0000       0.001966         0.0535 
  62   0.0000       0.049094         1.3359 
  63   0.0000       0.081688         2.2228 
  64   0.0000       0.087564         2.3827 
  65   0.0000       0.090359         2.4588 
  66   0.0000       0.096808         2.6343 
  67   0.0000       0.115084         3.1316 
*Only the first 10 virtual orbitals were printed.
Total SCF time: 0 days 0 hours 0 min 24 sec 
Finished LeanSCF after  25.9 sec

Maximum memory used throughout the entire LEANSCF-calculation: 43.8 MB


-------------------------------------------------------------------------------
                          DFT DISPERSION CORRECTION                            
                                                                               
                                DFTD4 V3.4.0                                   
-------------------------------------------------------------------------------
-------------------------   ----------------
Dispersion correction           -0.010466375
-------------------------   ----------------

------------------   -----------------
gCP correction             0.017193312
------------------   -----------------

-------------------------   --------------------
FINAL SINGLE POINT ENERGY     -1085.380660148003
-------------------------   --------------------

------------------------------------------------------------------------------
                         ORCA SCF GRADIENT CALCULATION
------------------------------------------------------------------------------

Nuc. rep. gradient        (SHARK) ... done (  0.0 sec)
HCore & Overlap gradient  (SHARK) ... done (  0.8 sec)
Split-RIJ-J gradient      (SHARK) ... done (  7.4 sec)
XC gradient                       ... done ( 13.2 sec)
Dispersion correction             ... done (  0.1 sec)

-------------------
DISPERSION GRADIENT
-------------------

   1   C   :    0.000105050   -0.000011420    0.000000438
   2   C   :    0.000110576    0.000050477    0.000002979
   3   C   :    0.000095205    0.000072894    0.000003980
   4   C   :    0.000063430   -0.000001690    0.000000967
   5   C   :    0.000072726   -0.000087503   -0.000002536
   6   C   :    0.000101425   -0.000071267   -0.000001885
   7   N   :   -0.000006604    0.000012560    0.000000996
   8   C   :   -0.000051267   -0.000067286   -0.000003224
   9   O   :   -0.000027291   -0.000124834   -0.000004923
  10   C   :   -0.000094876   -0.000033252   -0.000003227
  11   C   :   -0.000086244    0.000046914    0.000000418
  12   C   :   -0.000060246    0.000115993    0.000004468
  13   N   :   -0.000005786    0.000104509    0.000005054
  14   N   :   -0.000119116    0.000058825    0.000002416
  15   Cl  :   -0.000158444   -0.000138944   -0.000008245
  16   H   :    0.000038944   -0.000004630    0.000000117
  17   H   :    0.000035349    0.000030644    0.000001497
  18   H   :    0.000023763    0.000049140    0.000002220
  19   H   :    0.000008164   -0.000054387   -0.000001972
  20   H   :    0.000029162   -0.000038095   -0.000001276
  21   H   :   -0.000012859    0.000055758    0.000002109
  22   H   :   -0.000031022    0.000023933    0.000000758
  23   H   :   -0.000030038    0.000011661   -0.000001126

Difference to translation invariance:
           :   -0.0000000000   -0.0000000000   -0.0000000000

Difference to rotation invariance:
           :   -0.0000000000    0.0000000000   -0.0000000000

Norm of the Dispersion gradient    ...    0.0004735892
RMS gradient                       ...    0.0000570134
MAX gradient                       ...    0.0001584443
gCP correction                   ... done

------------------
CARTESIAN GRADIENT
------------------

   1   C   :   -0.004427081    0.001449565    0.000016829
   2   C   :   -0.000506865    0.000013868   -0.000022922
   3   C   :    0.000581854   -0.004997677   -0.000196025
   4   C   :   -0.008570894    0.000404050   -0.000029412
   5   C   :    0.003500064    0.008478260    0.000389382
   6   C   :   -0.002546305   -0.001450239   -0.000051813
   7   N   :    0.002614974   -0.005209073   -0.000061940
   8   C   :    0.010940418    0.002503958   -0.000000060
   9   O   :   -0.002317355    0.010524628    0.000488646
  10   C   :   -0.001218267   -0.000263279   -0.000577322
  11   C   :   -0.002933274    0.005466029    0.001216506
  12   C   :    0.010503511    0.003779072    0.000195329
  13   N   :   -0.008861050   -0.010746238   -0.001027789
  14   N   :    0.002191546   -0.002122556    0.001085598
  15   Cl  :    0.002875812    0.001092728    0.000353242
  16   H   :   -0.003907054    0.000483047   -0.000020777
  17   H   :   -0.001747674   -0.003283377   -0.000130519
  18   H   :   -0.000791242   -0.002020693   -0.000083969
  19   H   :    0.000948860    0.000535917    0.000005743
  20   H   :   -0.000919792    0.003637403    0.000117729
  21   H   :    0.001373537   -0.005895520   -0.000083947
  22   H   :    0.001200800   -0.000009466   -0.000705295
  23   H   :    0.002015476   -0.002370405   -0.000877213

Difference to translation invariance:
           :   -0.0000000000   -0.0000000000   -0.0000000000

Difference to rotation invariance:
           :   -0.0001757288    0.0001169181   -0.0004057655

Norm of the Cartesian gradient     ...    0.0311469727
RMS gradient                       ...    0.0037496549
MAX gradient                       ...    0.0109404182

-------
TIMINGS
-------

Total SCF gradient time     ....       21.487 sec

Densities                   ....       0.002 sec  (  0.0%)
One electron gradient       ....       0.790 sec  (  3.7%)
RI-J Coulomb gradient       ....       7.393 sec  ( 34.4%)
XC gradient                 ....      13.175 sec  ( 61.3%)

Maximum memory used throughout the entire SCFGRAD-calculation: 51.9 MB

------------------------------------------------------------------------------
                              ORCA PROPERTY CALCULATIONS
------------------------------------------------------------------------------

GBWName                                 ... xtb_opt.gbw
Number of atoms                         ...     23
Number of basis functions               ...    353
Max core memory                         ...   1024 MB

Electric properties:
Dipole moment                           ... YES
Quadrupole moment                       ...  NO
Static polarizability (Dipole/Dipole)   ...  NO
Static polarizability (Dipole/Quad.)    ...  NO
Static polarizability (Quad./Quad.)     ...  NO
Static polarizability (Velocity)        ...  NO

Atomic electric properties:
Dipole moment                           ...  NO
Quadrupole moment                       ...  NO
Static polarizability                   ...  NO

Choice of electric origin               ... Center of mass
Position of electric origin             ...     0.000001     0.000021     0.000001

General magnetic properties:
Magnetizability                         ...  NO

EPR properties:
g-Tensor (aka g-matrix)                 ...  NO
Zero-Field splitting spin-orbit         ...  NO
Zero-field splitting spin-spin          ...  NO
Hyperfine couplings                     ...  NO (   0 nuclei)
Quadrupole couplings                    ...  NO (   0 nuclei)
Contact density                         ...  NO (   0 nuclei)

NMR properties:
Chemical shifts                         ...  NO (   0 nuclei)
Spin-rotation constants                 ...  NO (   0 nuclei)
Spin-spin couplings                     ...  NO (   0 nuclei,    0 pairs)

Choice of magnetic origin               ... GIAO
Position of magnetic origin             ...     0.000000     0.000000     0.000000

Properties with geometric perturbations:
SCF Hessian                             ...  NO
IR spectrum                             ...  NO
VCD spectrum                            ...  NO
X-ray spectroscopy properties:
SCF XES/XAS/RIXS spectra                ...  NO


-------------
DIPOLE MOMENT
-------------

Method             : SCF
Type of density    : Electron Density
Multiplicity       :   1
Irrep              :   0
Energy             : -1085.3873870854083634 Eh
Relativity type    : 
Basis              : AO
                                X                 Y                 Z
Electronic contribution:    -13.455378174      -5.714290787      -0.438875804
Nuclear contribution   :     12.552733622       7.476930894       0.667049234
                        -----------------------------------------
Total Dipole Moment    :     -0.902644553       1.762640107       0.228173430
                        -----------------------------------------
Magnitude (a.u.)       :      1.993421794
Magnitude (Debye)      :      5.066875529



--------------------
Rotational spectrum 
--------------------
 
Rotational constants in cm-1:             0.044918             0.010691             0.008637 
Rotational constants in MHz :          1346.617087           320.518214           258.918492 

Dipole components along the rotational axes: 
x,y,z [a.u.] :    -0.885709    -1.777696     0.170429 
x,y,z [Debye]:    -2.251292    -4.518545     0.433196 

 

Dipole moment calculation done in   0.8 sec 

Maximum memory used throughout the entire PROP-calculation: 29.5 MB

--------------------------------
SUGGESTED CITATIONS FOR THIS RUN
--------------------------------

Below you find a list of papers that are relevant to this ORCA run
We neither can nor want to force you to cite these papers, but we appreciate if you do
You receive ORCA, which is the product of decades of hard work by many enthusiastic individuals, for free
The only thing we kindly ask in return is that you cite our papers,
We deeply appreciate it, if you show your appreciation for ORCA by not just citing the generic ORCA reference.

Please note that relegating all ORCA citations to the supporting information does *not* help us.
SI sections are not indexed - citations you put there will not count into any citation statistics
But we need these citations in order to attract the funding resources that allow us to do what we are doing

Therefore, if you are a happy ORCA user, please consider citing a few of the papers listed below in the main body of your paper

In addition to the list printed below, the program has created the file xtb_opt.bibtex that contains the list in bibtex format
You can import this file easily into all common literature databanks and citation aid programs


List of essential papers. We consider these as the minimum necessary citations

  1. Neese,F.
     Software update: the ORCA program system, version 5.0
     WIRES Comput. Molec. Sci., 2022 12(1)e1606
     doi.org/10.1002/wcms.1606
  2. Grimme,S.; Hansen,A.; Ehlert,S.; Mewes,J.
     r2SCAN-3c: A 'Swiss army knife' composite electronic-structure method
     J. Chem. Phys., 2021 154 064103
     doi.org/10.1063/5.0040021

List of papers to cite with high priority. The work reported in these papers was absolutely
necessary for this run to complete.
Our perspective: the developers of density functionals and basis sets usually get cited in chemistry papers
Good! But without the algorithms to do something with them, the functionals or basis sets would not do anything.
Hence, in our opinion, the algorithm design and method developments papers are equally worthy of getting cited

  1. Neese,F.
     An improvement of the resolution of the identity approximation for the formation of the Coulomb matrix
     J. Comp. Chem., 2003 24(14)1740-1747
     doi.org/10.1002/jcc.10318
  2. Neese,F.
     The SHARK Integral Generation and Digestion System
     J. Comp. Chem., 2022  1-16
     doi.org/10.1002/jcc.26942
  3. Lehtola,S.; Steigemann,C.; Oliveira,M.; Marques,M.
     Recent developments in Libxc - A comprehensive library of functionals for density functional theory
     Software X, 2018 7 
     doi.org/10.1016/j.softx.2017.11.002
  4. Caldeweyher,E.; Bannwarth,C.; Grimme,S.
     Extension of the D3 dispersion coefficient model
     J. Chem. Phys., 2017 147 034112
     doi.org/10.1063/1.4993215
  5. Caldeweyher,E.; Ehlert,S.; Hansen,A.; Neugebauer,H.; Spicher,S.; Bannwarth,C.; Grimme,S.
     A generally applicable atomic-charge dependent London dispersion correction
     J. Chem. Phys., 2019 150 154122
     doi.org/10.1063/1.5090222
  6. Caldeweyher,E.; Mewes,J.; Ehlert,S.; Grimme,S.
     Extension and evaluation of the D4 London-dispersion model for periodic systems
     Phys. Chem. Chem. Phys., 2020 22(16)8499-8512
     doi.org/10.1039/D0CP00502A
  7. Wittmann,L.; Gordiy,I.; Friede,M.; Helmich-Paris,B.; Grimme,S.; Hansen,A.; Bursch,M.
     Extension of the D3 and D4 London Dispersion Corrections to the full Actinides Series
     Phys. Chem. Chem. Phys., 2024 26(32)21379-21394
     doi.org/https://doi.org/10.1039/D4CP01514B 

List of suggested additional citations. These are papers that are important in the 'surrounding' of 
of this run, or papers that preceded the highly important papers. If you like your results we are grateful for a citation.

  1. Neese,F.
     The ORCA program system
     WIRES Comput. Molec. Sci., 2012 2(1)73-78
     doi.org/10.1002/wcms.81
  2. Neese,F.
     Software update: the ORCA program system, version 4.0
     WIRES Comput. Molec. Sci., 2018 8(1)1-6
     doi.org/10.1002/wcms.1327
  3. Neese,F.; Wennmohs,F.; Becker,U.; Riplinger,C.
     The ORCA quantum chemistry program package
     J. Chem. Phys., 2020 152 Art. No. L224108
     doi.org/10.1063/5.0004608

List of optional additional citations

  1. Neese,F.
     Approximate second-order SCF convergence for spin unrestricted wavefunctions
     Chem. Phys. Lett., 2000 325(1-3)93-98
     doi.org/10.1016/s0009-2614(00)00662-x

Timings for individual modules:

Sum of individual times          ...       51.598 sec (=   0.860 min)
Startup calculation              ...        1.575 sec (=   0.026 min)   3.1 %
SCF iterations                   ...       26.081 sec (=   0.435 min)  50.5 %
Property calculations            ...        1.169 sec (=   0.019 min)   2.3 %
SCF Gradient evaluation          ...       22.772 sec (=   0.380 min)  44.1 %
                             ****ORCA TERMINATED NORMALLY****
TOTAL RUN TIME: 0 days 0 hours 0 minutes 53 seconds 602 msec
  ------------------------------------------------------------------------
          * successful ORCA run, taking over control again...

         :::::::::::::::::::::::::::::::::::::::::::::::::::::
         ::                  ORCA SUMMARY                   ::
         :::::::::::::::::::::::::::::::::::::::::::::::::::::
         :: total energy           -1085.380660148003 Eh    ::
         :: gradient norm              0.031146972662 Eh/a0 ::
         :: HOMO-LUMO gap              0.000000000000 eV    ::
         :::::::::::::::::::::::::::::::::::::::::::::::::::::

      ----------------------------------------------------------- 
     |                       L-ANC optimizer                     |
      ----------------------------------------------------------- 
          low memory version by Sebastian Ehlert

          ...................................................
          :                      SETUP                      :
          :.................................................:
          :   energy convergence        0.5000000E-05 Eh    :
          :   grad. convergence         0.1000000E-02 Eh/a0 :
          :   optimization log               true           :
          :   writing optlog all                1     steps :
          :   Hessian reset                     8     steps :
          :   maximium step len.        1.0000000     a0    :
          :   LBFGS images                      8           :
          ...................................................
 * calculating model hessian...
Using Lindh-Hessian (1995)
 Shifting diagonal of input Hessian by   1.000000000000000E-002
 Lowest  eigenvalues of input Hessian
    0.000000    0.000000    0.000000    0.000000    0.000000    0.000000
    0.011663    0.012454    0.014558    0.017217    0.022039    0.026285
    0.027866    0.031304    0.033905    0.035371    0.036511    0.037924
 Highest eigenvalues
    1.976362    2.019140    2.064112    2.093737    2.249193    2.424649
 

........................................................................
.............................. CYCLE    1 ..............................
........................................................................
                         * ORCA takes the control...
  ------------------------------------------------------------------------

                                 *****************
                                 * O   R   C   A *
                                 *****************

                                            #,                                       
                                            ###                                      
                                            ####                                     
                                            #####                                    
                                            ######                                   
                                           ########,                                 
                                     ,,################,,,,,                         
                               ,,#################################,,                 
                          ,,##########################################,,             
                       ,#########################################, ''#####,          
                    ,#############################################,,   '####,        
                  ,##################################################,,,,####,       
                ,###########''''           ''''###############################       
              ,#####''   ,,,,##########,,,,          '''####'''          '####       
            ,##' ,,,,###########################,,,                        '##       
           ' ,,###''''                  '''############,,,                           
         ,,##''                                '''############,,,,        ,,,,,,###''
      ,#''                                            '''#######################'''  
     '                                                          ''''####''''         
             ,#######,   #######,   ,#######,      ##                                
            ,#'     '#,  ##    ##  ,#'     '#,    #''#        ,####,   ,####,        
            ##       ##  ##   ,#'  ##            #'  '#       #'       #'  '#        
            ##       ##  #######   ##           ,######,      #####,   #    #        
            '#,     ,#'  ##    ##  '#,     ,#' ,#      #,     #,   #   #,  ,#        
             '#######'   ##     ##  '#######'  #'      '#     '####' # '####'        



                #########################################################
                #                        -***-                          #
                #          Department of theory and spectroscopy        #
                #                                                       #
                #                      Frank Neese                      #
                #                                                       #
                #     Directorship, Architecture, Infrastructure        #
                #                    SHARK, DRIVERS                     #
                #        Core code/Algorithms in most modules           #
                #                                                       #
                #        Max Planck Institute fuer Kohlenforschung      #
                #                Kaiser Wilhelm Platz 1                 #
                #                 D-45470 Muelheim/Ruhr                 #
                #                      Germany                          #
                #                                                       #
                #                  All rights reserved                  #
                #                        -***-                          #
                #########################################################


                         Program Version 6.0.1  -  RELEASE   -


 With contributions from (in alphabetic order):
[Max-Planck-Institut fuer Kohlenforschung]                               
  Daniel Aravena         : Magnetic Suceptibility                        
  Michael Atanasov       : Ab Initio Ligand Field Theory (pilot matlab implementation)
  Alexander A. Auer      : GIAO ZORA, VPT2 properties, NMR spectrum      
  Ute Becker             : All parallelization in ORCA, NUMFREQ, NUMCALC 
  Giovanni Bistoni       : ED, misc. LED, open-shell LED, HFLD           
  Martin Brehm           : Molecular dynamics                            
  Dmytro Bykov           : pre 5.0 version of the SCF Hessian            
  Marcos Casanova-Páez   : Triplet and SCS-CIS(D). UHF-(DLPNO)-IP/EA/STEOM-CCSD. UHF-CVS-IP/STEOM-CCSD   
  Vijay G. Chilkuri      : MRCI spin determinant printing, contributions to CSF-ICE 
  Pauline Colinet        : FMM embedding                                 
  Dipayan Datta          : RHF DLPNO-CCSD density                        
  Achintya Kumar Dutta   : EOM-CC, STEOM-CC                              
  Nicolas Foglia         : Exact transition moments, OPA infrastructure, MCD improvements    
  Dmitry Ganyushin       : Spin-Orbit,Spin-Spin,Magnetic field MRCI      
  Miquel Garcia-Rates    : C-PCM and meta-GGA Hessian, CCSD/C-PCM, Gaussian charge scheme 
  Tiago L. C. Gouveia    : GS-ROHF, GS-ROCIS                             
  Yang Guo               : DLPNO-NEVPT2, F12-NEVPT2, CIM, IAO-localization        
  Andreas Hansen         : Spin unrestricted coupled pair/coupled cluster methods 
  Ingolf Harden          : AUTO-CI MPn and infrastructure                
  Benjamin Helmich-Paris : MC-RPA, TRAH-(SCF,CASSCF), AVAS, COSX integrals, SCF dyn. polar. 
  Lee Huntington         : MR-EOM, pCC                                   
  Robert Izsak           : Overlap fitted RIJCOSX, COSX-SCS-MP3, EOM     
  Riya Kayal             : Wick's Theorem for AUTO-CI, AUTO-CI UHF-CCSDT 
  Emily Kempfer          : AUTO-CI, RHF CISDT and CCSDT                  
  Christian Kollmar      : KDIIS, OOCD, Brueckner-CCSD(T), CCSD density, CASPT2, CASPT2-K, improved NEVPT2 
  Axel Koslowski         : Symmetry handling                             
  Simone Kossmann        : meta-GGA functionals, TD-DFT gradient, OOMP2, (MP2 Hessian; deprecated post 5.0) 
  Lucas Lang             : DCDCAS                                        
  Marvin Lechner         : AUTO-CI (C++ implementation), FIC-MRCC        
  Spencer Leger          : CASSCF response                               
  Dagmar Lenk            : GEPOL surface, SMD, ORCA-2-JSON               
  Dimitrios Liakos       : Extrapolation schemes; Compound Job, initial MDCI parallelization 
  Dimitrios Manganas     : Further ROCIS development; embedding schemes. LFT, Crystal Embedding 
  Dimitrios Pantazis     : SARC Basis sets                               
  Anastasios Papadopoulos: AUTO-CI, single reference methods and gradients 
  Taras Petrenko         : pre 6.0 DFT Hessian and TD-DFT gradient, (ASA, deprecated), ECA, 1-Electron XAS/XES, NRVS 
  Peter Pinski           : DLPNO-MP2, DLPNO-MP2 Gradient                 
  Christoph Reimann      : Effective Core Potentials                     
  Marius Retegan         : Local ZFS, SOC                                
  Christoph Riplinger    : Optimizer, TS searches, QM/MM, DLPNO-CCSD(T), (RO)-DLPNO pert. Triples 
  Michael Roemelt        : Original ROCIS implementation                 
  Masaaki Saitow         : Open-shell DLPNO-CCSD energy and density      
  Barbara Sandhoefer     : DKH picture change effects                    
  Kantharuban Sivalingam : CASSCF convergence/infrastructure, NEVPT2 and variants, FIC-MRCI 
  Bernardo de Souza      : ESD, SOC TD-DFT                               
  Georgi L. Stoychev     : AutoAux, RI-MP2 NMR, DLPNO-MP2 response, X2C  
  Van Anh Tran           : RI-MP2 g-tensors                              
  Willem Van den Heuvel  : Paramagnetic NMR                              
  Zikuan Wang            : NOTCH, Electric field optimization            
  Frank Wennmohs         : Technical directorship and infrastructure     
  Hang Xu                : AUTO-CI-Response properties                   
                                                                         
[FACCTs GmbH]                                                            
  Markus Bursch, Miquel Garcia-Rates, Christoph Riplinger, Bernardo de Souza, Georgi L. Stoychev 
                                                                 
  APM, Basis sets (HGBS, AHGBS, def-TZVP (Ac-Lr), def2-XVPD (La-Lu)), CI-OPT, improved COSX, DLPNO-Multilevel,           
  DOCKER, DRACO, updates on ESD, GOAT, IRC, LR-CPCM, MBIS, meta-GGA TD-DFT gradient, ML-optimized integration grids, 
  MM, NACMEs, nearIR, NEB, NEB-TS, NL-DFT gradient (VV10), 2- and 3-layer-ONIOM, interface openCOSMO-RS, QMMM,   
  Crystal-QMMM, SF, symmetry and pop. for TD-DFT, r2SCAN hybrids, SOLVATOR                                   
                                                                         
[Other institutions]                                                     
  V. Asgeirsson          : NEB                                           
  Christoph Bannwarth    : sTDA-DFT, sTD-DFT, PBEh-3c, B97-3c, D3        
  Sebastian Ehlert       : rSCAN, r2SCAN, r2SCAN-3c, D4, dhf basis sets  
  Marvin Friede          : D4 for Fr, Ra, Ac-Lr                          
  Lars Goerigk           : TD-DFT with DH, B97 family of functionals     
  Stefan Grimme          : VdW corrections, initial TS optimization, DFT functionals, gCP, sTDA/sTD-DF 
  Waldemar Hujo          : DFT-NL                                        
  H. Jonsson             : NEB                                           
  Holger Kruse           : gCP                                           
  Marcel Mueller         : wB97X-3c, vDZP basis set                      
  Hagen Neugebauer       : wr2SCAN                                       
  Tobias Risthaus        : range-separated hybrid DFT                    
  Lukas Wittmann         : regularized MP2, r2SCAN double-hybrids, wr2SCAN        
                                                                         
We gratefully acknowledge several colleagues who have allowed us to      
interface, adapt or use parts of their codes:                            
  Ed Valeev, F. Pavosevic, A. Kumar             : LibInt (2-el integral package), F12 methods 
  Garnet Chan, S. Sharma, J. Yang, R. Olivares  : DMRG                   
  Ulf Ekstrom                                   : XCFun DFT Library      
  Mihaly Kallay                                 : mrcc  (arbitrary order and MRCC methods)
  Frank Weinhold                                : gennbo (NPA and NBO analysis)           
  Simon Mueller                                 : openCOSMO-RS                            
  Christopher J. Cramer and Donald G. Truhlar   : smd solvation model                     
  S Lehtola, MJT Oliveira, MAL Marques          : LibXC Library                           
  Liviu Ungur et al                             : ANISO software                          


 Your calculation uses the libint2 library for the computation of 2-el integrals
 For citations please refer to: http://libint.valeyev.net

 Your ORCA version has been built with support for libXC version: 6.2.2
 For citations please refer to: https://libxc.gitlab.io

 This ORCA versions uses:
   CBLAS   interface :  Fast vector & matrix operations
   LAPACKE interface :  Fast linear algebra routines
   SCALAPACK package :  Parallel linear algebra routines
   Shared memory     :  Shared parallel matrices
   BLAS/LAPACK       :  OpenBLAS 0.3.27  USE64BITINT DYNAMIC_ARCH NO_AFFINITY Zen SINGLE_THREADED
        Core in use  :  Zen
   Copyright (c) 2011-2014, The OpenBLAS Project




***************************************
The coordinates will be read from file: xtb_opt.xyz
***************************************


Your calculation utilizes the geometrical counterpoise correction gCP
Please cite in your paper:
H.Kruse, S. Grimme J.Chem.Phys., 136, (2012), 154101 
   

Your calculation utilizes the atom-pairwise dispersion correction
based on EEQ partial charges (D4)


================================================================================

----- Orbital basis set information -----
Your calculation utilizes the basis: def2-mTZVPP
   Stefan Grimme, Andreas Hansen, Sebastian Ehlert, and Jan-Michael Mewes 
   J. Chem. Phys. 154, 064103 (2021). DOI: 10.1063/5.0040021

----- AuxJ basis set information -----
Your calculation utilizes the auxiliary basis: def2/J
   F. Weigend, Phys. Chem. Chem. Phys. 8, 1057 (2006).

================================================================================
                                        WARNINGS
                       Please study these warnings very carefully!
================================================================================

WARNING: Old DensityContainer found on disk!
         Will remove this file - 
         If you want to keep old densities, please start your calculation with a different basename. 



WARNING: SCAN, rSCAN, or r2SCAN functional requested.
  ===> : libXC variant has now been activated.



================================================================================
                                       INPUT FILE
================================================================================
NAME = xtb_opt.inp
|  1> ! r2scan-3c def2/J RI DEFGRID2 scfconv7 ENGRAD tightSCF miniprint
|  2> * xyzfile 0 1 xtb_opt.xyz
|  3> 
|  4>                          ****END OF INPUT****
================================================================================

                     *******************************
                     * Energy+Gradient Calculation *
                     *******************************

---------------------------------
CARTESIAN COORDINATES (ANGSTROEM)
---------------------------------
  C      4.556564   -0.226795    0.040301
  C      4.002971    1.047250    0.086548
  C      2.630045    1.221251    0.082164
  C      1.773907    0.112602    0.031465
  C      2.328263   -1.170090   -0.015105
  C      3.710244   -1.323827   -0.010357
  N      0.355722    0.351334    0.028137
  C     -0.619001   -0.687087   -0.028993
  O     -0.333499   -1.874403   -0.070168
  C     -1.979162   -0.199978   -0.033260
  C     -2.313979    1.131260    0.012267
  C     -1.203155    2.026785    0.078541
  N      0.029330    1.640678    0.084573
  N     -3.588177    1.598187   -0.039982
  Cl    -3.220299   -1.406941   -0.103797
  H      5.632049   -0.358870    0.043700
  H      4.643860    1.920442    0.126304
  H      2.212165    2.215341    0.117665
  H      1.694399   -2.039133   -0.054487
  H      4.120914   -2.326062   -0.046891
  H     -1.356152    3.101163    0.124264
  H     -3.774487    2.552134    0.212272
  H     -4.332636    0.927972    0.060633

----------------------------
CARTESIAN COORDINATES (A.U.)
----------------------------
  NO LB      ZA    FRAG     MASS         X           Y           Z
   0 C     6.0000    0    12.011    8.610659   -0.428581    0.076158
   1 C     6.0000    0    12.011    7.564518    1.979015    0.163551
   2 C     6.0000    0    12.011    4.970065    2.307829    0.155268
   3 C     6.0000    0    12.011    3.352198    0.212788    0.059460
   4 C     6.0000    0    12.011    4.399779   -2.211151   -0.028545
   5 C     6.0000    0    12.011    7.011346   -2.501670   -0.019572
   6 N     7.0000    0    14.007    0.672218    0.663925    0.053171
   7 C     6.0000    0    12.011   -1.169742   -1.298407   -0.054789
   8 O     8.0000    0    15.999   -0.630221   -3.542109   -0.132599
   9 C     6.0000    0    12.011   -3.740074   -0.377904   -0.062852
  10 C     6.0000    0    12.011   -4.372787    2.137771    0.023181
  11 C     6.0000    0    12.011   -2.273634    3.830069    0.148420
  12 N     7.0000    0    14.007    0.055426    3.100432    0.159821
  13 N     7.0000    0    14.007   -6.780671    3.020136   -0.075556
  14 Cl   17.0000    0    35.453   -6.085483   -2.658734   -0.196147
  15 H     1.0000    0     1.008   10.643030   -0.678165    0.082582
  16 H     1.0000    0     1.008    8.775624    3.629109    0.238679
  17 H     1.0000    0     1.008    4.180385    4.186387    0.222354
  18 H     1.0000    0     1.008    3.201950   -3.853402   -0.102966
  19 H     1.0000    0     1.008    7.787399   -4.395620   -0.088611
  20 H     1.0000    0     1.008   -2.562757    5.860348    0.234826
  21 H     1.0000    0     1.008   -7.132747    4.822835    0.401136
  22 H     1.0000    0     1.008   -8.187495    1.753614    0.114580

------------------------------------------------------------------------------
                   ___                                                        
                  /   \      - P O W E R E D   B Y -                         
                 /     \                                                     
                 |  |  |   _    _      __       _____    __    __             
                 |  |  |  | |  | |    /  \     |  _  \  |  |  /  |          
                  \  \/   | |  | |   /    \    | | | |  |  | /  /          
                 / \  \   | |__| |  /  /\  \   | |_| |  |  |/  /          
                |  |  |   |  __  | /  /__\  \  |    /   |      \           
                |  |  |   | |  | | |   __   |  |    \   |  |\   \          
                \     /   | |  | | |  |  |  |  | |\  \  |  | \   \       
                 \___/    |_|  |_| |__|  |__|  |_| \__\ |__|  \__/        
                                                                              
                      - O R C A' S   B I G   F R I E N D -                    
                                      &                                       
                       - I N T E G R A L  F E E D E R -                       
                                                                              
 v1 FN, 2020, v2 2021, v3 2022-2024                                           
------------------------------------------------------------------------------


----------------------
SHARK INTEGRAL PACKAGE
----------------------

Number of atoms                             ...     23
Number of basis functions                   ...    353
Number of shells                            ...    165
Maximum angular momentum                    ...      2
Integral batch strategy                     ... SHARK/LIBINT Hybrid
RI-J (if used) integral strategy            ... SPLIT-RIJ (Revised 2003 algorithm where possible)
Printlevel                                  ...      1
Contraction scheme used                     ... SEGMENTED contraction
Prescreening option                         ... SCHWARTZ
   Thresh                                   ... 3.000e-11
   Tcut                                     ... 1.000e-12
   Tpresel                                  ... 1.000e-12 
Coulomb Range Separation                    ... NOT USED
Exchange Range Separation                   ... NOT USED
Multipole approximations                    ... NOT USED
Finite Nucleus Model                        ... NOT USED
CABS basis                                  ... NOT available
Auxiliary Coulomb fitting basis             ... AVAILABLE
   # of basis functions in Aux-J            ...    825
   # of shells in Aux-J                     ...    267
   Maximum angular momentum in Aux-J        ...      4
Auxiliary J/K fitting basis                 ... NOT available
Auxiliary Correlation fitting basis         ... NOT available
Auxiliary 'external' fitting basis          ... NOT available

Checking pre-screening integrals            ... done (  0.0 sec) Dimension = 165
Check shell pair data                       ... done (  0.0 sec)
Shell pair information
Shell pair cut-off parameter TPreSel        ...   1.0e-12
Total number of shell pairs                 ...     13695
Shell pairs after pre-screening             ...     10854
Total number of primitive shell pairs       ...     52053
Primitive shell pairs kept                  ...     27076
          la=0 lb=0:   3094 shell pairs
          la=1 lb=0:   3973 shell pairs
          la=1 lb=1:   1277 shell pairs
          la=2 lb=0:   1425 shell pairs
          la=2 lb=1:    910 shell pairs
          la=2 lb=2:    175 shell pairs

Calculating one electron integrals          ... done (  0.1 sec)
Calculating RI/J V-Matrix + Cholesky decomp.... done (  0.0 sec)
Calculating Nuclear repulsion               ... done (  0.0 sec) ENN=   1033.793710498314 Eh

Diagonalization of the overlap matrix:
Smallest eigenvalue                        ... 2.378e-05
Time for diagonalization                   ...    0.014 sec
Threshold for overlap eigenvalues          ... 1.000e-07
Number of eigenvalues below threshold      ... 0
Time for construction of square roots      ...    0.009 sec
Total time needed                          ...    0.024 sec

-------------------
DFT GRID GENERATION
-------------------

General Integration Accuracy     IntAcc      ... 4.388
Radial Grid Type                 RadialGrid  ... OptM3 with GC (2021)
Angular Grid (max. ang.)         AngularGrid ... 4 (Lebedev-302)
Angular grid pruning method      GridPruning ... 4 (adaptive)
Weight generation scheme         WeightScheme... mBecke (2022)
Basis function cutoff            BFCut       ... 1.0000e-11
Integration weight cutoff        WCut        ... 1.0000e-14
Partially contracted basis set               ... off
Rotationally invariant grid construction     ... off
Angular grids for H and He will be reduced by one unit
Diffuse basis detected: some atoms will have their outermost
                        angular grid increased by 1.

Total number of grid points                  ...   117230
Total number of batches                      ...     1845
Average number of points per batch           ...       63
Average number of grid points per atom       ...     5097
Initializing property integral containers    ... done (  0.0 sec)

SHARK setup successfully completed in   1.5 seconds

Maximum memory used throughout the entire STARTUP-calculation: 61.3 MB
Occupation numbers will be reassigned to an Aufbau configuration
             **** ENERGY FILE WAS UPDATED (xtb_opt.en.tmp) ****
Finished Guess after   0.1 sec
Maximum memory used throughout the entire GUESS-calculation: 31.1 MB
----------------------------------------D-I-I-S--------------------------------------------
Iteration    Energy (Eh)           Delta-E    RMSDP     MaxDP     DIISErr   Damp  Time(sec)
-------------------------------------------------------------------------------------------
               ***  Starting incremental Fock matrix formation  ***
    1    -1085.3883741166814616     0.00e+00  1.56e-04  1.11e-02  6.54e-03  0.700   4.6
    2    -1085.3885245613396364    -1.50e-04  1.31e-04  9.18e-03  4.57e-03  0.700   3.4
                               ***Turning on AO-DIIS***
                              *** Initializing SOSCF ***
---------------------------------------S-O-S-C-F--------------------------------------
Iteration    Energy (Eh)           Delta-E    RMSDP     MaxDP     MaxGrad    Time(sec)
--------------------------------------------------------------------------------------
    3    -1085.3886290552927676    -1.04e-04  3.06e-04  2.07e-02  3.26e-03     3.4
               *** Restarting incremental Fock matrix formation ***
    4    -1085.3888604020362436    -2.31e-04  7.28e-05  2.84e-03  5.59e-04     4.5
    5    -1085.3887895409898192     7.09e-05  5.06e-05  2.08e-03  1.89e-03     3.4
    6    -1085.3888701532459891    -8.06e-05  1.66e-05  4.74e-04  1.51e-04     3.4
    7    -1085.3888677216605174     2.43e-06  1.12e-05  3.58e-04  3.60e-04     3.3
    8    -1085.3888708328768189    -3.11e-06  5.36e-06  2.01e-04  2.95e-05     3.2
    9    -1085.3888706921202356     1.41e-07  3.23e-06  1.31e-04  6.18e-05     3.1
   10    -1085.3888708707791011    -1.79e-07  1.99e-06  1.00e-04  6.23e-06     3.1
                  *** Gradient check signals convergence ***

               *****************************************************
               *                     SUCCESS                       *
               *           SCF CONVERGED AFTER  10 CYCLES          *
               *****************************************************

             **** ENERGY FILE WAS UPDATED (xtb_opt.en.tmp) ****

----------------
TOTAL SCF ENERGY
----------------

Total Energy       :      -1085.38887087077910 Eh          -29534.93270 eV

Components:
Nuclear Repulsion  :       1033.79371049831434 Eh           28130.95701 eV
Electronic Energy  :      -2119.18258136909390 Eh          -57665.88972 eV
One Electron Energy:      -3536.77063717876763 Eh          -96240.42181 eV
Two Electron Energy:       1417.58805580967396 Eh           38574.53209 eV

Virial components:
Potential Energy   :      -2167.16109992690417 Eh          -58971.45158 eV
Kinetic Energy     :       1081.77222905612484 Eh           29436.51888 eV
Virial Ratio       :          2.00334325629510

DFT components:
N(Alpha)           :       57.000031900068 electrons
N(Beta)            :       57.000031900068 electrons
N(Total)           :      114.000063800135 electrons
E(X)               :     -110.730602850109 Eh       
E(C)               :       -3.879795905900 Eh       
E(XC)              :     -114.610398756009 Eh       

---------------
SCF CONVERGENCE
---------------

  Last Energy change         ...    1.7866e-07  Tolerance :   1.0000e-07
  Last MAX-Density change    ...    1.0048e-04  Tolerance :   1.0000e-07
  Last RMS-Density change    ...    1.9850e-06  Tolerance :   5.0000e-09
  Last DIIS Error            ...    3.2625e-03  Tolerance :   1.0000e-07
  Last Orbital Gradient      ...    6.2255e-06  Tolerance :   1.0000e-04
  Last Orbital Rotation      ...    3.5696e-05  Tolerance :   1.0000e-04


----------------
ORBITAL ENERGIES
----------------

  NO   OCC          E(Eh)            E(eV) 
   0   2.0000    -101.232486     -2754.6760 
   1   2.0000     -18.919617      -514.8290 
   2   2.0000     -14.268138      -388.2558 
   3   2.0000     -14.218427      -386.9031 
   4   2.0000     -14.209615      -386.6633 
   5   2.0000     -10.148069      -276.1430 
   6   2.0000     -10.120625      -275.3962 
   7   2.0000     -10.106596      -275.0145 
   8   2.0000     -10.095898      -274.7233 
   9   2.0000     -10.088947      -274.5342 
  10   2.0000     -10.038569      -273.1634 
  11   2.0000     -10.036627      -273.1105 
  12   2.0000     -10.036231      -273.0997 
  13   2.0000     -10.035338      -273.0754 
  14   2.0000     -10.032686      -273.0033 
  15   2.0000      -9.387669      -255.4515 
  16   2.0000      -7.134033      -194.1269 
  17   2.0000      -7.124007      -193.8541 
  18   2.0000      -7.123391      -193.8373 
  19   2.0000      -1.043520       -28.3956 
  20   2.0000      -0.990276       -26.9468 
  21   2.0000      -0.935327       -25.4515 
  22   2.0000      -0.853582       -23.2271 
  23   2.0000      -0.842369       -22.9220 
  24   2.0000      -0.811323       -22.0772 
  25   2.0000      -0.752122       -20.4663 
  26   2.0000      -0.719751       -19.5854 
  27   2.0000      -0.716811       -19.5054 
  28   2.0000      -0.643736       -17.5169 
  29   2.0000      -0.640713       -17.4347 
  30   2.0000      -0.580227       -15.7888 
  31   2.0000      -0.580038       -15.7836 
  32   2.0000      -0.551849       -15.0166 
  33   2.0000      -0.520644       -14.1675 
  34   2.0000      -0.511695       -13.9239 
  35   2.0000      -0.480719       -13.0810 
  36   2.0000      -0.465694       -12.6722 
  37   2.0000      -0.456947       -12.4342 
  38   2.0000      -0.441472       -12.0131 
  39   2.0000      -0.420928       -11.4540 
  40   2.0000      -0.406690       -11.0666 
  41   2.0000      -0.401634       -10.9290 
  42   2.0000      -0.399380       -10.8677 
  43   2.0000      -0.386782       -10.5249 
  44   2.0000      -0.382224       -10.4008 
  45   2.0000      -0.361557        -9.8385 
  46   2.0000      -0.342551        -9.3213 
  47   2.0000      -0.335372        -9.1259 
  48   2.0000      -0.314859        -8.5678 
  49   2.0000      -0.312050        -8.4913 
  50   2.0000      -0.297768        -8.1027 
  51   2.0000      -0.281802        -7.6682 
  52   2.0000      -0.273480        -7.4418 
  53   2.0000      -0.237439        -6.4610 
  54   2.0000      -0.224825        -6.1178 
  55   2.0000      -0.218610        -5.9487 
  56   2.0000      -0.210806        -5.7363 
  57   0.0000      -0.092231        -2.5097 
  58   0.0000      -0.038427        -1.0457 
  59   0.0000      -0.029290        -0.7970 
  60   0.0000      -0.014343        -0.3903 
  61   0.0000      -0.000138        -0.0038 
  62   0.0000       0.048806         1.3281 
  63   0.0000       0.081721         2.2237 
  64   0.0000       0.085361         2.3228 
  65   0.0000       0.088591         2.4107 
  66   0.0000       0.095357         2.5948 
  67   0.0000       0.113730         3.0948 
*Only the first 10 virtual orbitals were printed.
Total SCF time: 0 days 0 hours 0 min 36 sec 
Finished LeanSCF after  39.8 sec

Maximum memory used throughout the entire LEANSCF-calculation: 43.8 MB


-------------------------------------------------------------------------------
                          DFT DISPERSION CORRECTION                            
                                                                               
                                DFTD4 V3.4.0                                   
-------------------------------------------------------------------------------
-------------------------   ----------------
Dispersion correction           -0.010413717
-------------------------   ----------------

------------------   -----------------
gCP correction             0.016946325
------------------   -----------------

-------------------------   --------------------
FINAL SINGLE POINT ENERGY     -1085.382338262790
-------------------------   --------------------

------------------------------------------------------------------------------
                         ORCA SCF GRADIENT CALCULATION
------------------------------------------------------------------------------

Nuc. rep. gradient        (SHARK) ... done (  0.0 sec)
HCore & Overlap gradient  (SHARK) ... done (  0.7 sec)
[...]
  30   2.0000      -0.579777       -15.7765 
  31   2.0000      -0.579185       -15.7604 
  32   2.0000      -0.549678       -14.9575 
  33   2.0000      -0.519854       -14.1459 
  34   2.0000      -0.510113       -13.8809 
  35   2.0000      -0.478017       -13.0075 
  36   2.0000      -0.465802       -12.6751 
  37   2.0000      -0.454601       -12.3703 
  38   2.0000      -0.440818       -11.9953 
  39   2.0000      -0.421098       -11.4587 
  40   2.0000      -0.407301       -11.0832 
  41   2.0000      -0.402986       -10.9658 
  42   2.0000      -0.399720       -10.8769 
  43   2.0000      -0.385780       -10.4976 
  44   2.0000      -0.382764       -10.4155 
  45   2.0000      -0.362472        -9.8634 
  46   2.0000      -0.342481        -9.3194 
  47   2.0000      -0.336002        -9.1431 
  48   2.0000      -0.315511        -8.5855 
  49   2.0000      -0.312917        -8.5149 
  50   2.0000      -0.298336        -8.1181 
  51   2.0000      -0.284565        -7.7434 
  52   2.0000      -0.273396        -7.4395 
  53   2.0000      -0.237645        -6.4667 
  54   2.0000      -0.226952        -6.1757 
  55   2.0000      -0.220686        -6.0052 
  56   2.0000      -0.211579        -5.7574 
  57   0.0000      -0.093867        -2.5542 
  58   0.0000      -0.039615        -1.0780 
  59   0.0000      -0.030358        -0.8261 
  60   0.0000      -0.016279        -0.4430 
  61   0.0000      -0.002637        -0.0718 
  62   0.0000       0.048189         1.3113 
  63   0.0000       0.081076         2.2062 
  64   0.0000       0.083285         2.2663 
  65   0.0000       0.088265         2.4018 
  66   0.0000       0.094729         2.5777 
  67   0.0000       0.112331         3.0567 
*Only the first 10 virtual orbitals were printed.
Total SCF time: 0 days 0 hours 0 min 10 sec 
Finished LeanSCF after  14.0 sec

Maximum memory used throughout the entire LEANSCF-calculation: 43.6 MB


-------------------------------------------------------------------------------
                          DFT DISPERSION CORRECTION                            
                                                                               
                                DFTD4 V3.4.0                                   
-------------------------------------------------------------------------------
-------------------------   ----------------
Dispersion correction           -0.010385981
-------------------------   ----------------

------------------   -----------------
gCP correction             0.016826061
------------------   -----------------

-------------------------   --------------------
FINAL SINGLE POINT ENERGY     -1085.382810657622
-------------------------   --------------------

------------------------------------------------------------------------------
                         ORCA SCF GRADIENT CALCULATION
------------------------------------------------------------------------------

Nuc. rep. gradient        (SHARK) ... done (  0.0 sec)
HCore & Overlap gradient  (SHARK) ... done (  0.7 sec)
Split-RIJ-J gradient      (SHARK) ... done (  4.5 sec)
XC gradient                       ... done ( 11.1 sec)
Dispersion correction             ... done (  0.0 sec)

-------------------
DISPERSION GRADIENT
-------------------

   1   C   :    0.000103074   -0.000011565    0.000000592
   2   C   :    0.000108941    0.000050070    0.000002851
   3   C   :    0.000094212    0.000073314    0.000003986
   4   C   :    0.000064831   -0.000002196    0.000001436
   5   C   :    0.000071817   -0.000087203   -0.000001652
   6   C   :    0.000099978   -0.000070956   -0.000001244
   7   N   :   -0.000006517    0.000013673    0.000001279
   8   C   :   -0.000050997   -0.000068845   -0.000003741
   9   O   :   -0.000026262   -0.000124292   -0.000005179
  10   C   :   -0.000093356   -0.000034283   -0.000004113
  11   C   :   -0.000085700    0.000045805   -0.000000224
  12   C   :   -0.000060365    0.000114687    0.000004104
  13   N   :   -0.000006412    0.000108021    0.000005422
  14   N   :   -0.000117534    0.000059836    0.000004172
  15   Cl  :   -0.000155738   -0.000139063   -0.000009878
  16   H   :    0.000038776   -0.000004867    0.000000129
  17   H   :    0.000034704    0.000030407    0.000001341
  18   H   :    0.000023692    0.000049120    0.000002065
  19   H   :    0.000007740   -0.000054066   -0.000001565
  20   H   :    0.000028611   -0.000038079   -0.000001030
  21   H   :   -0.000012790    0.000054793    0.000001757
  22   H   :   -0.000030956    0.000023839    0.000000863
  23   H   :   -0.000029751    0.000011851   -0.000001371

Difference to translation invariance:
           :   -0.0000000000   -0.0000000000    0.0000000000

Difference to rotation invariance:
           :   -0.0000000000    0.0000000000   -0.0000000000

Norm of the Dispersion gradient    ...    0.0004709423
RMS gradient                       ...    0.0000566948
MAX gradient                       ...    0.0001557382
gCP correction                   ... done

------------------
CARTESIAN GRADIENT
------------------

   1   C   :    0.000016268   -0.000023831   -0.000005915
   2   C   :   -0.000039934    0.000009965   -0.000003058
   3   C   :    0.000117636    0.000014779    0.000027779
   4   C   :   -0.000148234    0.000007551    0.000015052
   5   C   :    0.000037872   -0.000075795   -0.000029993
   6   C   :   -0.000007952   -0.000006883   -0.000006622
   7   N   :    0.000231359    0.000129291   -0.000003125
   8   C   :   -0.000066395   -0.000236343   -0.000010448
   9   O   :   -0.000015538    0.000012849    0.000060728
  10   C   :   -0.000031722   -0.000022828   -0.000013141
  11   C   :    0.000076978   -0.000019439    0.000063033
  12   C   :    0.000084616    0.000142511    0.000008316
  13   N   :   -0.000151830   -0.000115495   -0.000005953
  14   N   :   -0.000273728   -0.000043441   -0.000145687
  15   Cl  :    0.000028192    0.000035638    0.000010413
  16   H   :    0.000012311    0.000005548   -0.000016616
  17   H   :    0.000002194    0.000020575    0.000012091
  18   H   :   -0.000030427    0.000031346    0.000022320
  19   H   :    0.000004525   -0.000011797   -0.000011693
  20   H   :    0.000006563   -0.000006999   -0.000022465
  21   H   :    0.000002660    0.000055256   -0.000006972
  22   H   :    0.000032930    0.000000503    0.000008437
  23   H   :    0.000111655    0.000097038    0.000053519

Difference to translation invariance:
           :   -0.0000000001   -0.0000000000   -0.0000000000

Difference to rotation invariance:
           :   -0.0000548484    0.0001533341   -0.0005131135

Norm of the Cartesian gradient     ...    0.0006261882
RMS gradient                       ...    0.0000753842
MAX gradient                       ...    0.0002737284

-------
TIMINGS
-------

Total SCF gradient time     ....       16.376 sec

Densities                   ....       0.002 sec  (  0.0%)
One electron gradient       ....       0.693 sec  (  4.2%)
RI-J Coulomb gradient       ....       4.508 sec  ( 27.5%)
XC gradient                 ....      11.138 sec  ( 68.0%)

Maximum memory used throughout the entire SCFGRAD-calculation: 51.7 MB

------------------------------------------------------------------------------
                              ORCA PROPERTY CALCULATIONS
------------------------------------------------------------------------------

GBWName                                 ... xtb_opt.gbw
Number of atoms                         ...     23
Number of basis functions               ...    353
Max core memory                         ...   1024 MB

Electric properties:
Dipole moment                           ... YES
Quadrupole moment                       ...  NO
Static polarizability (Dipole/Dipole)   ...  NO
Static polarizability (Dipole/Quad.)    ...  NO
Static polarizability (Quad./Quad.)     ...  NO
Static polarizability (Velocity)        ...  NO

Atomic electric properties:
Dipole moment                           ...  NO
Quadrupole moment                       ...  NO
Static polarizability                   ...  NO

Choice of electric origin               ... Center of mass
Position of electric origin             ...    -0.010577    -0.004536    -0.017318

General magnetic properties:
Magnetizability                         ...  NO

EPR properties:
g-Tensor (aka g-matrix)                 ...  NO
Zero-Field splitting spin-orbit         ...  NO
Zero-field splitting spin-spin          ...  NO
Hyperfine couplings                     ...  NO (   0 nuclei)
Quadrupole couplings                    ...  NO (   0 nuclei)
Contact density                         ...  NO (   0 nuclei)

NMR properties:
Chemical shifts                         ...  NO (   0 nuclei)
Spin-rotation constants                 ...  NO (   0 nuclei)
Spin-spin couplings                     ...  NO (   0 nuclei,    0 pairs)

Choice of magnetic origin               ... GIAO
Position of magnetic origin             ...     0.000000     0.000000     0.000000

Properties with geometric perturbations:
SCF Hessian                             ...  NO
IR spectrum                             ...  NO
VCD spectrum                            ...  NO
X-ray spectroscopy properties:
SCF XES/XAS/RIXS spectra                ...  NO


-------------
DIPOLE MOMENT
-------------

Method             : SCF
Type of density    : Electron Density
Multiplicity       :   1
Irrep              :   0
Energy             : -1085.3892507373871013 Eh
Relativity type    : 
Basis              : AO
                                X                 Y                 Z
Electronic contribution:    -13.513996102      -5.833757018      -0.561873379
Nuclear contribution   :     12.664460194       7.533212120       0.867756422
                        -----------------------------------------
Total Dipole Moment    :     -0.849535908       1.699455102       0.305883043
                        -----------------------------------------
Magnitude (a.u.)       :      1.924428055
Magnitude (Debye)      :      4.891507382



--------------------
Rotational spectrum 
--------------------
 
Rotational constants in cm-1:             0.044405             0.010525             0.008509 
Rotational constants in MHz :          1331.213454           315.522804           255.105776 

Dipole components along the rotational axes: 
x,y,z [a.u.] :    -0.827977    -1.718978     0.250980 
x,y,z [Debye]:    -2.104552    -4.369295     0.637942 

 

Dipole moment calculation done in   1.1 sec 

Maximum memory used throughout the entire PROP-calculation: 29.4 MB

--------------------------------
SUGGESTED CITATIONS FOR THIS RUN
--------------------------------

Below you find a list of papers that are relevant to this ORCA run
We neither can nor want to force you to cite these papers, but we appreciate if you do
You receive ORCA, which is the product of decades of hard work by many enthusiastic individuals, for free
The only thing we kindly ask in return is that you cite our papers,
We deeply appreciate it, if you show your appreciation for ORCA by not just citing the generic ORCA reference.

Please note that relegating all ORCA citations to the supporting information does *not* help us.
SI sections are not indexed - citations you put there will not count into any citation statistics
But we need these citations in order to attract the funding resources that allow us to do what we are doing

Therefore, if you are a happy ORCA user, please consider citing a few of the papers listed below in the main body of your paper

In addition to the list printed below, the program has created the file xtb_opt.bibtex that contains the list in bibtex format
You can import this file easily into all common literature databanks and citation aid programs


List of essential papers. We consider these as the minimum necessary citations

  1. Neese,F.
     Software update: the ORCA program system, version 5.0
     WIRES Comput. Molec. Sci., 2022 12(1)e1606
     doi.org/10.1002/wcms.1606
  2. Grimme,S.; Hansen,A.; Ehlert,S.; Mewes,J.
     r2SCAN-3c: A 'Swiss army knife' composite electronic-structure method
     J. Chem. Phys., 2021 154 064103
     doi.org/10.1063/5.0040021

List of papers to cite with high priority. The work reported in these papers was absolutely
necessary for this run to complete.
Our perspective: the developers of density functionals and basis sets usually get cited in chemistry papers
Good! But without the algorithms to do something with them, the functionals or basis sets would not do anything.
Hence, in our opinion, the algorithm design and method developments papers are equally worthy of getting cited

  1. Neese,F.
     An improvement of the resolution of the identity approximation for the formation of the Coulomb matrix
     J. Comp. Chem., 2003 24(14)1740-1747
     doi.org/10.1002/jcc.10318
  2. Neese,F.
     The SHARK Integral Generation and Digestion System
     J. Comp. Chem., 2022  1-16
     doi.org/10.1002/jcc.26942
  3. Lehtola,S.; Steigemann,C.; Oliveira,M.; Marques,M.
     Recent developments in Libxc - A comprehensive library of functionals for density functional theory
     Software X, 2018 7 
     doi.org/10.1016/j.softx.2017.11.002
  4. Caldeweyher,E.; Bannwarth,C.; Grimme,S.
     Extension of the D3 dispersion coefficient model
     J. Chem. Phys., 2017 147 034112
     doi.org/10.1063/1.4993215
  5. Caldeweyher,E.; Ehlert,S.; Hansen,A.; Neugebauer,H.; Spicher,S.; Bannwarth,C.; Grimme,S.
     A generally applicable atomic-charge dependent London dispersion correction
     J. Chem. Phys., 2019 150 154122
     doi.org/10.1063/1.5090222
  6. Caldeweyher,E.; Mewes,J.; Ehlert,S.; Grimme,S.
     Extension and evaluation of the D4 London-dispersion model for periodic systems
     Phys. Chem. Chem. Phys., 2020 22(16)8499-8512
     doi.org/10.1039/D0CP00502A
  7. Wittmann,L.; Gordiy,I.; Friede,M.; Helmich-Paris,B.; Grimme,S.; Hansen,A.; Bursch,M.
     Extension of the D3 and D4 London Dispersion Corrections to the full Actinides Series
     Phys. Chem. Chem. Phys., 2024 26(32)21379-21394
     doi.org/https://doi.org/10.1039/D4CP01514B 

List of suggested additional citations. These are papers that are important in the 'surrounding' of 
of this run, or papers that preceded the highly important papers. If you like your results we are grateful for a citation.

  1. Neese,F.
     The ORCA program system
     WIRES Comput. Molec. Sci., 2012 2(1)73-78
     doi.org/10.1002/wcms.81
  2. Neese,F.
     Software update: the ORCA program system, version 4.0
     WIRES Comput. Molec. Sci., 2018 8(1)1-6
     doi.org/10.1002/wcms.1327
  3. Neese,F.; Wennmohs,F.; Becker,U.; Riplinger,C.
     The ORCA quantum chemistry program package
     J. Chem. Phys., 2020 152 Art. No. L224108
     doi.org/10.1063/5.0004608

List of optional additional citations

  1. Neese,F.
     Approximate second-order SCF convergence for spin unrestricted wavefunctions
     Chem. Phys. Lett., 2000 325(1-3)93-98
     doi.org/10.1016/s0009-2614(00)00662-x

Timings for individual modules:

Sum of individual times          ...       34.740 sec (=   0.579 min)
Startup calculation              ...        1.903 sec (=   0.032 min)   5.5 %
SCF iterations                   ...       14.205 sec (=   0.237 min)  40.9 %
Property calculations            ...        1.180 sec (=   0.020 min)   3.4 %
SCF Gradient evaluation          ...       17.451 sec (=   0.291 min)  50.2 %
                             ****ORCA TERMINATED NORMALLY****
TOTAL RUN TIME: 0 days 0 hours 0 minutes 39 seconds 550 msec
  ------------------------------------------------------------------------
          * successful ORCA run, taking over control again...

         :::::::::::::::::::::::::::::::::::::::::::::::::::::
         ::                  ORCA SUMMARY                   ::
         :::::::::::::::::::::::::::::::::::::::::::::::::::::
         :: total energy           -1085.382810657622 Eh    ::
         :: gradient norm              0.000626188241 Eh/a0 ::
         :: HOMO-LUMO gap              0.000000000000 eV    ::
         :::::::::::::::::::::::::::::::::::::::::::::::::::::

           -------------------------------------------------
          |                Property Printout                |
           -------------------------------------------------
           -------------------------------------------------
          |                Geometry Summary                 |
           -------------------------------------------------

      molecular mass/u    :      221.6433371
   center of mass at/Å    :       -0.0056102      -0.0024122      -0.0091649
  moments of inertia/u·Å² :        0.3796327E+03   0.1601690E+04   0.1981022E+04
rotational constants/cm⁻¹ :        0.4440511E-01   0.1052491E-01   0.8509565E-02

 * 21 selected distances

     #   Z          #   Z                                           value/Å
     1   6 C        2   6 C                                       1.3914897
     2   6 C        3   6 C                                       1.3867324
     3   6 C        4   6 C                                       1.4026785
     4   6 C        5   6 C                                       1.4003029
     1   6 C        6   6 C                                       1.3873558
     5   6 C        6   6 C                                       1.3926065
     8   6 C        9   8 O                                       1.2202809
    10   6 C       11   6 C                                       1.3718925
    11   6 C       12   6 C                                       1.4267872
     7   7 N       13   7 N                                       1.3358686
    12   6 C       13   7 N                                       1.2960763
    11   6 C       14   7 N                                       1.3654017
    10   6 C       15  17 Cl                                      1.7356201 (max)
     1   6 C       16   1 H                                       1.0848698
     2   6 C       17   1 H                                       1.0854039
     3   6 C       18   1 H                                       1.0798550
     5   6 C       19   1 H                                       1.0764401
     6   6 C       20   1 H                                       1.0852682
    12   6 C       21   1 H                                       1.0879962
    14   7 N       22   1 H                                       1.0062161 (min)
    14   7 N       23   1 H                                       1.0078956

 * 7 distinct bonds (by element types)

   Z      Z             #   av. dist./Å        max./Å        min./Å
   1 H    6 C           6     1.0833055     1.0879962     1.0764401
   6 C    6 C           8     1.3949807     1.4267872     1.3718925
   1 H    7 N           2     1.0070559     1.0078956     1.0062161
   6 C    7 N           2     1.3307390     1.3654017     1.2960763
   7 N    7 N           1     1.3358686     1.3358686     1.3358686
   6 C    8 O           1     1.2202809     1.2202809     1.2202809
   6 C   17 Cl          1     1.7356201     1.7356201     1.7356201


optimized geometry written to: xtbopt.coord


           -------------------------------------------------
          | TOTAL ENERGY            -1085.382810657622 Eh   |
          | GRADIENT NORM               0.000626188241 Eh/α |
           -------------------------------------------------

------------------------------------------------------------------------
 * finished run on 2025/04/15 at 19:48:46.829     
------------------------------------------------------------------------
 total:
 * wall-time:     0 d,  0 h, 10 min, 58.625 sec
 *  cpu-time:     0 d,  0 h,  0 min,  1.740 sec
 * ratio c/w:     0.003 speedup
 SCF:
 * wall-time:     0 d,  0 h,  0 min, 53.694 sec
 *  cpu-time:     0 d,  0 h,  0 min,  0.533 sec
 * ratio c/w:     0.010 speedup
 ANC optimizer:
 * wall-time:     0 d,  0 h, 10 min,  4.886 sec
 *  cpu-time:     0 d,  0 h,  0 min,  1.176 sec
 * ratio c/w:     0.002 speedup

