 Entering Gaussian System
 *********************************************
 Gaussian 98:
 frequency output generated by the xtb code
 *********************************************
                         Standard orientation:
 --------------------------------------------------------------------
  Center     Atomic     Atomic              Coordinates (Angstroms)
  Number     Number      Type              X           Y           Z
 --------------------------------------------------------------------
    1          6             0       -2.104129   -0.890426   -0.407248
    2          6             0       -1.245196   -0.323354    0.739849
    3          1             0       -1.886178   -0.377521    1.631426
    4          6             0       -0.772593    1.131462    0.614685
    5          1             0       -1.612944    1.779596    0.342456
    6          6             0        0.358171    1.324195   -0.421734
    7          1             0        0.800991    2.311245   -0.227057
    8          6             0        1.484120    0.293207   -0.163654
    9          1             0        2.054317    0.154493   -1.088987
   10          6             0        1.000048   -1.112865    0.269271
   11          1             0        1.795825   -1.539621    0.898275
   12          8             0       -0.131844   -1.143875    1.099849
   13          8             0        0.820364   -1.913733   -0.874613
   14          8             0        2.384374    0.779327    0.802686
   15          8             0       -0.082442    1.383970   -1.738924
   16          8             0       -0.304833    1.551981    1.885285
   17          8             0       -1.533904   -0.885941   -1.687159
   18          1             0       -3.011892   -0.286036   -0.476523
   19          1             0       -2.386217   -1.914096   -0.122828
   20          1             0        0.714959   -2.833966   -0.603236
   21          1             0        1.892510    1.288677    1.461681
   22          1             0       -0.667225    0.624458   -1.933560
   23          1             0       -0.025969    0.766768    2.375913
   24          1             0       -0.692184   -1.385789   -1.654238
 --------------------------------------------------------------------
     1 basis functions        1 primitive gaussians
     1 alpha electrons        1 beta electrons
 
 Harmonic frequencies (cm**-1), IR intensities (km*mol⁻¹),
 Raman scattering activities (A**4/amu), Raman depolarization ratios,
 reduced masses (AMU), force constants (mDyne/A) and normal coordinates:
                      1                      2                      3
                        a                      a                      a 
 Frequencies --    67.4937                96.1929               155.2094
 Red. masses --    13.9599                13.1197                12.6412
 Frc consts  --     0.0000                 0.0000                 0.0000
 IR Inten    --     0.6803                 4.1114                15.0837
 Raman Activ --     0.0000                 0.0000                 0.0000
 Depolar     --     0.0000                 0.0000                 0.0000
 Atom AN      X      Y      Z        X      Y      Z        X      Y      Z
   1   6     0.08   0.03  -0.18    -0.12   0.24  -0.10     0.21  -0.26  -0.04
   2   6    -0.10   0.02  -0.04    -0.08   0.10  -0.06     0.04  -0.05  -0.01
   3   1    -0.06  -0.01  -0.04    -0.03   0.03  -0.02    -0.02  -0.00  -0.02
   4   6    -0.06   0.01   0.08     0.09   0.06   0.08     0.03  -0.05  -0.05
   5   1    -0.01   0.02   0.05     0.04   0.06   0.10     0.00  -0.00   0.04
   6   6    -0.08   0.05   0.07    -0.05   0.02  -0.08    -0.04   0.00  -0.12
   7   1    -0.00   0.00   0.05    -0.02   0.01  -0.06    -0.01  -0.00  -0.02
   8   6    -0.11  -0.04  -0.12    -0.04   0.07   0.04    -0.05   0.00  -0.01
   9   1    -0.10  -0.05  -0.07     0.02   0.02   0.03     0.02  -0.01   0.02
  10   6    -0.07   0.01   0.14    -0.03   0.06   0.03    -0.04   0.01   0.06
  11   1    -0.02   0.05   0.07    -0.03   0.04   0.04     0.01   0.00  -0.01
  12   8    -0.13   0.06   0.10    -0.18  -0.03  -0.14     0.10   0.14   0.26
  13   8     0.05  -0.25   0.32     0.20   0.00   0.04    -0.34  -0.02   0.15
  14   8     0.23  -0.02  -0.49    -0.21   0.18   0.14    -0.26   0.12   0.13
  15   8    -0.17   0.28   0.11    -0.19  -0.15  -0.04     0.02   0.12  -0.14
  16   8    -0.03  -0.16   0.13     0.54  -0.29   0.07     0.38  -0.25  -0.10
  17   8     0.33   0.02  -0.11     0.08  -0.26  -0.02     0.00   0.26  -0.14
  18   1     0.03   0.02  -0.10     0.03   0.16  -0.10    -0.02  -0.20   0.05
  19   1     0.00   0.01  -0.07    -0.16   0.11   0.01     0.21  -0.13  -0.04
  20   1    -0.02  -0.04   0.13     0.09  -0.00   0.01    -0.14   0.01   0.06
  21   1     0.12  -0.03  -0.06    -0.09   0.04   0.01    -0.12  -0.01   0.02
  22   1    -0.00   0.05  -0.01    -0.00  -0.08   0.00    -0.04   0.06  -0.04
  23   1     0.04  -0.05  -0.02     0.01  -0.13   0.01    -0.03  -0.10  -0.01
  24   1     0.07  -0.01   0.01     0.01  -0.08   0.07     0.02   0.09  -0.11
                      4                      5                      6
                        a                      a                      a 
 Frequencies --   180.3970               224.6745               263.9154
 Red. masses --    13.8516                14.1000                 3.7295
 Frc consts  --     0.0000                 0.0000                 0.0000
 IR Inten    --     3.3996                 5.8319               139.9409
 Raman Activ --     0.0000                 0.0000                 0.0000
 Depolar     --     0.0000                 0.0000                 0.0000
 Atom AN      X      Y      Z        X      Y      Z        X      Y      Z
   1   6    -0.12  -0.12  -0.05     0.20  -0.03  -0.14     0.04   0.09  -0.01
   2   6    -0.12   0.01  -0.11     0.11   0.15  -0.12     0.03  -0.01   0.03
   3   1    -0.05   0.02  -0.04    -0.00   0.02  -0.06     0.02  -0.00   0.02
   4   6    -0.01  -0.02  -0.02     0.09   0.18   0.10     0.01   0.00   0.03
   5   1     0.02   0.03   0.02     0.04   0.06   0.01     0.01   0.01   0.04
   6   6     0.06   0.00   0.06     0.07   0.07   0.07    -0.04  -0.03  -0.05
   7   1    -0.01   0.02   0.00     0.04   0.02  -0.04    -0.02   0.01  -0.05
   8   6     0.12   0.09   0.12     0.05   0.02  -0.04    -0.03   0.00  -0.03
   9   1    -0.01  -0.01   0.01     0.03   0.04  -0.01    -0.00  -0.00  -0.01
  10   6    -0.02   0.14   0.15    -0.00   0.03  -0.13     0.01  -0.01  -0.03
  11   1    -0.03   0.01   0.05     0.01  -0.02  -0.07     0.02   0.01  -0.02
  12   8    -0.10   0.13   0.07     0.17   0.29   0.06     0.06   0.02   0.01
  13   8    -0.08   0.35   0.06    -0.32   0.01  -0.08    -0.04  -0.08   0.01
  14   8     0.39   0.15  -0.15     0.01  -0.21   0.14    -0.11  -0.08   0.15
  15   8     0.22  -0.27   0.00    -0.29  -0.12   0.19    -0.06  -0.14  -0.05
  16   8    -0.04  -0.35   0.08    -0.08   0.10   0.20    -0.16  -0.09   0.08
  17   8    -0.33  -0.10  -0.15     0.04  -0.42  -0.26     0.12   0.18   0.01
  18   1    -0.06  -0.07   0.01     0.06  -0.01  -0.06     0.02   0.05  -0.00
  19   1     0.01  -0.04   0.00     0.06   0.01   0.03    -0.01   0.03  -0.04
  20   1    -0.04   0.08  -0.02    -0.10   0.01  -0.00    -0.01  -0.01   0.02
  21   1     0.15   0.05  -0.01    -0.00  -0.06   0.04     0.07   0.50  -0.30
  22   1     0.02  -0.05   0.03    -0.03  -0.08   0.09    -0.04  -0.03   0.01
  23   1     0.13  -0.11  -0.10    -0.00   0.02   0.03     0.61   0.02  -0.28
  24   1    -0.07   0.00  -0.06     0.02  -0.10  -0.06     0.01   0.02   0.00
                      7                      8                      9
                        a                      a                      a 
 Frequencies --   275.3196               287.3113               305.8281
 Red. masses --    12.2390                13.5771                12.1281
 Frc consts  --     0.0000                 0.0000                 0.0000
 IR Inten    --    28.6920                 2.5837                 2.2004
 Raman Activ --     0.0000                 0.0000                 0.0000
 Depolar     --     0.0000                 0.0000                 0.0000
 Atom AN      X      Y      Z        X      Y      Z        X      Y      Z
   1   6     0.06   0.31  -0.16    -0.14   0.08   0.02     0.07  -0.18  -0.07
   2   6     0.14  -0.14   0.04     0.10   0.01  -0.13    -0.02   0.07  -0.07
   3   1     0.01  -0.08  -0.01     0.05   0.01  -0.02    -0.03   0.02  -0.03
   4   6     0.03  -0.12   0.10     0.07   0.01  -0.07     0.08   0.09   0.04
   5   1    -0.01  -0.07  -0.00     0.03   0.01  -0.03     0.03   0.03   0.00
   6   6    -0.05  -0.17   0.00     0.12   0.05  -0.02     0.02  -0.04   0.02
   7   1    -0.02  -0.04  -0.04     0.05   0.00   0.01     0.03  -0.02  -0.04
   8   6     0.04  -0.05   0.04     0.12   0.02  -0.09    -0.00  -0.08   0.08
   9   1     0.01  -0.02   0.01     0.07   0.03  -0.01    -0.01  -0.05   0.02
  10   6     0.12  -0.07   0.08     0.19  -0.01  -0.05    -0.01  -0.05   0.14
  11   1     0.04  -0.04  -0.00     0.06   0.05   0.02    -0.03   0.00   0.09
  12   8     0.15  -0.15   0.12     0.20   0.14  -0.07    -0.19  -0.12  -0.08
  13   8    -0.13   0.01   0.07     0.17  -0.42   0.26     0.36   0.01   0.07
  14   8     0.01   0.32  -0.13    -0.10   0.09   0.10     0.07  -0.13   0.06
  15   8    -0.13  -0.40   0.03     0.00   0.22   0.02    -0.34  -0.08   0.15
  16   8    -0.08   0.11   0.07    -0.20  -0.19   0.08     0.19   0.30  -0.05
  17   8    -0.02   0.32  -0.24    -0.48   0.01  -0.12    -0.26   0.20  -0.25
  18   1     0.09   0.20  -0.01    -0.02   0.06   0.06    -0.08  -0.20   0.04
  19   1    -0.11   0.11  -0.11    -0.07   0.04   0.02     0.21  -0.10  -0.02
  20   1    -0.10   0.01   0.02     0.07  -0.08   0.17     0.16  -0.01  -0.02
  21   1    -0.04  -0.05   0.04    -0.08  -0.04   0.03     0.05   0.09  -0.05
  22   1    -0.06  -0.09   0.04     0.00   0.06  -0.01    -0.15   0.02   0.09
  23   1    -0.16   0.05   0.13     0.00  -0.06  -0.03     0.04   0.10   0.02
  24   1    -0.03   0.03  -0.08    -0.15  -0.05  -0.08    -0.05   0.07  -0.15
                     10                     11                     12
                        a                      a                      a 
 Frequencies --   328.5431               366.7818               375.8981
 Red. masses --    12.4038                 8.2172                13.3643
 Frc consts  --     0.0000                 0.0000                 0.0000
 IR Inten    --    20.2336                20.7765                 5.3048
 Raman Activ --     0.0000                 0.0000                 0.0000
 Depolar     --     0.0000                 0.0000                 0.0000
 Atom AN      X      Y      Z        X      Y      Z        X      Y      Z
   1   6    -0.03   0.04  -0.09     0.01   0.08  -0.08    -0.09   0.12   0.02
   2   6     0.10  -0.18   0.00     0.03  -0.13   0.07    -0.00  -0.06  -0.02
   3   1     0.01  -0.04  -0.01    -0.01  -0.08   0.00     0.00   0.02   0.00
   4   6     0.06  -0.16  -0.03    -0.21  -0.05   0.06     0.02  -0.12  -0.23
   5   1    -0.01  -0.08  -0.02    -0.10  -0.05   0.06     0.02  -0.03  -0.09
   6   6     0.04  -0.00   0.04    -0.23   0.09   0.08     0.04  -0.10  -0.17
   7   1     0.01  -0.01   0.07    -0.11   0.04   0.05     0.01  -0.03  -0.04
   8   6     0.01  -0.04   0.09    -0.18   0.13   0.01     0.14  -0.06   0.00
   9   1    -0.00  -0.06   0.03    -0.09   0.08  -0.03     0.07  -0.04   0.03
  10   6     0.01  -0.06   0.15     0.00   0.08  -0.02     0.08   0.06   0.14
  11   1     0.02  -0.04   0.01     0.04   0.07  -0.03     0.01  -0.00   0.04
  12   8     0.00  -0.29   0.12     0.17   0.13   0.21     0.10   0.14   0.19
  13   8    -0.15   0.16   0.05    -0.02   0.02   0.05     0.10   0.29   0.06
  14   8     0.03   0.11   0.03     0.03  -0.34   0.02     0.14  -0.30   0.17
  15   8     0.00   0.45   0.09     0.17  -0.06  -0.07    -0.47   0.12  -0.03
  16   8     0.14   0.20  -0.20     0.17   0.07  -0.12    -0.11  -0.21  -0.26
  17   8    -0.17  -0.37  -0.18    -0.11   0.01  -0.16     0.08   0.11   0.11
  18   1     0.07   0.13  -0.03     0.05   0.10  -0.00     0.03   0.12  -0.00
  19   1    -0.14   0.05  -0.00    -0.08   0.04  -0.05    -0.13   0.05  -0.03
  20   1    -0.16   0.04  -0.01     0.57  -0.07  -0.04    -0.00   0.06  -0.04
  21   1     0.04   0.23  -0.12     0.07  -0.02   0.00     0.03  -0.14   0.09
  22   1     0.07   0.08  -0.06     0.09  -0.04  -0.04    -0.12   0.02   0.01
  23   1     0.12   0.10  -0.02    -0.01   0.02   0.00    -0.03  -0.06  -0.08
  24   1    -0.04  -0.07  -0.03    -0.10  -0.11  -0.07     0.04   0.06   0.07
                     13                     14                     15
                        a                      a                      a 
 Frequencies --   392.5791               434.5950               456.6153
 Red. masses --     7.8124                11.5418                 3.2674
 Frc consts  --     0.0000                 0.0000                 0.0000
 IR Inten    --   123.0204                14.6121                90.5771
 Raman Activ --     0.0000                 0.0000                 0.0000
 Depolar     --     0.0000                 0.0000                 0.0000
 Atom AN      X      Y      Z        X      Y      Z        X      Y      Z
   1   6     0.09   0.02   0.04    -0.15  -0.10  -0.03    -0.01  -0.02  -0.02
   2   6     0.05   0.10  -0.00    -0.13  -0.06  -0.07    -0.02  -0.02   0.00
   3   1    -0.01   0.08  -0.02    -0.01  -0.01  -0.00     0.01  -0.00   0.01
   4   6     0.19   0.05  -0.03    -0.01  -0.10  -0.10    -0.04   0.01  -0.03
   5   1     0.08   0.03  -0.04     0.02  -0.02  -0.07    -0.02   0.00   0.03
   6   6     0.19  -0.10  -0.09     0.09  -0.02   0.10    -0.04   0.04   0.03
   7   1     0.12  -0.06  -0.04    -0.03   0.02   0.04    -0.01   0.00   0.02
   8   6     0.01  -0.23  -0.02     0.24   0.12   0.06     0.01   0.04   0.13
   9   1     0.03  -0.13   0.02     0.08   0.05   0.02     0.03   0.05   0.06
  10   6    -0.10  -0.18   0.12     0.00   0.04  -0.13    -0.01  -0.06  -0.03
  11   1    -0.04  -0.08   0.02    -0.01  -0.01  -0.04    -0.01  -0.04  -0.02
  12   8    -0.08   0.00   0.20    -0.05   0.03  -0.19    -0.03  -0.09  -0.04
  13   8    -0.11   0.14  -0.13    -0.38  -0.23   0.03    -0.10  -0.12  -0.02
  14   8    -0.17   0.23  -0.15     0.25   0.22   0.14     0.08   0.22   0.02
  15   8    -0.02   0.13  -0.02    -0.15  -0.02   0.25    -0.06   0.01   0.05
  16   8    -0.19  -0.10   0.16     0.09   0.01  -0.22     0.04   0.11  -0.13
  17   8     0.02  -0.04   0.01     0.15   0.10   0.13     0.04   0.00  -0.01
  18   1     0.02  -0.01   0.01    -0.05  -0.05  -0.03    -0.00  -0.01  -0.01
  19   1     0.04   0.01   0.03    -0.02  -0.04  -0.03    -0.00  -0.01  -0.01
  20   1     0.59  -0.09  -0.22     0.31  -0.09   0.04     0.08  -0.04  -0.01
  21   1    -0.10   0.01  -0.04     0.07   0.23  -0.09    -0.04  -0.51   0.40
  22   1     0.01   0.02  -0.02    -0.00  -0.04   0.09    -0.01  -0.01   0.02
  23   1     0.02  -0.03  -0.01    -0.16   0.00   0.05     0.56   0.07  -0.27
  24   1    -0.03  -0.06  -0.00    -0.01  -0.05   0.06    -0.01  -0.03  -0.01
                     16                     17                     18
                        a                      a                      a 
 Frequencies --   472.7365               554.2355               571.3598
 Red. masses --    12.9614                10.9702                12.6648
 Frc consts  --     0.0000                 0.0000                 0.0000
 IR Inten    --    29.5621                14.0447                 2.6194
 Raman Activ --     0.0000                 0.0000                 0.0000
 Depolar     --     0.0000                 0.0000                 0.0000
 Atom AN      X      Y      Z        X      Y      Z        X      Y      Z
   1   6    -0.13  -0.01  -0.07     0.23   0.15   0.13     0.01   0.01  -0.02
   2   6    -0.21   0.03   0.02     0.22   0.18  -0.08    -0.09   0.04   0.09
   3   1    -0.04  -0.06   0.01     0.05   0.09  -0.02    -0.02  -0.06   0.02
   4   6    -0.21  -0.02   0.05    -0.17   0.21  -0.21    -0.14   0.06   0.19
   5   1    -0.01   0.05   0.00    -0.09   0.02  -0.03    -0.04   0.03   0.10
   6   6    -0.07  -0.35   0.19    -0.12   0.18   0.10    -0.21  -0.16  -0.22
   7   1     0.01  -0.12   0.11     0.00   0.04   0.01    -0.07  -0.04  -0.07
   8   6     0.06  -0.24  -0.00    -0.21  -0.01   0.32     0.15  -0.02   0.20
   9   1     0.00  -0.02  -0.01    -0.11   0.01   0.05     0.07  -0.00   0.08
  10   6     0.09  -0.17  -0.04    -0.01  -0.26   0.04     0.05  -0.15   0.00
  11   1    -0.03  -0.11   0.02     0.00  -0.11  -0.02    -0.02  -0.10   0.00
  12   8     0.15   0.50   0.10     0.03  -0.06   0.08     0.01   0.07  -0.03
  13   8     0.20  -0.03  -0.21     0.05  -0.18  -0.19    -0.04  -0.15  -0.11
  14   8    -0.11   0.13  -0.07     0.13   0.10  -0.00     0.35   0.09   0.20
  15   8     0.09   0.04   0.24    -0.03  -0.04   0.09    -0.11   0.19  -0.48
  16   8     0.15   0.07  -0.13    -0.03  -0.23  -0.26     0.00   0.06   0.26
  17   8    -0.01  -0.02  -0.03    -0.05  -0.03   0.02    -0.03  -0.06  -0.05
  18   1    -0.03   0.01  -0.04     0.07   0.05   0.06    -0.01  -0.03  -0.01
  19   1    -0.06  -0.00  -0.03     0.06   0.06   0.08     0.03  -0.00   0.01
  20   1    -0.11  -0.00  -0.10    -0.08  -0.05  -0.08     0.02  -0.05  -0.05
  21   1    -0.07   0.04  -0.06     0.12   0.12  -0.00     0.13   0.06   0.04
  22   1    -0.00   0.05  -0.02    -0.09   0.04   0.08    -0.03   0.08  -0.21
  23   1     0.06   0.02  -0.04    -0.15  -0.13  -0.10    -0.05   0.01   0.08
  24   1     0.04   0.06   0.02     0.01   0.02  -0.03     0.04   0.06   0.01
                     19                     20                     21
                        a                      a                      a 
 Frequencies --   592.0809               632.5892               667.2115
 Red. masses --     3.1961                12.5690                10.5142
 Frc consts  --     0.0000                 0.0000                 0.0000
 IR Inten    --   112.8713                30.2581                15.0536
 Raman Activ --     0.0000                 0.0000                 0.0000
 Depolar     --     0.0000                 0.0000                 0.0000
 Atom AN      X      Y      Z        X      Y      Z        X      Y      Z
   1   6     0.13   0.01   0.07     0.05   0.04   0.05     0.44   0.24   0.17
   2   6    -0.04   0.05   0.12     0.13   0.14  -0.18    -0.04   0.12   0.31
   3   1    -0.03   0.02   0.02     0.09  -0.04  -0.01    -0.03   0.01   0.07
   4   6    -0.01  -0.03  -0.02    -0.18   0.15   0.01    -0.08  -0.18   0.00
   5   1     0.01  -0.01  -0.03    -0.05   0.05   0.02     0.00  -0.04  -0.04
   6   6     0.01  -0.05  -0.04    -0.17  -0.22   0.05    -0.05  -0.30   0.05
   7   1    -0.04   0.00  -0.01     0.01  -0.09   0.02    -0.06  -0.07   0.09
   8   6     0.04   0.01   0.01    -0.06  -0.17   0.04     0.16   0.02  -0.13
   9   1     0.03  -0.02   0.02    -0.05  -0.01  -0.01     0.06   0.03  -0.03
  10   6    -0.10   0.02  -0.03     0.34  -0.04   0.17    -0.12   0.21  -0.13
  11   1    -0.04  -0.01  -0.00     0.07  -0.03   0.06    -0.07   0.07   0.01
  12   8    -0.08   0.04   0.07     0.10  -0.06  -0.48    -0.22   0.01  -0.17
  13   8     0.12  -0.03  -0.11    -0.23   0.26   0.30    -0.01   0.02   0.07
  14   8     0.05   0.03   0.03    -0.08  -0.09  -0.05     0.02   0.01   0.04
  15   8    -0.16   0.07   0.06    -0.01   0.05   0.03     0.07   0.03   0.05
  16   8    -0.02  -0.04  -0.04     0.02  -0.02  -0.01    -0.05  -0.10  -0.14
  17   8     0.01   0.15  -0.01     0.02   0.01   0.08    -0.07  -0.13  -0.12
  18   1     0.02  -0.02   0.02    -0.03  -0.06   0.03     0.10   0.03   0.04
  19   1     0.07  -0.01   0.00     0.10  -0.00   0.06     0.15   0.07   0.09
  20   1    -0.14   0.02   0.02     0.08   0.03   0.02     0.06   0.02   0.09
  21   1     0.01   0.01   0.00    -0.02  -0.02  -0.01    -0.04  -0.02  -0.00
  22   1     0.59  -0.41  -0.20     0.17  -0.09  -0.12    -0.20   0.18   0.01
  23   1    -0.01  -0.02  -0.01     0.01  -0.03  -0.05     0.01  -0.01  -0.03
  24   1    -0.26  -0.40  -0.17    -0.02  -0.03   0.05    -0.01  -0.02  -0.13
                     22                     23                     24
                        a                      a                      a 
 Frequencies --   739.4319               797.7843               857.7214
 Red. masses --     2.7816                11.2049                 9.6871
 Frc consts  --     0.0000                 0.0000                 0.0000
 IR Inten    --   223.1120                15.9214                13.2080
 Raman Activ --     0.0000                 0.0000                 0.0000
 Depolar     --     0.0000                 0.0000                 0.0000
 Atom AN      X      Y      Z        X      Y      Z        X      Y      Z
   1   6     0.04   0.14   0.02    -0.05   0.01  -0.03    -0.21   0.00  -0.08
   2   6     0.01   0.05   0.03    -0.24   0.07   0.32    -0.14   0.16   0.26
   3   1    -0.01   0.02  -0.00    -0.05  -0.01   0.09     0.02   0.08   0.11
   4   6     0.04  -0.09  -0.00    -0.30   0.33  -0.00     0.15   0.18  -0.10
   5   1     0.01  -0.04  -0.03    -0.06   0.12   0.01     0.13   0.14  -0.11
   6   6    -0.00  -0.01   0.03     0.07   0.21  -0.02     0.06  -0.34  -0.01
   7   1    -0.06   0.03   0.00     0.03   0.05  -0.02     0.11  -0.12  -0.04
   8   6     0.03   0.09  -0.06     0.31   0.01  -0.29    -0.31   0.03   0.22
   9   1     0.02   0.03  -0.01     0.09   0.04  -0.08    -0.08   0.03   0.05
  10   6    -0.05   0.02   0.00     0.28  -0.17   0.01     0.03   0.23  -0.17
  11   1     0.01   0.03  -0.01     0.08  -0.05  -0.00     0.13   0.14  -0.15
  12   8    -0.01  -0.04   0.06    -0.01  -0.31   0.18     0.25  -0.23   0.09
  13   8    -0.01  -0.10  -0.01    -0.03   0.05   0.04    -0.00  -0.02  -0.03
  14   8    -0.01  -0.01  -0.00    -0.02  -0.03   0.02     0.01   0.01  -0.02
  15   8    -0.06  -0.02   0.09     0.01  -0.03   0.03    -0.01   0.04   0.04
  16   8    -0.03  -0.03  -0.05     0.01  -0.04  -0.05    -0.03  -0.04  -0.02
  17   8    -0.16  -0.09  -0.12     0.02  -0.03  -0.14     0.06  -0.02  -0.15
  18   1    -0.04  -0.04   0.04    -0.04  -0.04  -0.06    -0.11  -0.10  -0.08
  19   1     0.11   0.01   0.03     0.02  -0.01  -0.04     0.04  -0.03  -0.03
  20   1     0.07  -0.04  -0.04    -0.00  -0.01  -0.06     0.03   0.04   0.17
  21   1    -0.01  -0.01   0.00    -0.12  -0.01  -0.08     0.14   0.03   0.07
  22   1     0.37  -0.25  -0.18     0.00  -0.03   0.09    -0.02   0.04  -0.08
  23   1     0.02   0.01  -0.00    -0.06  -0.10  -0.12    -0.06  -0.06  -0.06
  24   1     0.36   0.64   0.25     0.00  -0.01  -0.02     0.00  -0.02   0.03
                     25                     26                     27
                        a                      a                      a 
 Frequencies --   871.9302               895.7968               953.4052
 Red. masses --     8.8370                10.5547                 7.4567
 Frc consts  --     0.0000                 0.0000                 0.0000
 IR Inten    --    18.1974                39.7042                66.3091
 Raman Activ --     0.0000                 0.0000                 0.0000
 Depolar     --     0.0000                 0.0000                 0.0000
 Atom AN      X      Y      Z        X      Y      Z        X      Y      Z
   1   6     0.11  -0.17   0.08    -0.10   0.16   0.00     0.13  -0.31   0.12
   2   6    -0.03  -0.26   0.27    -0.19   0.09   0.35    -0.10  -0.02   0.12
   3   1     0.07  -0.19   0.12     0.04   0.00   0.16    -0.04   0.14   0.04
   4   6    -0.19   0.20   0.01     0.22  -0.34   0.02     0.25   0.04  -0.14
   5   1    -0.05   0.06   0.01     0.03  -0.13   0.00     0.16   0.10  -0.10
   6   6     0.26   0.16  -0.11     0.07   0.32  -0.04    -0.09  -0.09   0.07
   7   1     0.18   0.00  -0.09    -0.04   0.10   0.02    -0.05  -0.01   0.00
   8   6    -0.07  -0.23   0.16    -0.15  -0.01   0.15    -0.10   0.20   0.02
   9   1     0.02  -0.20   0.09    -0.06  -0.02   0.03    -0.08   0.27  -0.06
  10   6    -0.22   0.14   0.00     0.19  -0.21   0.13     0.29  -0.24  -0.09
  11   1    -0.08   0.02   0.02     0.00  -0.10   0.07     0.01  -0.07   0.05
  12   8     0.11   0.14  -0.31     0.09   0.21  -0.24    -0.24   0.09  -0.05
  13   8     0.00   0.01   0.05    -0.04   0.02   0.04    -0.04   0.04   0.09
  14   8    -0.00   0.04  -0.03    -0.07  -0.03  -0.07    -0.04  -0.03  -0.03
  15   8    -0.05  -0.00   0.00    -0.02  -0.02  -0.08    -0.01   0.01  -0.01
  16   8     0.03  -0.01  -0.00    -0.06  -0.06  -0.09    -0.01   0.02   0.06
  17   8    -0.04   0.00  -0.09     0.06  -0.06  -0.18    -0.02   0.05  -0.04
  18   1     0.17   0.17   0.05    -0.14  -0.15  -0.06     0.24   0.23  -0.01
  19   1    -0.21  -0.01  -0.11     0.17  -0.01   0.01    -0.32  -0.01  -0.07
  20   1     0.04   0.01   0.06    -0.03  -0.03  -0.10     0.00  -0.02  -0.08
  21   1     0.01   0.01  -0.00     0.04   0.01   0.01     0.07   0.02   0.03
  22   1     0.07  -0.08   0.06    -0.02  -0.03   0.11     0.04  -0.01  -0.07
  23   1    -0.03  -0.05  -0.05     0.02   0.07   0.10    -0.02  -0.01   0.00
  24   1     0.09   0.16  -0.07    -0.02  -0.07   0.00     0.06   0.11  -0.17
                     28                     29                     30
                        a                      a                      a 
 Frequencies --   997.6870              1024.5028              1057.8134
 Red. masses --    10.0246                11.1913                 6.6090
 Frc consts  --     0.0000                 0.0000                 0.0000
 IR Inten    --    20.2069               116.9502                15.8388
 Raman Activ --     0.0000                 0.0000                 0.0000
 Depolar     --     0.0000                 0.0000                 0.0000
 Atom AN      X      Y      Z        X      Y      Z        X      Y      Z
   1   6    -0.36  -0.16   0.08     0.08  -0.09  -0.04     0.05  -0.17   0.01
   2   6     0.46   0.12   0.21    -0.14   0.12   0.01    -0.15   0.32  -0.06
   3   1     0.26   0.22   0.17     0.03  -0.03   0.04    -0.06   0.30  -0.02
   4   6     0.04   0.07  -0.12     0.05   0.02  -0.06     0.00  -0.18  -0.06
   5   1    -0.10  -0.11  -0.01     0.13   0.14  -0.06    -0.06  -0.07   0.10
   6   6    -0.25  -0.04   0.05    -0.06  -0.07  -0.00    -0.19   0.20   0.03
   7   1    -0.12   0.01   0.04    -0.15   0.03   0.06    -0.14   0.07   0.10
   8   6     0.14  -0.05  -0.12     0.04   0.20  -0.13     0.09  -0.34   0.11
   9   1     0.01  -0.02  -0.05    -0.03  -0.09  -0.03     0.06  -0.28   0.08
  10   6    -0.24  -0.01   0.04    -0.08   0.22   0.65     0.13   0.16  -0.10
  11   1    -0.12  -0.04   0.06     0.03   0.04   0.08     0.09   0.01  -0.12
  12   8    -0.03   0.05  -0.07     0.25  -0.08  -0.15     0.09  -0.11   0.05
  13   8     0.03   0.02   0.05    -0.07  -0.23  -0.29    -0.01   0.01  -0.08
  14   8     0.06   0.03   0.07    -0.02  -0.05   0.02     0.02   0.01  -0.02
  15   8     0.04  -0.01   0.06     0.03  -0.01   0.04     0.00  -0.02  -0.02
  16   8     0.00  -0.03   0.05    -0.00  -0.01   0.01     0.00  -0.01   0.03
  17   8     0.17   0.02  -0.30    -0.04   0.02   0.04    -0.03   0.04   0.03
  18   1    -0.07  -0.01   0.01     0.08   0.07  -0.03     0.11   0.10  -0.16
  19   1    -0.10  -0.05  -0.05    -0.09   0.01  -0.01    -0.17   0.03   0.07
  20   1    -0.01  -0.01  -0.05    -0.04  -0.09  -0.19     0.07   0.08   0.26
  21   1    -0.08  -0.02  -0.03    -0.04  -0.03  -0.01    -0.11  -0.02  -0.07
  22   1    -0.01   0.02  -0.05    -0.03   0.03  -0.01     0.03  -0.03   0.03
  23   1    -0.01  -0.02  -0.01     0.01   0.01   0.02     0.05   0.08   0.11
  24   1     0.02  -0.02   0.01    -0.01  -0.02  -0.05     0.05   0.10  -0.15
                     31                     32                     33
                        a                      a                      a 
 Frequencies --  1061.7204              1078.2051              1087.2841
 Red. masses --    12.0860                11.4013                10.5338
 Frc consts  --     0.0000                 0.0000                 0.0000
 IR Inten    --    17.2603               197.7068                65.4952
 Raman Activ --     0.0000                 0.0000                 0.0000
 Depolar     --     0.0000                 0.0000                 0.0000
 Atom AN      X      Y      Z        X      Y      Z        X      Y      Z
   1   6     0.00  -0.09  -0.05    -0.09  -0.07   0.06    -0.02  -0.05  -0.07
   2   6    -0.03   0.08  -0.01     0.20  -0.01   0.04     0.04   0.07  -0.01
   3   1    -0.00  -0.06  -0.01     0.00   0.06  -0.01     0.03  -0.07   0.00
   4   6     0.28   0.12   0.48    -0.01   0.04   0.28     0.08   0.10   0.21
   5   1     0.09   0.11   0.23    -0.15  -0.13   0.20     0.08   0.11   0.06
   6   6    -0.12   0.04   0.06     0.06  -0.06  -0.13    -0.03  -0.03   0.05
   7   1     0.07  -0.02  -0.07     0.20  -0.07  -0.15    -0.20   0.08   0.03
   8   6    -0.12  -0.12  -0.24     0.03   0.06   0.12     0.36   0.23   0.34
   9   1    -0.09   0.00  -0.10     0.05   0.01   0.05     0.28   0.01   0.20
  10   6    -0.13  -0.08  -0.04     0.39   0.27   0.17    -0.18  -0.09  -0.08
  11   1    -0.01   0.02  -0.01     0.07   0.04   0.04    -0.11  -0.15  -0.01
  12   8     0.10  -0.03  -0.02    -0.36   0.10   0.07     0.13  -0.06  -0.01
  13   8     0.02   0.06   0.10    -0.08  -0.16  -0.31     0.04   0.04   0.10
  14   8     0.17   0.11   0.20    -0.11  -0.08  -0.11    -0.31  -0.17  -0.36
  15   8     0.03  -0.01  -0.03     0.03   0.02   0.08    -0.01   0.01  -0.03
  16   8    -0.19  -0.14  -0.47    -0.08  -0.07  -0.20    -0.08  -0.05  -0.18
  17   8    -0.02   0.02   0.06     0.05   0.01  -0.10    -0.01   0.01   0.05
  18   1     0.04   0.03  -0.06     0.00   0.02   0.07     0.01   0.01  -0.04
  19   1    -0.06  -0.00   0.01    -0.04  -0.02  -0.01    -0.02  -0.00   0.00
  20   1    -0.00  -0.01  -0.06     0.02   0.01   0.11     0.02   0.02   0.06
  21   1    -0.05  -0.01   0.01     0.05   0.00   0.02     0.10   0.02  -0.00
  22   1     0.02   0.00  -0.05     0.00   0.01  -0.01    -0.02   0.03  -0.06
  23   1    -0.03   0.07   0.05     0.00   0.04   0.03    -0.03  -0.00  -0.02
  24   1     0.00   0.02  -0.04     0.00  -0.01   0.05    -0.01  -0.01  -0.02
                     34                     35                     36
                        a                      a                      a 
 Frequencies --  1115.4305              1124.4418              1129.0222
 Red. masses --     7.8445                 9.3935                11.4381
 Frc consts  --     0.0000                 0.0000                 0.0000
 IR Inten    --    13.9541                53.1621               173.4505
 Raman Activ --     0.0000                 0.0000                 0.0000
 Depolar     --     0.0000                 0.0000                 0.0000
 Atom AN      X      Y      Z        X      Y      Z        X      Y      Z
   1   6    -0.04  -0.11   0.09     0.09  -0.08  -0.54     0.09   0.02  -0.20
   2   6    -0.02   0.31  -0.10     0.20   0.10   0.27    -0.03  -0.07   0.11
   3   1     0.04   0.13   0.01     0.01   0.05   0.03    -0.04  -0.04  -0.00
   4   6    -0.30  -0.19   0.10     0.00   0.01   0.01     0.15   0.06  -0.11
   5   1    -0.20  -0.17   0.13    -0.17  -0.27  -0.11    -0.05  -0.06   0.05
   6   6     0.28  -0.14  -0.22     0.10  -0.02   0.18    -0.33   0.04  -0.51
   7   1     0.15  -0.07  -0.05     0.11  -0.03  -0.03    -0.07   0.03  -0.21
   8   6    -0.12   0.22  -0.10     0.03   0.00   0.02    -0.07   0.00  -0.07
   9   1     0.13   0.10   0.06    -0.11   0.12  -0.08     0.19  -0.13   0.13
  10   6    -0.14  -0.16  -0.00    -0.01   0.04   0.04     0.03  -0.07  -0.05
  11   1     0.05   0.07  -0.04    -0.05  -0.03   0.04    -0.01  -0.01   0.01
  12   8     0.14  -0.07  -0.01    -0.04   0.04  -0.04    -0.01   0.04  -0.03
  13   8     0.02   0.03   0.14    -0.00  -0.02  -0.02     0.01   0.02   0.05
  14   8    -0.02   0.01  -0.00    -0.01  -0.00  -0.01     0.04  -0.00   0.03
  15   8     0.02   0.01   0.09    -0.06  -0.00  -0.13     0.19  -0.01   0.50
  16   8     0.03  -0.02   0.02     0.02   0.00   0.02    -0.02   0.03   0.07
  17   8     0.03   0.04  -0.03    -0.21   0.01   0.38    -0.10  -0.02   0.16
  18   1     0.05   0.04  -0.18     0.01  -0.05  -0.32    -0.00  -0.03  -0.07
  19   1    -0.11   0.04   0.14    -0.01   0.01  -0.04     0.03  -0.00  -0.05
  20   1    -0.04  -0.06  -0.21     0.01   0.00   0.01    -0.01  -0.01  -0.03
  21   1     0.18   0.04   0.10    -0.04  -0.01  -0.02     0.10   0.02   0.06
  22   1     0.01  -0.02   0.08     0.01  -0.01  -0.05    -0.00   0.08  -0.07
  23   1     0.04   0.08   0.12    -0.02  -0.09  -0.12    -0.04  -0.05  -0.05
  24   1     0.03   0.05  -0.18    -0.01   0.05  -0.04    -0.02  -0.01   0.04
                     37                     38                     39
                        a                      a                      a 
 Frequencies --  1170.7702              1185.8200              1202.4846
 Red. masses --     3.9574                 4.2335                 3.0462
 Frc consts  --     0.0000                 0.0000                 0.0000
 IR Inten    --    46.5275                45.9623                 3.5191
 Raman Activ --     0.0000                 0.0000                 0.0000
 Depolar     --     0.0000                 0.0000                 0.0000
 Atom AN      X      Y      Z        X      Y      Z        X      Y      Z
   1   6     0.03   0.06   0.10    -0.08   0.03   0.28    -0.12   0.07   0.07
   2   6    -0.19  -0.06  -0.07    -0.15  -0.06  -0.13     0.19  -0.11  -0.01
   3   1    -0.02   0.10   0.01    -0.11  -0.09  -0.08     0.17  -0.31   0.07
   4   6     0.02  -0.00  -0.12     0.20   0.07   0.22    -0.07  -0.00  -0.05
   5   1    -0.12  -0.07   0.18    -0.15  -0.38  -0.30     0.17   0.24  -0.01
   6   6    -0.04  -0.00  -0.09    -0.07   0.02   0.07     0.03  -0.03  -0.13
   7   1     0.20  -0.03  -0.34    -0.02   0.03  -0.11    -0.10   0.02   0.07
   8   6     0.17   0.07   0.17     0.02  -0.01  -0.00    -0.07   0.07  -0.05
   9   1    -0.31   0.30  -0.22     0.00  -0.07   0.01    -0.07  -0.03  -0.04
  10   6    -0.13   0.00   0.06    -0.00   0.03   0.03     0.05  -0.07   0.05
  11   1    -0.19  -0.26   0.05    -0.00   0.02   0.02    -0.04  -0.12   0.01
  12   8     0.20  -0.06  -0.02     0.07  -0.00  -0.02    -0.14   0.05   0.07
  13   8     0.02   0.02  -0.03    -0.01  -0.02  -0.01    -0.01   0.02  -0.11
  14   8     0.02  -0.05  -0.04    -0.01  -0.00  -0.00     0.04   0.00   0.04
  15   8     0.03   0.01   0.14     0.01  -0.01   0.00     0.02   0.02   0.04
  16   8    -0.01  -0.02   0.02     0.03   0.12   0.02    -0.01  -0.03  -0.00
  17   8     0.02  -0.01  -0.04     0.10   0.02  -0.10     0.03  -0.00   0.06
  18   1    -0.01  -0.01  -0.00    -0.02  -0.02  -0.15    -0.07  -0.10  -0.44
  19   1     0.01   0.01   0.02    -0.03   0.06   0.23     0.03   0.07   0.28
  20   1     0.05   0.07   0.21     0.00  -0.01  -0.03     0.07   0.09   0.29
  21   1    -0.25  -0.06  -0.15     0.00  -0.00   0.00    -0.04  -0.01  -0.01
  22   1    -0.01   0.06  -0.16    -0.01   0.04  -0.11     0.03  -0.04   0.09
  23   1     0.05   0.09   0.12    -0.14  -0.29  -0.41     0.03   0.06   0.08
  24   1     0.01   0.00  -0.03     0.05   0.04  -0.23     0.09   0.12  -0.38
                     40                     41                     42
                        a                      a                      a 
 Frequencies --  1213.7156              1215.0044              1255.2783
 Red. masses --     3.7536                 4.9858                 4.0033
 Frc consts  --     0.0000                 0.0000                 0.0000
 IR Inten    --    93.6556                24.4333                16.2827
 Raman Activ --     0.0000                 0.0000                 0.0000
 Depolar     --     0.0000                 0.0000                 0.0000
 Atom AN      X      Y      Z        X      Y      Z        X      Y      Z
   1   6    -0.02  -0.04  -0.02    -0.01   0.13   0.07    -0.02  -0.04  -0.00
   2   6     0.08   0.06   0.02    -0.03  -0.28  -0.01     0.02   0.07   0.02
   3   1     0.02  -0.09   0.00     0.02   0.14   0.03    -0.11  -0.14  -0.09
   4   6    -0.08  -0.03   0.06     0.08   0.09  -0.19     0.14   0.06   0.01
   5   1     0.04   0.05  -0.03    -0.01   0.10   0.21    -0.08  -0.06   0.20
   6   6     0.16  -0.06  -0.07    -0.18   0.05   0.17    -0.03  -0.12  -0.36
   7   1    -0.21   0.13  -0.18     0.18  -0.07  -0.07    -0.11  -0.08   0.41
   8   6     0.04   0.15   0.26     0.12  -0.17   0.11     0.08  -0.08   0.19
   9   1    -0.28  -0.29  -0.07     0.15   0.13   0.08    -0.22   0.20  -0.14
  10   6     0.05  -0.02  -0.16     0.02   0.20  -0.07    -0.01   0.13  -0.07
  11   1     0.21   0.23  -0.13     0.03   0.26   0.11    -0.07   0.02   0.06
  12   8    -0.12   0.04   0.01     0.00  -0.01   0.02     0.03  -0.04   0.02
  13   8     0.00  -0.03   0.12    -0.03  -0.08   0.09     0.00  -0.03   0.05
  14   8     0.09  -0.04  -0.02    -0.04  -0.02  -0.07     0.01  -0.01  -0.02
  15   8    -0.00  -0.00   0.09    -0.02   0.00  -0.05     0.03   0.09  -0.02
  16   8    -0.01  -0.02  -0.02    -0.02  -0.02  -0.00    -0.04   0.05   0.01
  17   8     0.01   0.02   0.00     0.00  -0.01   0.05    -0.01   0.01  -0.01
  18   1     0.01   0.01  -0.03    -0.06  -0.10  -0.28     0.01   0.02   0.02
  19   1    -0.01   0.01   0.04     0.06   0.03   0.11    -0.02   0.00   0.03
  20   1    -0.06  -0.10  -0.31    -0.08  -0.14  -0.43    -0.03  -0.05  -0.16
  21   1    -0.39  -0.11  -0.22     0.03   0.02  -0.01    -0.11  -0.02  -0.07
  22   1    -0.04   0.09  -0.20     0.03  -0.02  -0.01     0.08  -0.17   0.47
  23   1     0.04   0.03   0.02     0.03   0.08   0.12    -0.06  -0.10  -0.14
  24   1    -0.02  -0.02   0.00     0.02   0.03  -0.22     0.01   0.02   0.04
                     43                     44                     45
                        a                      a                      a 
 Frequencies --  1278.3509              1290.9233              1304.0900
 Red. masses --     4.5903                 3.7806                 3.7640
 Frc consts  --     0.0000                 0.0000                 0.0000
 IR Inten    --     8.4952                 0.9641                22.2696
 Raman Activ --     0.0000                 0.0000                 0.0000
 Depolar     --     0.0000                 0.0000                 0.0000
 Atom AN      X      Y      Z        X      Y      Z        X      Y      Z
   1   6     0.05   0.14   0.05    -0.05  -0.05  -0.04     0.02   0.01   0.01
   2   6    -0.05  -0.30  -0.04     0.17  -0.03   0.09    -0.06   0.06  -0.04
   3   1     0.00   0.50   0.04    -0.30   0.25  -0.20     0.10  -0.14   0.06
   4   6     0.03   0.13   0.04    -0.19  -0.14   0.17     0.06   0.04   0.01
   5   1    -0.10  -0.01   0.25     0.24   0.19  -0.30     0.01  -0.12  -0.31
   6   6     0.10  -0.17   0.02    -0.07   0.06  -0.08    -0.34  -0.02   0.04
   7   1    -0.07  -0.03   0.15     0.12  -0.04  -0.07     0.44  -0.23  -0.01
   8   6    -0.05   0.30  -0.06    -0.05   0.05   0.01     0.06   0.25   0.03
   9   1    -0.12  -0.42  -0.01    -0.07  -0.15  -0.01     0.06  -0.21   0.08
  10   6     0.04  -0.10  -0.01     0.12   0.18  -0.14    -0.04  -0.02   0.01
  11   1    -0.05  -0.12   0.00    -0.35  -0.23   0.26     0.12  -0.14  -0.26
  12   8     0.04   0.05  -0.06     0.11  -0.06  -0.01    -0.05   0.02   0.01
  13   8    -0.00   0.01   0.00    -0.01  -0.04   0.06     0.04  -0.00   0.07
  14   8     0.00  -0.01   0.04     0.00  -0.00   0.02     0.05  -0.04  -0.02
  15   8    -0.01   0.02  -0.05     0.03   0.01   0.02     0.04   0.06  -0.08
  16   8    -0.02   0.05  -0.02     0.02  -0.01  -0.02     0.02  -0.08  -0.00
  17   8    -0.03  -0.06   0.07     0.01   0.05  -0.04    -0.02  -0.02   0.02
  18   1    -0.06  -0.08  -0.09     0.01   0.01  -0.04    -0.00  -0.00   0.03
  19   1     0.05  -0.04  -0.23     0.01   0.04   0.21    -0.01  -0.02  -0.11
  20   1     0.02   0.02   0.06    -0.02  -0.05  -0.15    -0.01  -0.02  -0.05
  21   1    -0.01  -0.01   0.01     0.00  -0.00   0.01    -0.17  -0.04  -0.11
  22   1     0.02  -0.04   0.10     0.01  -0.02   0.07     0.06  -0.12   0.32
  23   1    -0.06  -0.07  -0.09     0.03   0.01   0.01     0.08   0.10   0.15
  24   1     0.02   0.03  -0.11    -0.01  -0.01   0.08     0.02   0.02  -0.04
                     46                     47                     48
                        a                      a                      a 
 Frequencies --  1308.7078              1325.5711              1327.4391
 Red. masses --     3.8892                 3.8467                 4.3812
 Frc consts  --     0.0000                 0.0000                 0.0000
 IR Inten    --    15.3279                72.4450                58.1560
 Raman Activ --     0.0000                 0.0000                 0.0000
 Depolar     --     0.0000                 0.0000                 0.0000
 Atom AN      X      Y      Z        X      Y      Z        X      Y      Z
   1   6    -0.03  -0.11  -0.04    -0.05  -0.04  -0.13    -0.05   0.01   0.08
   2   6     0.01   0.04   0.13     0.08  -0.10   0.11     0.07  -0.11   0.15
   3   1    -0.19  -0.27  -0.12    -0.14   0.21  -0.07    -0.44  -0.00  -0.29
   4   6     0.12   0.01  -0.30    -0.03  -0.19   0.01     0.07   0.35  -0.06
   5   1    -0.12  -0.01   0.38     0.12   0.19   0.19    -0.18  -0.21  -0.15
   6   6    -0.01  -0.01   0.19    -0.04  -0.00   0.03     0.09  -0.10   0.02
   7   1     0.13  -0.06   0.04     0.13  -0.05  -0.06    -0.20   0.06   0.10
   8   6     0.06   0.15  -0.09    -0.12   0.07   0.02    -0.14   0.02  -0.03
   9   1    -0.11  -0.32  -0.05     0.26   0.18   0.17     0.17   0.09   0.11
  10   6     0.02   0.03  -0.02    -0.11  -0.16   0.15    -0.03  -0.09   0.07
  11   1     0.01  -0.20  -0.16     0.20   0.10  -0.15     0.04   0.03  -0.01
  12   8    -0.02   0.01  -0.02     0.01   0.07  -0.11     0.06   0.03  -0.10
  13   8     0.03  -0.00   0.06     0.01   0.03  -0.05    -0.01   0.02  -0.03
  14   8    -0.08   0.01   0.03     0.14  -0.03  -0.04     0.08  -0.01  -0.01
  15   8    -0.04  -0.04  -0.04     0.01   0.02  -0.03    -0.01   0.00  -0.01
  16   8    -0.02   0.03   0.03    -0.02   0.13   0.02     0.00  -0.17  -0.04
  17   8     0.02   0.09  -0.10     0.02   0.03  -0.02     0.02   0.01  -0.03
  18   1     0.05   0.05  -0.00     0.02   0.05   0.11    -0.03  -0.04  -0.05
  19   1    -0.01   0.08   0.39     0.05   0.06   0.28    -0.02   0.01   0.04
  20   1    -0.01  -0.02  -0.05     0.02   0.05   0.14     0.01   0.03   0.08
  21   1     0.17   0.04   0.12    -0.30  -0.06  -0.21    -0.14  -0.04  -0.10
  22   1    -0.01   0.03  -0.12     0.02  -0.03   0.09    -0.01   0.01  -0.00
  23   1    -0.02  -0.01  -0.01    -0.11  -0.18  -0.26     0.16   0.23   0.33
  24   1    -0.04  -0.04   0.18     0.01   0.00   0.02    -0.00  -0.00   0.00
                     49                     50                     51
                        a                      a                      a 
 Frequencies --  1328.3368              1341.1923              1347.3212
 Red. masses --     3.5151                 3.9585                 4.4320
 Frc consts  --     0.0000                 0.0000                 0.0000
 IR Inten    --     7.6964                49.9187                66.9268
 Raman Activ --     0.0000                 0.0000                 0.0000
 Depolar     --     0.0000                 0.0000                 0.0000
 Atom AN      X      Y      Z        X      Y      Z        X      Y      Z
   1   6    -0.03   0.05   0.06     0.15  -0.09  -0.12    -0.05   0.00  -0.05
   2   6     0.11  -0.11   0.06    -0.16  -0.27  -0.08     0.06  -0.02   0.09
   3   1    -0.17   0.17  -0.11     0.30   0.24   0.24    -0.17   0.05  -0.11
   4   6    -0.08  -0.04   0.09     0.00   0.18   0.12    -0.02  -0.02   0.00
   5   1     0.09   0.09  -0.09    -0.03  -0.08  -0.19     0.05   0.03  -0.09
   6   6     0.01   0.05  -0.09     0.01  -0.02  -0.10    -0.15   0.00  -0.01
   7   1    -0.09   0.06  -0.06    -0.09   0.01   0.11     0.09  -0.03  -0.14
   8   6     0.14  -0.18  -0.00     0.04  -0.04   0.02     0.30   0.02   0.05
   9   1    -0.15   0.15  -0.15    -0.05   0.05  -0.04    -0.27  -0.13  -0.19
  10   6    -0.10   0.12   0.15    -0.03  -0.03   0.02    -0.12  -0.30   0.02
  11   1     0.29  -0.28  -0.58     0.08   0.03  -0.08     0.16   0.51   0.17
  12   8    -0.07   0.06  -0.09    -0.03   0.04   0.01     0.05   0.04  -0.07
  13   8     0.07  -0.02   0.11     0.02   0.01  -0.00    -0.04   0.06  -0.11
  14   8    -0.11   0.02   0.01    -0.02   0.01   0.00    -0.14   0.01   0.01
  15   8     0.02   0.01   0.04     0.01   0.00   0.01     0.03   0.05  -0.01
  16   8     0.01   0.00  -0.01     0.01  -0.06  -0.02     0.01  -0.02  -0.00
  17   8    -0.00  -0.02   0.02    -0.06   0.12  -0.12     0.03  -0.01   0.01
  18   1    -0.03  -0.04  -0.07     0.08   0.02  -0.12    -0.01   0.02   0.10
  19   1     0.01  -0.03  -0.10     0.00   0.12   0.48     0.02   0.01   0.06
  20   1    -0.01  -0.04  -0.10    -0.01   0.01   0.03     0.03   0.07   0.19
  21   1     0.21   0.05   0.14     0.04   0.00   0.03     0.23   0.04   0.17
  22   1     0.00   0.01   0.00    -0.01  -0.01   0.07     0.04  -0.05   0.16
  23   1    -0.01  -0.01  -0.01     0.04   0.07   0.10     0.02   0.04   0.05
  24   1     0.01   0.01  -0.08    -0.08  -0.08   0.39     0.03   0.03  -0.07
                     52                     53                     54
                        a                      a                      a 
 Frequencies --  1356.0924              1380.6754              1460.7578
 Red. masses --     3.5583                 3.1130                 1.7704
 Frc consts  --     0.0000                 0.0000                 0.0000
 IR Inten    --    60.7720               102.3738                 3.0604
 Raman Activ --     0.0000                 0.0000                 0.0000
 Depolar     --     0.0000                 0.0000                 0.0000
 Atom AN      X      Y      Z        X      Y      Z        X      Y      Z
   1   6     0.16  -0.03   0.33     0.05  -0.02   0.03    -0.24  -0.07   0.06
   2   6     0.09   0.05  -0.01    -0.01   0.03  -0.01    -0.03  -0.02  -0.01
   3   1    -0.10  -0.06  -0.09     0.03  -0.06   0.01    -0.00   0.00   0.00
   4   6    -0.02  -0.11   0.01     0.01  -0.02  -0.07     0.01   0.02  -0.00
   5   1     0.07   0.07   0.03    -0.03  -0.01   0.08    -0.02  -0.02  -0.01
   6   6    -0.04   0.05  -0.01     0.01  -0.21   0.22    -0.00  -0.00   0.00
   7   1     0.12  -0.06   0.06    -0.29   0.20  -0.62    -0.00   0.00  -0.00
   8   6     0.03   0.03   0.02    -0.07  -0.06  -0.06    -0.00   0.00  -0.00
   9   1     0.01   0.02   0.01     0.06  -0.01   0.03     0.00   0.00   0.00
  10   6    -0.05  -0.09   0.03     0.03   0.05  -0.02    -0.00  -0.01   0.00
  11   1     0.05   0.12   0.03    -0.05  -0.07   0.01     0.00   0.00   0.00
  12   8     0.01   0.01  -0.02    -0.01  -0.01   0.02     0.01   0.00   0.00
  13   8    -0.00   0.02  -0.04     0.01  -0.01   0.01     0.00   0.00  -0.00
  14   8     0.01  -0.01  -0.01     0.01   0.01   0.01     0.00   0.00  -0.00
  15   8    -0.00  -0.02  -0.00     0.07   0.19  -0.10     0.00   0.00  -0.00
  16   8    -0.00   0.04   0.01     0.00   0.01   0.01     0.00  -0.01   0.00
  17   8    -0.11   0.08  -0.13    -0.03   0.02  -0.04    -0.03  -0.01   0.02
  18   1     0.01  -0.13  -0.57     0.01  -0.01  -0.08     0.36   0.53  -0.21
  19   1    -0.13  -0.06  -0.29    -0.02   0.00  -0.01     0.65  -0.21  -0.08
  20   1    -0.00   0.03   0.08    -0.01  -0.00  -0.01    -0.00   0.00   0.00
  21   1    -0.04  -0.01  -0.03     0.03  -0.01   0.03    -0.00  -0.00  -0.00
  22   1    -0.03   0.02  -0.04     0.06  -0.13   0.49    -0.01   0.00   0.01
  23   1    -0.03  -0.05  -0.08    -0.01  -0.01  -0.02     0.00   0.01   0.01
  24   1    -0.11  -0.09   0.47    -0.02  -0.01   0.14    -0.01  -0.01   0.04
                     55                     56                     57
                        a                      a                      a 
 Frequencies --  2893.6694              2901.8932              2906.9929
 Red. masses --     1.7339                 1.7295                 1.7511
 Frc consts  --     0.0000                 0.0000                 0.0000
 IR Inten    --    43.0440                34.7377                37.6002
 Raman Activ --     0.0000                 0.0000                 0.0000
 Depolar     --     0.0000                 0.0000                 0.0000
 Atom AN      X      Y      Z        X      Y      Z        X      Y      Z
   1   6    -0.04  -0.24   0.05     0.00   0.01  -0.00     0.01   0.06  -0.02
   2   6     0.03  -0.01  -0.05     0.02   0.00  -0.03     0.14   0.02  -0.20
   3   1    -0.13  -0.01   0.17    -0.08  -0.01   0.11    -0.54  -0.05   0.75
   4   6    -0.00   0.01  -0.00     0.00  -0.00  -0.00    -0.00   0.01  -0.01
   5   1     0.02  -0.01   0.01    -0.02   0.01  -0.01     0.03  -0.02   0.01
   6   6     0.00   0.00   0.00     0.00  -0.00  -0.00    -0.01  -0.01  -0.00
   7   1    -0.00  -0.00  -0.00    -0.00  -0.00   0.00     0.02   0.04   0.01
   8   6     0.00  -0.00  -0.00    -0.01   0.01  -0.00    -0.00  -0.00   0.00
   9   1    -0.00   0.00   0.00     0.00  -0.00  -0.01     0.01  -0.00  -0.02
  10   6     0.00  -0.00   0.00    -0.18   0.10  -0.14     0.02  -0.02   0.02
  11   1    -0.01   0.00  -0.01     0.70  -0.38   0.54    -0.10   0.05  -0.08
  12   8     0.00   0.00   0.00    -0.01   0.00   0.00     0.01  -0.01  -0.00
  13   8     0.00   0.00  -0.00    -0.01  -0.00  -0.01     0.00   0.00   0.00
  14   8    -0.00   0.00  -0.00     0.00  -0.00   0.00     0.00   0.00  -0.00
  15   8     0.00   0.00   0.00    -0.00  -0.00  -0.00    -0.00  -0.00  -0.00
  16   8    -0.00  -0.00  -0.00     0.00   0.00   0.00    -0.00  -0.00   0.00
  17   8    -0.00  -0.01   0.01     0.00  -0.00   0.00    -0.00   0.00  -0.00
  18   1    -0.05  -0.01   0.00     0.00  -0.00   0.00     0.04  -0.02   0.00
  19   1     0.23   0.88  -0.24    -0.00  -0.02   0.00    -0.05  -0.20   0.05
  20   1    -0.00  -0.00   0.00     0.00   0.00  -0.00    -0.00  -0.00   0.00
  21   1     0.00   0.00   0.00    -0.00   0.00  -0.00    -0.00   0.00   0.00
  22   1    -0.01  -0.01  -0.00     0.00   0.00   0.00     0.00  -0.00   0.00
  23   1     0.00   0.00  -0.00    -0.00  -0.00   0.00     0.00   0.00   0.00
  24   1    -0.01   0.01   0.00    -0.00   0.00   0.00     0.00  -0.00   0.00
                     58                     59                     60
                        a                      a                      a 
 Frequencies --  2913.0439              2943.3151              2952.4509
 Red. masses --     1.7425                 1.7554                 1.7554
 Frc consts  --     0.0000                 0.0000                 0.0000
 IR Inten    --    29.4186                28.2111                14.5340
 Raman Activ --     0.0000                 0.0000                 0.0000
 Depolar     --     0.0000                 0.0000                 0.0000
 Atom AN      X      Y      Z        X      Y      Z        X      Y      Z
   1   6    -0.00   0.00  -0.00     0.01  -0.00   0.00     0.00  -0.00   0.00
   2   6     0.01  -0.00  -0.01    -0.01   0.00   0.01    -0.00  -0.00   0.00
   3   1    -0.03  -0.00   0.04     0.02   0.00  -0.02     0.01   0.00  -0.02
   4   6     0.01   0.00   0.00    -0.20   0.16  -0.06    -0.01   0.01  -0.00
   5   1    -0.03   0.02  -0.01     0.73  -0.57   0.24     0.04  -0.03   0.01
   6   6     0.10   0.23   0.04    -0.00   0.01   0.00    -0.01   0.00   0.01
   7   1    -0.39  -0.87  -0.16    -0.01  -0.03  -0.01    -0.00  -0.01  -0.00
   8   6     0.00   0.01  -0.00     0.01  -0.00  -0.01    -0.14   0.03   0.22
   9   1    -0.00   0.00   0.00    -0.03   0.01   0.05     0.51  -0.12  -0.81
  10   6     0.00  -0.00   0.00    -0.00   0.00  -0.00    -0.01  -0.00   0.01
  11   1    -0.01   0.00  -0.01     0.02  -0.01   0.01    -0.00   0.00  -0.00
  12   8     0.00  -0.00  -0.00     0.00  -0.00   0.00     0.00  -0.00  -0.00
  13   8    -0.00  -0.00   0.00     0.00  -0.00   0.00     0.00   0.00  -0.00
  14   8     0.00  -0.00  -0.00    -0.00  -0.00  -0.00     0.01   0.00   0.01
  15   8     0.00  -0.00   0.01     0.00  -0.00   0.00     0.00  -0.00  -0.00
  16   8    -0.00  -0.00   0.00    -0.00  -0.00  -0.01    -0.00  -0.00  -0.00
  17   8     0.00  -0.00  -0.00    -0.00   0.00  -0.00    -0.00   0.00  -0.00
  18   1     0.00  -0.00   0.00    -0.04   0.03  -0.00    -0.01   0.01  -0.00
  19   1    -0.00  -0.01   0.00    -0.00  -0.02   0.01     0.00   0.00  -0.00
  20   1     0.00   0.00  -0.00     0.00   0.00  -0.00    -0.00  -0.00   0.00
  21   1    -0.00   0.00  -0.00     0.00  -0.00  -0.00    -0.01   0.00   0.01
  22   1     0.01   0.02   0.00    -0.00   0.00   0.00    -0.00   0.00   0.00
  23   1     0.00   0.00  -0.00    -0.01   0.01  -0.00     0.00  -0.00   0.00
  24   1    -0.00   0.00   0.00     0.00  -0.00  -0.00     0.00  -0.00   0.00
                     61                     62                     63
                        a                      a                      a 
 Frequencies --  2986.3723              3229.2839              3281.1486
 Red. masses --     1.6968                 1.8951                 1.8549
 Frc consts  --     0.0000                 0.0000                 0.0000
 IR Inten    --    28.6572               297.1887               458.0635
 Raman Activ --     0.0000                 0.0000                 0.0000
 Depolar     --     0.0000                 0.0000                 0.0000
 Atom AN      X      Y      Z        X      Y      Z        X      Y      Z
   1   6    -0.21   0.13  -0.02    -0.01   0.00   0.00     0.01  -0.00  -0.01
   2   6    -0.01   0.00   0.00     0.00  -0.00   0.00    -0.00   0.00  -0.00
   3   1     0.02   0.00  -0.03     0.00   0.00  -0.00     0.00   0.00   0.00
   4   6    -0.01   0.01  -0.00     0.00  -0.00   0.00    -0.00  -0.00   0.00
   5   1     0.03  -0.03   0.01    -0.00   0.00  -0.00     0.00  -0.00   0.00
   6   6    -0.00   0.00   0.00     0.01   0.00   0.01     0.00   0.00   0.01
   7   1     0.00   0.00   0.00    -0.01  -0.01  -0.00    -0.00  -0.01  -0.00
   8   6    -0.00   0.00   0.00     0.00  -0.00  -0.00     0.00   0.00   0.00
   9   1     0.01  -0.00  -0.01    -0.00  -0.00   0.00     0.00   0.00  -0.00
  10   6    -0.00   0.00   0.00     0.00  -0.00  -0.01    -0.00   0.00   0.01
  11   1     0.00  -0.00   0.00     0.00   0.00   0.01    -0.00  -0.00  -0.00
  12   8     0.00  -0.00  -0.00    -0.00   0.00   0.00     0.00  -0.00  -0.00
  13   8    -0.00  -0.00  -0.00     0.00   0.01   0.00     0.00  -0.01  -0.00
  14   8    -0.00  -0.00   0.00     0.00   0.00  -0.00    -0.00   0.00   0.00
  15   8     0.00   0.00   0.00     0.09   0.12   0.03     0.11   0.14   0.03
  16   8     0.00  -0.00  -0.00     0.00  -0.00  -0.00     0.00   0.00  -0.00
  17   8    -0.00  -0.00   0.01    -0.16   0.10  -0.01     0.13  -0.08   0.01
  18   1     0.79  -0.54   0.06     0.02  -0.01  -0.00    -0.01   0.01  -0.00
  19   1    -0.01   0.07  -0.02    -0.00   0.00   0.00    -0.01  -0.02   0.01
  20   1     0.00   0.00  -0.00    -0.00  -0.02   0.01    -0.00   0.02  -0.01
  21   1     0.00  -0.00  -0.00    -0.00   0.00   0.00     0.00  -0.00  -0.00
  22   1    -0.00  -0.00   0.00    -0.37  -0.48  -0.14    -0.44  -0.58  -0.16
  23   1    -0.00   0.00   0.00    -0.00   0.00  -0.00    -0.00   0.00  -0.00
  24   1    -0.02   0.02  -0.00     0.63  -0.39   0.01    -0.53   0.33  -0.01
                     64                     65                     66
                        a                      a                      a 
 Frequencies --  3475.1165              3486.8378              3523.8007
 Red. masses --     1.8854                 1.8770                 1.8675
 Frc consts  --     0.0000                 0.0000                 0.0000
 IR Inten    --    36.2575                46.9144                23.5483
 Raman Activ --     0.0000                 0.0000                 0.0000
 Depolar     --     0.0000                 0.0000                 0.0000
 Atom AN      X      Y      Z        X      Y      Z        X      Y      Z
   1   6     0.00   0.00  -0.00    -0.00  -0.00  -0.00    -0.00  -0.00   0.00
   2   6     0.00   0.00  -0.00     0.00  -0.00   0.00     0.00  -0.00  -0.00
   3   1    -0.00   0.00   0.00    -0.00  -0.00   0.00    -0.00   0.00   0.00
   4   6     0.00  -0.00   0.00    -0.00   0.00  -0.01    -0.00   0.00  -0.00
   5   1    -0.00   0.00  -0.00     0.00  -0.00   0.00    -0.00   0.00  -0.00
   6   6     0.00  -0.00  -0.00     0.00   0.00  -0.00     0.00  -0.00   0.00
   7   1     0.00  -0.00  -0.00    -0.00  -0.00   0.00     0.00  -0.00  -0.00
   8   6    -0.00   0.00   0.01     0.00   0.00   0.00    -0.00  -0.00  -0.00
   9   1     0.00  -0.00  -0.01     0.00   0.00  -0.00     0.00   0.00  -0.00
  10   6     0.00   0.00  -0.00    -0.00   0.00   0.00    -0.00  -0.01  -0.00
  11   1    -0.00   0.00   0.00    -0.00   0.00  -0.00    -0.00   0.00  -0.00
  12   8    -0.00   0.00   0.00     0.00  -0.00  -0.00    -0.00   0.00   0.00
  13   8    -0.00   0.00  -0.00     0.00   0.00  -0.00    -0.02  -0.23   0.07
  14   8    -0.11   0.12   0.15    -0.05   0.05   0.06    -0.00   0.00   0.00
  15   8    -0.00  -0.00  -0.00     0.00   0.00   0.00     0.00   0.00   0.00
  16   8     0.03  -0.08   0.05    -0.06   0.18  -0.11    -0.00   0.00  -0.00
  17   8    -0.00   0.00   0.00    -0.00   0.00   0.00    -0.01   0.00  -0.00
  18   1    -0.00   0.00  -0.00    -0.00   0.00  -0.00    -0.00   0.00  -0.00
  19   1    -0.00  -0.00  -0.00     0.00   0.00   0.00     0.00   0.00  -0.00
  20   1    -0.00  -0.00   0.00    -0.00  -0.01   0.00     0.10   0.93  -0.27
  21   1     0.45  -0.48  -0.62     0.19  -0.20  -0.25     0.00  -0.00  -0.00
  22   1     0.00   0.00   0.00    -0.00  -0.00  -0.00    -0.00  -0.00  -0.00
  23   1    -0.11   0.30  -0.19     0.26  -0.72   0.47     0.00  -0.01   0.00
  24   1     0.00  -0.00   0.00     0.00  -0.00   0.00     0.02  -0.02   0.00
