
                                 *****************
                                 * O   R   C   A *
                                 *****************

                                            #,                                       
                                            ###                                      
                                            ####                                     
                                            #####                                    
                                            ######                                   
                                           ########,                                 
                                     ,,################,,,,,                         
                               ,,#################################,,                 
                          ,,##########################################,,             
                       ,#########################################, ''#####,          
                    ,#############################################,,   '####,        
                  ,##################################################,,,,####,       
                ,###########''''           ''''###############################       
              ,#####''   ,,,,##########,,,,          '''####'''          '####       
            ,##' ,,,,###########################,,,                        '##       
           ' ,,###''''                  '''############,,,                           
         ,,##''                                '''############,,,,        ,,,,,,###''
      ,#''                                            '''#######################'''  
     '                                                          ''''####''''         
             ,#######,   #######,   ,#######,      ##                                
            ,#'     '#,  ##    ##  ,#'     '#,    #''#        ,####,   ,####,        
            ##       ##  ##   ,#'  ##            #'  '#       #'       #'  '#        
            ##       ##  #######   ##           ,######,      #####,   #    #        
            '#,     ,#'  ##    ##  '#,     ,#' ,#      #,     #,   #   #,  ,#        
             '#######'   ##     ##  '#######'  #'      '#     '####' # '####'        



                #########################################################
                #                        -***-                          #
                #          Department of theory and spectroscopy        #
                #                                                       #
                #                      Frank Neese                      #
                #                                                       #
                #     Directorship, Architecture, Infrastructure        #
                #                    SHARK, DRIVERS                     #
                #        Core code/Algorithms in most modules           #
                #                                                       #
                #        Max Planck Institute fuer Kohlenforschung      #
                #                Kaiser Wilhelm Platz 1                 #
                #                 D-45470 Muelheim/Ruhr                 #
                #                      Germany                          #
                #                                                       #
                #                  All rights reserved                  #
                #                        -***-                          #
                #########################################################


                         Program Version 6.0.1  -  RELEASE   -


 With contributions from (in alphabetic order):
[Max-Planck-Institut fuer Kohlenforschung]                               
  Daniel Aravena         : Magnetic Suceptibility                        
  Michael Atanasov       : Ab Initio Ligand Field Theory (pilot matlab implementation)
  Alexander A. Auer      : GIAO ZORA, VPT2 properties, NMR spectrum      
  Ute Becker             : All parallelization in ORCA, NUMFREQ, NUMCALC 
  Giovanni Bistoni       : ED, misc. LED, open-shell LED, HFLD           
  Martin Brehm           : Molecular dynamics                            
  Dmytro Bykov           : pre 5.0 version of the SCF Hessian            
  Marcos Casanova-Páez   : Triplet and SCS-CIS(D). UHF-(DLPNO)-IP/EA/STEOM-CCSD. UHF-CVS-IP/STEOM-CCSD   
  Vijay G. Chilkuri      : MRCI spin determinant printing, contributions to CSF-ICE 
  Pauline Colinet        : FMM embedding                                 
  Dipayan Datta          : RHF DLPNO-CCSD density                        
  Achintya Kumar Dutta   : EOM-CC, STEOM-CC                              
  Nicolas Foglia         : Exact transition moments, OPA infrastructure, MCD improvements    
  Dmitry Ganyushin       : Spin-Orbit,Spin-Spin,Magnetic field MRCI      
  Miquel Garcia-Rates    : C-PCM and meta-GGA Hessian, CCSD/C-PCM, Gaussian charge scheme 
  Tiago L. C. Gouveia    : GS-ROHF, GS-ROCIS                             
  Yang Guo               : DLPNO-NEVPT2, F12-NEVPT2, CIM, IAO-localization        
  Andreas Hansen         : Spin unrestricted coupled pair/coupled cluster methods 
  Ingolf Harden          : AUTO-CI MPn and infrastructure                
  Benjamin Helmich-Paris : MC-RPA, TRAH-(SCF,CASSCF), AVAS, COSX integrals, SCF dyn. polar. 
  Lee Huntington         : MR-EOM, pCC                                   
  Robert Izsak           : Overlap fitted RIJCOSX, COSX-SCS-MP3, EOM     
  Riya Kayal             : Wick's Theorem for AUTO-CI, AUTO-CI UHF-CCSDT 
  Emily Kempfer          : AUTO-CI, RHF CISDT and CCSDT                  
  Christian Kollmar      : KDIIS, OOCD, Brueckner-CCSD(T), CCSD density, CASPT2, CASPT2-K, improved NEVPT2 
  Axel Koslowski         : Symmetry handling                             
  Simone Kossmann        : meta-GGA functionals, TD-DFT gradient, OOMP2, (MP2 Hessian; deprecated post 5.0) 
  Lucas Lang             : DCDCAS                                        
  Marvin Lechner         : AUTO-CI (C++ implementation), FIC-MRCC        
  Spencer Leger          : CASSCF response                               
  Dagmar Lenk            : GEPOL surface, SMD, ORCA-2-JSON               
  Dimitrios Liakos       : Extrapolation schemes; Compound Job, initial MDCI parallelization 
  Dimitrios Manganas     : Further ROCIS development; embedding schemes. LFT, Crystal Embedding 
  Dimitrios Pantazis     : SARC Basis sets                               
  Anastasios Papadopoulos: AUTO-CI, single reference methods and gradients 
  Taras Petrenko         : pre 6.0 DFT Hessian and TD-DFT gradient, (ASA, deprecated), ECA, 1-Electron XAS/XES, NRVS 
  Peter Pinski           : DLPNO-MP2, DLPNO-MP2 Gradient                 
  Christoph Reimann      : Effective Core Potentials                     
  Marius Retegan         : Local ZFS, SOC                                
  Christoph Riplinger    : Optimizer, TS searches, QM/MM, DLPNO-CCSD(T), (RO)-DLPNO pert. Triples 
  Michael Roemelt        : Original ROCIS implementation                 
  Masaaki Saitow         : Open-shell DLPNO-CCSD energy and density      
  Barbara Sandhoefer     : DKH picture change effects                    
  Kantharuban Sivalingam : CASSCF convergence/infrastructure, NEVPT2 and variants, FIC-MRCI 
  Bernardo de Souza      : ESD, SOC TD-DFT                               
  Georgi L. Stoychev     : AutoAux, RI-MP2 NMR, DLPNO-MP2 response, X2C  
  Van Anh Tran           : RI-MP2 g-tensors                              
  Willem Van den Heuvel  : Paramagnetic NMR                              
  Zikuan Wang            : NOTCH, Electric field optimization            
  Frank Wennmohs         : Technical directorship and infrastructure     
  Hang Xu                : AUTO-CI-Response properties                   
                                                                         
[FACCTs GmbH]                                                            
  Markus Bursch, Miquel Garcia-Rates, Christoph Riplinger, Bernardo de Souza, Georgi L. Stoychev 
                                                                 
  APM, Basis sets (HGBS, AHGBS, def-TZVP (Ac-Lr), def2-XVPD (La-Lu)), CI-OPT, improved COSX, DLPNO-Multilevel,           
  DOCKER, DRACO, updates on ESD, GOAT, IRC, LR-CPCM, MBIS, meta-GGA TD-DFT gradient, ML-optimized integration grids, 
  MM, NACMEs, nearIR, NEB, NEB-TS, NL-DFT gradient (VV10), 2- and 3-layer-ONIOM, interface openCOSMO-RS, QMMM,   
  Crystal-QMMM, SF, symmetry and pop. for TD-DFT, r2SCAN hybrids, SOLVATOR                                   
                                                                         
[Other institutions]                                                     
  V. Asgeirsson          : NEB                                           
  Christoph Bannwarth    : sTDA-DFT, sTD-DFT, PBEh-3c, B97-3c, D3        
  Sebastian Ehlert       : rSCAN, r2SCAN, r2SCAN-3c, D4, dhf basis sets  
  Marvin Friede          : D4 for Fr, Ra, Ac-Lr                          
  Lars Goerigk           : TD-DFT with DH, B97 family of functionals     
  Stefan Grimme          : VdW corrections, initial TS optimization, DFT functionals, gCP, sTDA/sTD-DF 
  Waldemar Hujo          : DFT-NL                                        
  H. Jonsson             : NEB                                           
  Holger Kruse           : gCP                                           
  Marcel Mueller         : wB97X-3c, vDZP basis set                      
  Hagen Neugebauer       : wr2SCAN                                       
  Tobias Risthaus        : range-separated hybrid DFT                    
  Lukas Wittmann         : regularized MP2, r2SCAN double-hybrids, wr2SCAN        
                                                                         
We gratefully acknowledge several colleagues who have allowed us to      
interface, adapt or use parts of their codes:                            
  Ed Valeev, F. Pavosevic, A. Kumar             : LibInt (2-el integral package), F12 methods 
  Garnet Chan, S. Sharma, J. Yang, R. Olivares  : DMRG                   
  Ulf Ekstrom                                   : XCFun DFT Library      
  Mihaly Kallay                                 : mrcc  (arbitrary order and MRCC methods)
  Frank Weinhold                                : gennbo (NPA and NBO analysis)           
  Simon Mueller                                 : openCOSMO-RS                            
  Christopher J. Cramer and Donald G. Truhlar   : smd solvation model                     
  S Lehtola, MJT Oliveira, MAL Marques          : LibXC Library                           
  Liviu Ungur et al                             : ANISO software                          


 Your calculation uses the libint2 library for the computation of 2-el integrals
 For citations please refer to: http://libint.valeyev.net

 Your ORCA version has been built with support for libXC version: 6.2.2
 For citations please refer to: https://libxc.gitlab.io

 This ORCA versions uses:
   CBLAS   interface :  Fast vector & matrix operations
   LAPACKE interface :  Fast linear algebra routines
   SCALAPACK package :  Parallel linear algebra routines
   Shared memory     :  Shared parallel matrices
   BLAS/LAPACK       :  OpenBLAS 0.3.27  USE64BITINT DYNAMIC_ARCH NO_AFFINITY Zen SINGLE_THREADED
        Core in use  :  Zen
   Copyright (c) 2011-2014, The OpenBLAS Project


Your calculation utilizes the geometrical counterpoise correction gCP
Please cite in your paper:
H.Kruse, S. Grimme J.Chem.Phys., 136, (2012), 154101 
   

Your calculation utilizes the atom-pairwise dispersion correction
based on EEQ partial charges (D4)


================================================================================

----- Orbital basis set information -----
Your calculation utilizes the basis: def2-SV(P)
   F. Weigend and R. Ahlrichs, Phys. Chem. Chem. Phys. 7, 3297 (2005).

----- AuxJ basis set information -----
Your calculation utilizes the auxiliary basis: def2/J
   F. Weigend, Phys. Chem. Chem. Phys. 8, 1057 (2006).

================================================================================
                                        WARNINGS
                       Please study these warnings very carefully!
================================================================================


================================================================================
                                       INPUT FILE
================================================================================
NAME = sp.inp
|  1> ! pbe def2-sv(p) def2/J RI DEFGRID1 loosescf d4 GCP(DFT/SV(P)) printgap
|  2> %output
|  3>     printlevel normal
|  4> end
|  5> * xyz 0 1
|  6> C -3.9860552352 -0.8548889858 1.0451194238
|  7> N -3.3194215216 -0.9370666519 -0.2313077121
|  8> C -2.1504648474 -0.3437599684 -0.5626203717
|  9> O -1.682325375 -0.367602826 -1.6722882773
| 10> O -1.5728480725 0.2616785045 0.507083129
| 11> C -0.3051034208 0.8067576501 0.3091580951
| 12> C -0.174478984 2.1686717633 0.2777066332
| 13> C 1.091577414 2.7498125837 0.121599718
| 14> C 2.2000409014 1.9633755403 -0.0131024937
| 15> C 2.0948114543 0.5571912376 0.0159153209
| 16> C 0.8200560206 -0.0450997721 0.1878018024
| 17> C 0.7260819363 -1.4508480977 0.237629344
| 18> C 1.8424732278 -2.2277830023 0.10426804
| 19> C 3.1014156629 -1.6367950207 -0.079161781
| 20> C 3.2246105192 -0.2764527626 -0.1183611235
| 21> H -4.7728121515 -0.0950380758 1.0361325917
| 22> H -3.2560326578 -0.5952727008 1.8075209946
| 23> H -4.429924925 -1.8209494042 1.2863039493
| 24> H -3.8369835808 -1.3151930998 -1.0096154738
| 25> H -1.0529174793 2.7888961194 0.3706914905
| 26> H 1.1750558467 3.8260082136 0.0987077122
| 27> H 3.1762665418 2.4069900116 -0.1451515729
| 28> H -0.2410643325 -1.9095709321 0.3819167153
| 29> H 1.7617027925 -3.304237623 0.1397877777
| 30> H 3.97218956 -2.2670787165 -0.1860878105
| 31> H 4.1927365588 0.184296376 -0.2538404528
| 32> *
| 33> 
| 34>                          ****END OF INPUT****
================================================================================

                       ****************************
                       * Single Point Calculation *
                       ****************************

---------------------------------
CARTESIAN COORDINATES (ANGSTROEM)
---------------------------------
  C     -3.986055   -0.854889    1.045119
  N     -3.319422   -0.937067   -0.231308
  C     -2.150465   -0.343760   -0.562620
  O     -1.682325   -0.367603   -1.672288
  O     -1.572848    0.261679    0.507083
  C     -0.305103    0.806758    0.309158
  C     -0.174479    2.168672    0.277707
  C      1.091577    2.749813    0.121600
  C      2.200041    1.963376   -0.013102
  C      2.094811    0.557191    0.015915
  C      0.820056   -0.045100    0.187802
  C      0.726082   -1.450848    0.237629
  C      1.842473   -2.227783    0.104268
  C      3.101416   -1.636795   -0.079162
  C      3.224611   -0.276453   -0.118361
  H     -4.772812   -0.095038    1.036133
  H     -3.256033   -0.595273    1.807521
  H     -4.429925   -1.820949    1.286304
  H     -3.836984   -1.315193   -1.009615
  H     -1.052917    2.788896    0.370691
  H      1.175056    3.826008    0.098708
  H      3.176267    2.406990   -0.145152
  H     -0.241064   -1.909571    0.381917
  H      1.761703   -3.304238    0.139788
  H      3.972190   -2.267079   -0.186088
  H      4.192737    0.184296   -0.253840

----------------------------
CARTESIAN COORDINATES (A.U.)
----------------------------
  NO LB      ZA    FRAG     MASS         X           Y           Z
   0 C     6.0000    0    12.011   -7.532553   -1.615506    1.974989
   1 N     7.0000    0    14.007   -6.272798   -1.770799   -0.437108
   2 C     6.0000    0    12.011   -4.063790   -0.649612   -1.063198
   3 O     8.0000    0    15.999   -3.179134   -0.694669   -3.160167
   4 O     8.0000    0    15.999   -2.972252    0.494501    0.958248
   5 C     6.0000    0    12.011   -0.576562    1.524551    0.584224
   6 C     6.0000    0    12.011   -0.329717    4.098196    0.524789
   7 C     6.0000    0    12.011    2.062782    5.196393    0.229790
   8 C     6.0000    0    12.011    4.157475    3.710242   -0.024760
   9 C     6.0000    0    12.011    3.958620    1.052939    0.030076
  10 C     6.0000    0    12.011    1.549681   -0.085226    0.354894
  11 C     6.0000    0    12.011    1.372096   -2.741706    0.449054
  12 C     6.0000    0    12.011    3.481770   -4.209900    0.197038
  13 C     6.0000    0    12.011    5.860826   -3.093094   -0.149594
  14 C     6.0000    0    12.011    6.093631   -0.522420   -0.223670
  15 H     1.0000    0     1.008   -9.019308   -0.179596    1.958007
  16 H     1.0000    0     1.008   -6.153010   -1.124902    3.415720
  17 H     1.0000    0     1.008   -8.371345   -3.441096    2.430762
  18 H     1.0000    0     1.008   -7.250848   -2.485355   -1.907897
  19 H     1.0000    0     1.008   -1.989726    5.270250    0.700505
  20 H     1.0000    0     1.008    2.220534    7.230108    0.186531
  21 H     1.0000    0     1.008    6.002274    4.548552   -0.274297
  22 H     1.0000    0     1.008   -0.455546   -3.608566    0.721718
  23 H     1.0000    0     1.008    3.329136   -6.244104    0.264161
  24 H     1.0000    0     1.008    7.506350   -4.284158   -0.351655
  25 H     1.0000    0     1.008    7.923124    0.348270   -0.479689

--------------------------------
INTERNAL COORDINATES (ANGSTROEM)
--------------------------------
 C      0   0   0     0.000000000000     0.00000000     0.00000000
 N      1   0   0     1.442366080500     0.00000000     0.00000000
 C      2   1   0     1.352124478461   126.25725644     0.00000000
 O      3   2   1     1.204610272327   123.57385693   185.37702681
 O      3   2   1     1.358109886027   111.73475927     6.05748859
 C      5   3   2     1.394081093741   116.69521774   174.57827354
 C      6   5   3     1.368525480098   118.63110165   108.65817090
 C      7   6   5     1.401782017657   120.08847774   178.04458142
 C      8   7   6     1.365766895179   120.35036535     0.64174191
 C      9   8   7     1.410414677767   120.76457114   359.34424946
 C      6   5   3     1.416464678736   119.95884143   286.67333878
 C     11   6   5     1.409766742177   122.93615011     0.97584831
 C     12  11   6     1.366653796368   120.59539564   179.46319780
 C     13  12  11     1.402800537683   120.42206386     0.25594402
 C     14  13  12     1.366471595110   120.26915914     0.38878170
 H      1   2   3     1.093819278457   111.39176080    97.59915835
 H      1   2   3     1.087009537267   108.89876578   337.55501948
 H      1   2   3     1.090166505110   109.47990331   218.14945966
 H      2   1   3     1.008272318199   117.85512176   192.68993770
 H      7   6   5     1.079341755707   119.48485383   357.84682701
 H      8   7   6     1.079671119588   119.04076123   179.97792467
 H      9   8   7     1.080392178535   120.59548014   179.28538667
 H     12  11   6     1.080100638631   119.20284598   359.51993465
 H     13  12  11     1.080064843151   120.15203546   180.23384982
 H     14  13  12     1.080248995763   119.37721043   180.20819076
 H     15  14  13     1.080699979615   120.58334983   179.65349674

---------------------------
INTERNAL COORDINATES (A.U.)
---------------------------
 C      0   0   0     0.000000000000     0.00000000     0.00000000
 N      1   0   0     2.725676877002     0.00000000     0.00000000
 C      2   1   0     2.555144963263   126.25725644     0.00000000
 O      3   2   1     2.276383512807   123.57385693   185.37702681
 O      3   2   1     2.566455744361   111.73475927     6.05748859
 C      5   3   2     2.634431475648   116.69521774   174.57827354
 C      6   5   3     2.586138364679   118.63110165   108.65817090
 C      7   6   5     2.648984112826   120.08847774   178.04458142
 C      8   7   6     2.580925394665   120.35036535     0.64174191
 C      9   8   7     2.665297476243   120.76457114   359.34424946
 C      6   5   3     2.676730321184   119.95884143   286.67333878
 C     11   6   5     2.664073055425   122.93615011     0.97584831
 C     12  11   6     2.582601395020   120.59539564   179.46319780
 C     13  12  11     2.650908836738   120.42206386     0.25594402
 C     14  13  12     2.582257084541   120.26915914     0.38878170
 H      1   2   3     2.067018876288   111.39176080    97.59915835
 H      1   2   3     2.054150330395   108.89876578   337.55501948
 H      1   2   3     2.060116135031   109.47990331   218.14945966
 H      2   1   3     1.905358549811   117.85512176   192.68993770
 H      7   6   5     2.039660323191   119.48485383   357.84682701
 H      8   7   6     2.040282730725   119.04076123   179.97792467
 H      9   8   7     2.041645334661   120.59548014   179.28538667
 H     12  11   6     2.041094404085   119.20284598   359.51993465
 H     13  12  11     2.041026760432   120.15203546   180.23384982
 H     14  13  12     2.041374758435   119.37721043   180.20819076
 H     15  14  13     2.042226994407   120.58334983   179.65349674

---------------------
BASIS SET INFORMATION
---------------------
There are 4 groups of distinct atoms

 Group   1 Type C   : 7s4p1d contracted to 3s2p1d pattern {511/31/1}
 Group   2 Type N   : 7s4p1d contracted to 3s2p1d pattern {511/31/1}
 Group   3 Type O   : 7s4p1d contracted to 3s2p1d pattern {511/31/1}
 Group   4 Type H   : 4s contracted to 2s pattern {31}

Atom   0C    basis set group =>   1
Atom   1N    basis set group =>   2
Atom   2C    basis set group =>   1
Atom   3O    basis set group =>   3
Atom   4O    basis set group =>   3
Atom   5C    basis set group =>   1
Atom   6C    basis set group =>   1
Atom   7C    basis set group =>   1
Atom   8C    basis set group =>   1
Atom   9C    basis set group =>   1
Atom  10C    basis set group =>   1
Atom  11C    basis set group =>   1
Atom  12C    basis set group =>   1
Atom  13C    basis set group =>   1
Atom  14C    basis set group =>   1
Atom  15H    basis set group =>   4
Atom  16H    basis set group =>   4
Atom  17H    basis set group =>   4
Atom  18H    basis set group =>   4
Atom  19H    basis set group =>   4
Atom  20H    basis set group =>   4
Atom  21H    basis set group =>   4
Atom  22H    basis set group =>   4
Atom  23H    basis set group =>   4
Atom  24H    basis set group =>   4
Atom  25H    basis set group =>   4
---------------------------------
AUXILIARY/J BASIS SET INFORMATION
---------------------------------
There are 4 groups of distinct atoms

 Group   1 Type C   : 12s5p4d2f1g contracted to 6s4p3d1f1g pattern {711111/2111/211/2/1}
 Group   2 Type N   : 12s5p4d2f1g contracted to 6s4p3d1f1g pattern {711111/2111/211/2/1}
 Group   3 Type O   : 12s5p4d2f1g contracted to 6s4p3d1f1g pattern {711111/2111/211/2/1}
 Group   4 Type H   : 5s2p1d contracted to 3s1p1d pattern {311/2/1}

Atom   0C    basis set group =>   1
Atom   1N    basis set group =>   2
Atom   2C    basis set group =>   1
Atom   3O    basis set group =>   3
Atom   4O    basis set group =>   3
Atom   5C    basis set group =>   1
Atom   6C    basis set group =>   1
Atom   7C    basis set group =>   1
Atom   8C    basis set group =>   1
Atom   9C    basis set group =>   1
Atom  10C    basis set group =>   1
Atom  11C    basis set group =>   1
Atom  12C    basis set group =>   1
Atom  13C    basis set group =>   1
Atom  14C    basis set group =>   1
Atom  15H    basis set group =>   4
Atom  16H    basis set group =>   4
Atom  17H    basis set group =>   4
Atom  18H    basis set group =>   4
Atom  19H    basis set group =>   4
Atom  20H    basis set group =>   4
Atom  21H    basis set group =>   4
Atom  22H    basis set group =>   4
Atom  23H    basis set group =>   4
Atom  24H    basis set group =>   4
Atom  25H    basis set group =>   4
------------------------------------------------------------------------------
                             ORCA STARTUP CALCULATIONS
                           -- RI-GTO INTEGRALS CHOSEN --
------------------------------------------------------------------------------
------------------------------------------------------------------------------
                   ___                                                        
                  /   \      - P O W E R E D   B Y -                         
                 /     \                                                     
                 |  |  |   _    _      __       _____    __    __             
                 |  |  |  | |  | |    /  \     |  _  \  |  |  /  |          
                  \  \/   | |  | |   /    \    | | | |  |  | /  /          
                 / \  \   | |__| |  /  /\  \   | |_| |  |  |/  /          
                |  |  |   |  __  | /  /__\  \  |    /   |      \           
                |  |  |   | |  | | |   __   |  |    \   |  |\   \          
                \     /   | |  | | |  |  |  |  | |\  \  |  | \   \       
                 \___/    |_|  |_| |__|  |__|  |_| \__\ |__|  \__/        
                                                                              
                      - O R C A' S   B I G   F R I E N D -                    
                                      &                                       
                       - I N T E G R A L  F E E D E R -                       
                                                                              
 v1 FN, 2020, v2 2021, v3 2022-2024                                           
------------------------------------------------------------------------------


----------------------
SHARK INTEGRAL PACKAGE
----------------------

Number of atoms                             ...     26
Number of basis functions                   ...    232
Number of shells                            ...    112
Maximum angular momentum                    ...      2
Integral batch strategy                     ... SHARK/LIBINT Hybrid
RI-J (if used) integral strategy            ... SPLIT-RIJ (Revised 2003 algorithm where possible)
Printlevel                                  ...      1
Contraction scheme used                     ... SEGMENTED contraction
Prescreening option                         ... SCHWARTZ
   Thresh                                   ... 1.000e-09
   Tcut                                     ... 1.000e-10
   Tpresel                                  ... 1.000e-10 
Coulomb Range Separation                    ... NOT USED
Exchange Range Separation                   ... NOT USED
Multipole approximations                    ... NOT USED
Finite Nucleus Model                        ... NOT USED
CABS basis                                  ... NOT available
Auxiliary Coulomb fitting basis             ... AVAILABLE
   # of basis functions in Aux-J            ...    856
   # of shells in Aux-J                     ...    280
   Maximum angular momentum in Aux-J        ...      4
Auxiliary J/K fitting basis                 ... NOT available
Auxiliary Correlation fitting basis         ... NOT available
Auxiliary 'external' fitting basis          ... NOT available

Checking pre-screening integrals            ... done (  0.0 sec) Dimension = 112
Check shell pair data                       ... done (  0.0 sec)
Shell pair information
Shell pair cut-off parameter TPreSel        ...   1.0e-10
Total number of shell pairs                 ...      6328
Shell pairs after pre-screening             ...      5353
Total number of primitive shell pairs       ...     25428
Primitive shell pairs kept                  ...     13766
          la=0 lb=0:   1850 shell pairs
          la=1 lb=0:   1793 shell pairs
          la=1 lb=1:    445 shell pairs
          la=2 lb=0:    783 shell pairs
          la=2 lb=1:    395 shell pairs
          la=2 lb=2:     87 shell pairs

Calculating one electron integrals          ... done (  0.0 sec)
Calculating RI/J V-Matrix + Cholesky decomp.... done (  0.1 sec)
Calculating Nuclear repulsion               ... done (  0.0 sec) ENN=    948.446286489165 Eh

Diagonalization of the overlap matrix:
Smallest eigenvalue                        ... 2.241e-04
Time for diagonalization                   ...    0.008 sec
Threshold for overlap eigenvalues          ... 1.000e-07
Number of eigenvalues below threshold      ... 0
Time for construction of square roots      ...    0.005 sec
Total time needed                          ...    0.015 sec

-------------------
DFT GRID GENERATION
-------------------

General Integration Accuracy     IntAcc      ... 4.159
Radial Grid Type                 RadialGrid  ... OptM3 with GC (2021)
Angular Grid (max. ang.)         AngularGrid ... 3 (Lebedev-194)
Angular grid pruning method      GridPruning ... 4 (adaptive)
Weight generation scheme         WeightScheme... mBecke (2022)
Basis function cutoff            BFCut       ... 1.0000e-10
Integration weight cutoff        WCut        ... 1.0000e-14
Partially contracted basis set               ... off
Rotationally invariant grid construction     ... off
Angular grids for H and He will be reduced by one unit

Total number of grid points                  ...    64222
Total number of batches                      ...     1017
Average number of points per batch           ...       63
Average number of grid points per atom       ...     2470
Initializing property integral containers    ... done (  0.0 sec)

SHARK setup successfully completed in   1.0 seconds

Maximum memory used throughout the entire STARTUP-calculation: 34.0 MB
-------------------------------------------------------------------------------
                                 ORCA GUESS
                   Start orbitals & Density for SCF / CASSCF
-------------------------------------------------------------------------------

------------
SCF SETTINGS
------------
Hamiltonian:
 Density Functional     Method          .... DFT(GTOs)
 Exchange Functional    Exchange        .... PBE
   PBE kappa parameter   XKappa         ....  0.804000
   PBE mue parameter    XMuePBE         ....  0.219520
 Correlation Functional Correlation     .... PBE
   PBE beta parameter  CBetaPBE         ....  0.066725
 LDA part of GGA corr.  LDAOpt          .... PW91-LDA
 Gradients option       PostSCFGGA      .... off
   NL short-range parameter             ....  6.400000
 RI-approximation to the Coulomb term is turned on
   Number of AuxJ basis functions       .... 856


General Settings:
 Integral files         IntName         .... sp
 Hartree-Fock type      HFTyp           .... RHF
 Total Charge           Charge          ....    0
 Multiplicity           Mult            ....    1
 Number of Electrons    NEL             ....  106
 Basis Dimension        Dim             ....  232
 Nuclear Repulsion      ENuc            ....    948.4462864892 Eh

Convergence Acceleration:
 AO-DIIS                CNVDIIS         .... on
   Start iteration      DIISMaxIt       ....    12
   Startup error        DIISStart       ....  0.200000
   # of expansion vecs  DIISMaxEq       ....     5
   Bias factor          DIISBfac        ....   1.050
   Max. coefficient     DIISMaxC        ....  10.000
 MO-DIIS                CNVKDIIS        .... off
 Trust-Rad. Augm. Hess. CNVTRAH         .... auto
   Auto Start mean grad. ratio tolernc. ....  1.125000
   Auto Start start iteration           ....    50
   Auto Start num. interpolation iter.  ....    10
   Max. Number of Micro iterations      ....    24
   Max. Number of Macro iterations      .... Maxiter - #DIIS iter
   Number of Davidson start vectors     ....     2
   Converg. threshold    (grad. norm)   ....   1.000e-04
   Grad. Scal. Fac. for Micro threshold ....   0.100
   Minimum threshold for Micro iter.    ....   1.000e-02
   NR start threshold (gradient norm)   ....   1.000e-04
   Initial trust radius                 ....   0.400
   Minimum AH scaling param. (alpha)    ....   1.000
   Maximum AH scaling param. (alpha)    .... 1000.000
   Quad. conv. algorithm                .... NR
   White noise on init. David. guess    .... on
   Maximum white noise                  ....   0.010
   Pseudo random numbers                .... off
   Inactive MOs                         .... canonical
   Orbital update algorithm             .... Taylor
   Preconditioner                       .... Diag
   Full preconditioner red. dimension   ....   250
 SOSCF                  CNVSOSCF        .... on
   Start iteration      SOSCFMaxIt      ....   150
   Startup grad/error   SOSCFStart      ....  0.003300
   Hessian update       SOSCFHessUp     .... L-BFGS
 Level Shifting         CNVShift        .... on
   Level shift para.    LevelShift      ....    0.2500
   Turn off err/grad.   ShiftErr        ....    0.0010
 Zerner damping         CNVZerner       .... off
 Static damping         CNVDamp         .... on
   Fraction old density DampFac         ....    0.7000
   Max. Damping (<1)    DampMax         ....    0.9800
   Min. Damping (>=0)   DampMin         ....    0.0000
   Turn off err/grad.   DampErr         ....    0.1000

SCF Procedure:
 Maximum # iterations   MaxIter         ....   125
 SCF integral mode      SCFMode         .... Direct
   Integral package                     .... SHARK and LIBINT hybrid scheme
 Reset frequency        DirectResetFreq ....    20
 Integral Threshold     Thresh          ....  1.000e-09 Eh
 Primitive CutOff       TCut            ....  1.000e-10 Eh

Convergence Tolerance:
 Convergence Check Mode ConvCheckMode   .... Total+1el-Energy
 Convergence forced     ConvForced      .... 0
 Energy Change          TolE            ....  1.000e-05 Eh
 1-El. energy change                    ....  1.000e-02 Eh
 Orbital Gradient       TolG            ....  1.000e-04
 Orbital Rotation angle TolX            ....  1.000e-04
 DIIS Error             TolErr          ....  5.000e-04

------------------------------
INITIAL GUESS: MODEL POTENTIAL
------------------------------
Loading Hartree-Fock densities                     ... done
Calculating cut-offs                               ... done
Initializing the effective Hamiltonian             ... done
Setting up the integral package (SHARK)            ... done
Starting the Coulomb interaction                   ... done (   0.5 sec)
Making the grid                                    ... done (   0.6 sec)
Mapping shells                                     ... done
Starting the XC term evaluation                    ... done (   0.2 sec)
  promolecular density results
     # of electrons  =    105.993255268
     EX              =    -87.548448568
     EC              =     -3.558805719
     EX+EC           =    -91.107254287
Transforming the Hamiltonian                       ... done (   0.0 sec)
Diagonalizing the Hamiltonian                      ... done (   0.0 sec)
Back transforming the eigenvectors                 ... done (   0.0 sec)
Now organizing SCF variables                       ... done
                      ------------------
                      INITIAL GUESS DONE (   1.3 sec)
                      ------------------
             **** ENERGY FILE WAS UPDATED (sp.en.tmp) ****
Finished Guess after   1.4 sec
Maximum memory used throughout the entire GUESS-calculation: 26.9 MB

-------------------------------------------------------------------------------------------
                                      ORCA LEAN-SCF
                              memory conserving SCF solver
-------------------------------------------------------------------------------------------

----------------------------------------D-I-I-S--------------------------------------------
Iteration    Energy (Eh)           Delta-E    RMSDP     MaxDP     DIISErr   Damp  Time(sec)
-------------------------------------------------------------------------------------------
               ***  Starting incremental Fock matrix formation  ***
    1    -667.4892521961907050     0.00e+00  3.58e-03  1.07e-01  2.65e-01  0.700   1.1
    2    -667.6472058441914896    -1.58e-01  2.24e-03  5.21e-02  7.75e-02  0.700   1.0
                               ***Turning on AO-DIIS***
    3    -667.6984760356568813    -5.13e-02  9.33e-04  1.27e-02  2.58e-02  0.700   0.9
    4    -667.7320002342856924    -3.35e-02  1.54e-03  2.77e-02  1.41e-02  0.000   1.1
    5    -667.8078437680875368    -7.58e-02  4.11e-04  9.24e-03  5.98e-03  0.000   1.4
                              *** Initializing SOSCF ***
---------------------------------------S-O-S-C-F--------------------------------------
Iteration    Energy (Eh)           Delta-E    RMSDP     MaxDP     MaxGrad    Time(sec)
--------------------------------------------------------------------------------------
    6    -667.8085528448597188    -7.09e-04  1.55e-04  4.45e-03  3.27e-03     1.3
               *** Restarting incremental Fock matrix formation ***
    7    -667.8086248032519734    -7.20e-05  8.43e-05  2.19e-03  1.46e-04     1.2
    8    -667.8086251151759143    -3.12e-07  4.34e-05  1.11e-03  4.68e-04     1.0
                 **** Energy Check signals convergence ****

               *****************************************************
               *                     SUCCESS                       *
               *           SCF CONVERGED AFTER   8 CYCLES          *
               *****************************************************

             **** ENERGY FILE WAS UPDATED (sp.en.tmp) ****

----------------
TOTAL SCF ENERGY
----------------

Total Energy       :       -667.80862511517591 Eh          -18171.99654 eV

Components:
Nuclear Repulsion  :        948.44628648916466 Eh           25808.53554 eV
Electronic Energy  :      -1616.25491160434058 Eh          -43980.53207 eV
One Electron Energy:      -2789.59467670378353 Eh          -75908.73028 eV
Two Electron Energy:       1173.33976509944296 Eh           31928.19821 eV

Virial components:
Potential Energy   :      -1330.12060343223993 Eh          -36194.42171 eV
Kinetic Energy     :        662.31197831706402 Eh           18022.42517 eV
Virial Ratio       :          2.00829918071553

DFT components:
N(Alpha)           :       52.999969236196 electrons
N(Beta)            :       52.999969236196 electrons
N(Total)           :      105.999938472391 electrons
E(X)               :      -88.967158555865 Eh       
E(C)               :       -3.577785171703 Eh       
E(XC)              :      -92.544943727568 Eh       

---------------
SCF CONVERGENCE
---------------

  Last Energy change         ...    3.1192e-07  Tolerance :   1.0000e-05
  Last MAX-Density change    ...    1.1059e-03  Tolerance :   1.0000e-03
  Last RMS-Density change    ...    4.3384e-05  Tolerance :   1.0000e-04
  Last DIIS Error            ...    3.2695e-03  Tolerance :   5.0000e-04
  Last Orbital Gradient      ...    4.6766e-04  Tolerance :   1.0000e-04
  Last Orbital Rotation      ...    1.5179e-03  Tolerance :   1.0000e-04


----------------
ORBITAL ENERGIES
----------------

  NO   OCC          E(Eh)            E(eV) 
   0   2.0000     -18.805458      -511.7225 
   1   2.0000     -18.715078      -509.2632 
   2   2.0000     -14.021641      -381.5483 
   3   2.0000     -10.022926      -272.7377 
   4   2.0000      -9.953850      -270.8580 
   5   2.0000      -9.925711      -270.0923 
   6   2.0000      -9.904441      -269.5136 
   7   2.0000      -9.903643      -269.4918 
   8   2.0000      -9.896266      -269.2911 
   9   2.0000      -9.894685      -269.2481 
  10   2.0000      -9.893934      -269.2276 
  11   2.0000      -9.893589      -269.2182 
  12   2.0000      -9.893368      -269.2122 
  13   2.0000      -9.893306      -269.2106 
  14   2.0000      -9.893197      -269.2076 
  15   2.0000      -1.013071       -27.5671 
  16   2.0000      -0.915736       -24.9184 
  17   2.0000      -0.845109       -22.9966 
  18   2.0000      -0.794441       -21.6178 
  19   2.0000      -0.746299       -20.3078 
  20   2.0000      -0.698040       -18.9946 
  21   2.0000      -0.670047       -18.2329 
  22   2.0000      -0.656903       -17.8752 
  23   2.0000      -0.639841       -17.4110 
  24   2.0000      -0.592627       -16.1262 
  25   2.0000      -0.559628       -15.2282 
  26   2.0000      -0.555111       -15.1053 
  27   2.0000      -0.517489       -14.0816 
  28   2.0000      -0.489416       -13.3177 
  29   2.0000      -0.464291       -12.6340 
  30   2.0000      -0.450956       -12.2711 
  31   2.0000      -0.445517       -12.1231 
  32   2.0000      -0.441794       -12.0218 
  33   2.0000      -0.422583       -11.4991 
  34   2.0000      -0.402257       -10.9460 
  35   2.0000      -0.400417       -10.8959 
  36   2.0000      -0.383319       -10.4306 
  37   2.0000      -0.380295       -10.3484 
  38   2.0000      -0.366064        -9.9611 
  39   2.0000      -0.363921        -9.9028 
  40   2.0000      -0.357873        -9.7382 
  41   2.0000      -0.353623        -9.6226 
  42   2.0000      -0.340042        -9.2530 
  43   2.0000      -0.332913        -9.0590 
  44   2.0000      -0.305172        -8.3042 
  45   2.0000      -0.298569        -8.1245 
  46   2.0000      -0.294316        -8.0087 
  47   2.0000      -0.266676        -7.2566 
  48   2.0000      -0.248423        -6.7599 
  49   2.0000      -0.227667        -6.1951 
  50   2.0000      -0.220514        -6.0005 
  51   2.0000      -0.216237        -5.8841 
  52   2.0000      -0.194317        -5.2876 
  53   0.0000      -0.068927        -1.8756 
  54   0.0000      -0.040175        -1.0932 
  55   0.0000      -0.002932        -0.0798 
  56   0.0000       0.024658         0.6710 
  57   0.0000       0.030130         0.8199 
  58   0.0000       0.046090         1.2542 
  59   0.0000       0.057033         1.5520 
  60   0.0000       0.058770         1.5992 
  61   0.0000       0.070079         1.9070 
  62   0.0000       0.079005         2.1498 
  63   0.0000       0.092621         2.5204 
*Only the first 10 virtual orbitals were printed.

                    ********************************
                    * MULLIKEN POPULATION ANALYSIS *
                    ********************************

-----------------------
MULLIKEN ATOMIC CHARGES
-----------------------
   0 C :   -0.180839
   1 N :   -0.295070
   2 C :    0.182343
   3 O :   -0.209933
   4 O :   -0.262458
   5 C :    0.182130
   6 C :   -0.120670
   7 C :   -0.040952
   8 C :   -0.111442
   9 C :    0.131827
  10 C :    0.126943
  11 C :   -0.125985
  12 C :   -0.042316
  13 C :   -0.035982
  14 C :   -0.132118
  15 H :    0.113108
  16 H :    0.139018
  17 H :    0.113307
  18 H :    0.239000
  19 H :    0.038463
  20 H :    0.055087
  21 H :    0.038265
  22 H :    0.052785
  23 H :    0.052039
  24 H :    0.053234
  25 H :    0.040217
Sum of atomic charges:    0.0000000

--------------------------------
MULLIKEN REDUCED ORBITAL CHARGES
--------------------------------
  0 C s       :     3.094414  s :     3.094414
      pz      :     0.913158  p :     3.044053
      px      :     1.051583
      py      :     1.079313
      dz2     :     0.010732  d :     0.042371
      dxz     :     0.011156
      dyz     :     0.006730
      dx2y2   :     0.003512
      dxy     :     0.010242

  1 N s       :     3.380412  s :     3.380412
      pz      :     1.122703  p :     3.892620
      px      :     1.213462
      py      :     1.556455
      dz2     :     0.004477  d :     0.022038
      dxz     :     0.007190
      dyz     :     0.003973
      dx2y2   :     0.002800
      dxy     :     0.003598

  2 C s       :     2.972218  s :     2.972218
      pz      :     0.881061  p :     2.692395
      px      :     0.917964
      py      :     0.893370
      dz2     :     0.037449  d :     0.153045
      dxz     :     0.041430
      dyz     :     0.037310
      dx2y2   :     0.020515
      dxy     :     0.016341

  3 O s       :     3.731172  s :     3.731172
      pz      :     1.343468  p :     4.460370
      px      :     1.588292
      py      :     1.528610
      dz2     :     0.006854  d :     0.018392
      dxz     :     0.005408
      dyz     :     0.004474
      dx2y2   :     0.000773
      dxy     :     0.000882

  4 O s       :     3.711305  s :     3.711305
      pz      :     1.524270  p :     4.535311
      px      :     1.377603
      py      :     1.633438
      dz2     :     0.003538  d :     0.015843
      dxz     :     0.004148
      dyz     :     0.003314
      dx2y2   :     0.002756
      dxy     :     0.002087

  5 C s       :     2.991593  s :     2.991593
      pz      :     1.004039  p :     2.758872
      px      :     0.856364
      py      :     0.898470
      dz2     :     0.005137  d :     0.067405
      dxz     :     0.009916
      dyz     :     0.008836
      dx2y2   :     0.021721
      dxy     :     0.021796

  6 C s       :     3.309456  s :     3.309456
      pz      :     1.014769  p :     2.777921
      px      :     0.778260
      py      :     0.984892
      dz2     :     0.003286  d :     0.033293
      dxz     :     0.003630
      dyz     :     0.005518
      dx2y2   :     0.009815
      dxy     :     0.011044

  7 C s       :     3.182391  s :     3.182391
      pz      :     0.996397  p :     2.823100
      px      :     0.974102
      py      :     0.852600
      dz2     :     0.003312  d :     0.035462
      dxz     :     0.006963
      dyz     :     0.002140
      dx2y2   :     0.014014
      dxy     :     0.009033

  8 C s       :     3.275544  s :     3.275544
      pz      :     1.001534  p :     2.801326
      px      :     0.804172
      py      :     0.995620
      dz2     :     0.003102  d :     0.034572
      dxz     :     0.003237
      dyz     :     0.005653
      dx2y2   :     0.011565
      dxy     :     0.011015

  9 C s       :     3.032200  s :     3.032200
      pz      :     0.969831  p :     2.794798
      px      :     0.983277
      py      :     0.841691
      dz2     :     0.002979  d :     0.041175
      dxz     :     0.005969
      dyz     :     0.006909
      dx2y2   :     0.012633
      dxy     :     0.012684

 10 C s       :     3.067387  s :     3.067387
      pz      :     0.993628  p :     2.766433
      px      :     0.957773
      py      :     0.815032
      dz2     :     0.003090  d :     0.039236
      dxz     :     0.005683
      dyz     :     0.006959
      dx2y2   :     0.010551
      dxy     :     0.012953

 11 C s       :     3.283417  s :     3.283417
      pz      :     0.981436  p :     2.808078
      px      :     0.814251
      py      :     1.012391
      dz2     :     0.003082  d :     0.034491
      dxz     :     0.003344
      dyz     :     0.005650
      dx2y2   :     0.011530
      dxy     :     0.010885

 12 C s       :     3.182941  s :     3.182941
      pz      :     0.993923  p :     2.824198
      px      :     0.982208
      py      :     0.848067
      dz2     :     0.003282  d :     0.035177
      dxz     :     0.006559
      dyz     :     0.002158
      dx2y2   :     0.014115
      dxy     :     0.009063

 13 C s       :     3.178078  s :     3.178078
      pz      :     0.989931  p :     2.822760
      px      :     0.887949
      py      :     0.944880
      dz2     :     0.003128  d :     0.035145
      dxz     :     0.003557
      dyz     :     0.005353
      dx2y2   :     0.009406
      dxy     :     0.013701

 14 C s       :     3.281551  s :     3.281551
      pz      :     0.996065  p :     2.816031
      px      :     0.880388
      py      :     0.939577
      dz2     :     0.003050  d :     0.034536
      dxz     :     0.002610
      dyz     :     0.006269
      dx2y2   :     0.010189
      dxy     :     0.012418

 15 H s       :     0.886892  s :     0.886892

 16 H s       :     0.860982  s :     0.860982

 17 H s       :     0.886693  s :     0.886693

 18 H s       :     0.761000  s :     0.761000

 19 H s       :     0.961537  s :     0.961537

 20 H s       :     0.944913  s :     0.944913

 21 H s       :     0.961735  s :     0.961735

 22 H s       :     0.947215  s :     0.947215

 23 H s       :     0.947961  s :     0.947961

 24 H s       :     0.946766  s :     0.946766

 25 H s       :     0.959783  s :     0.959783


------------------------
MULLIKEN OVERLAP CHARGES
------------------------
B(  0-C ,  1-N ) :   0.6321 B(  0-C , 15-H ) :   0.7745 B(  0-C , 16-H ) :   0.7558 
B(  0-C , 17-H ) :   0.7613 B(  0-C , 18-H ) :  -0.0513 B(  1-N ,  2-C ) :   0.7119 
B(  1-N ,  3-O ) :  -0.1997 B(  1-N ,  4-O ) :  -0.2260 B(  1-N , 15-H ) :  -0.0703 
B(  1-N , 17-H ) :  -0.0518 B(  1-N , 18-H ) :   0.6227 B(  2-C ,  3-O ) :   1.4375 
B(  2-C ,  4-O ) :   0.5992 B(  2-C ,  5-C ) :  -0.0697 B(  3-O ,  4-O ) :  -0.1601 
B(  4-O ,  5-C ) :   0.6602 B(  4-O ,  6-C ) :  -0.1320 B(  4-O , 10-C ) :  -0.1834 
B(  5-C ,  6-C ) :   0.3856 B(  5-C ,  7-C ) :   0.4516 B(  5-C ,  8-C ) :  -0.4376 
B(  5-C ,  9-C ) :   0.1663 B(  5-C , 10-C ) :   0.1334 B(  5-C , 11-C ) :  -0.3073 
B(  5-C , 14-C ) :   0.0616 B(  5-C , 19-H ) :  -0.1681 B(  5-C , 22-H ) :  -0.0710 
B(  6-C ,  8-C ) :   0.4005 B(  6-C ,  9-C ) :  -0.3753 B(  6-C , 10-C ) :   0.2105 
B(  6-C , 11-C ) :   0.0518 B(  6-C , 19-H ) :   0.8648 B(  6-C , 20-H ) :  -0.1776 
B(  7-C ,  8-C ) :   0.2017 B(  7-C ,  9-C ) :   0.3918 B(  7-C , 10-C ) :  -0.3630 
B(  7-C , 19-H ) :  -0.1923 B(  7-C , 20-H ) :   0.8887 B(  7-C , 21-H ) :  -0.1891 
B(  8-C ,  9-C ) :   0.3214 B(  8-C , 10-C ) :   0.1131 B(  8-C , 11-C ) :   0.0559 
B(  8-C , 14-C ) :  -0.3152 B(  8-C , 20-H ) :  -0.1798 B(  8-C , 21-H ) :   0.8810 
B(  9-C , 10-C ) :  -0.0965 B(  9-C , 11-C ) :   0.0811 B(  9-C , 12-C ) :  -0.3597 
B(  9-C , 13-C ) :   0.3362 B(  9-C , 14-C ) :   0.3952 B(  9-C , 21-H ) :  -0.1603 
B(  9-C , 25-H ) :  -0.1619 B( 10-C , 11-C ) :   0.3608 B( 10-C , 12-C ) :   0.3161 
B( 10-C , 13-C ) :  -0.3549 B( 10-C , 14-C ) :   0.0830 B( 10-C , 19-H ) :   0.0500 
B( 10-C , 22-H ) :  -0.1284 B( 11-C , 12-C ) :   0.2987 B( 11-C , 13-C ) :   0.3494 
B( 11-C , 14-C ) :  -0.3768 B( 11-C , 22-H ) :   0.8399 B( 11-C , 23-H ) :  -0.1722 
B( 12-C , 13-C ) :   0.1864 B( 12-C , 14-C ) :   0.3622 B( 12-C , 22-H ) :  -0.1652 
B( 12-C , 23-H ) :   0.8818 B( 12-C , 24-H ) :  -0.1783 B( 13-C , 14-C ) :   0.3054 
B( 13-C , 23-H ) :  -0.1784 B( 13-C , 24-H ) :   0.8821 B( 13-C , 25-H ) :  -0.1866 
B( 14-C , 24-H ) :  -0.1764 B( 14-C , 25-H ) :   0.8790 B( 15-H , 17-H ) :  -0.0686 



                     *******************************
                     * LOEWDIN POPULATION ANALYSIS *
                     *******************************

----------------------
LOEWDIN ATOMIC CHARGES
----------------------
   0 C :   -0.263157
   1 N :   -0.177335
   2 C :    0.019931
   3 O :   -0.191699
   4 O :   -0.056717
   5 C :    0.051792
   6 C :   -0.132635
   7 C :   -0.119795
   8 C :   -0.115365
   9 C :   -0.020354
  10 C :   -0.028633
  11 C :   -0.104493
  12 C :   -0.120495
  13 C :   -0.122538
  14 C :   -0.109535
  15 H :    0.113579
  16 H :    0.133022
  17 H :    0.119000
  18 H :    0.242355
  19 H :    0.130818
  20 H :    0.126458
  21 H :    0.124551
  22 H :    0.127342
  23 H :    0.124800
  24 H :    0.124636
  25 H :    0.124466

-------------------------------
LOEWDIN REDUCED ORBITAL CHARGES
-------------------------------
  0 C s       :     2.939471  s :     2.939471
      pz      :     0.984966  p :     3.225012
      px      :     1.102980
      py      :     1.137066
      dz2     :     0.024984  d :     0.098674
      dxz     :     0.026533
      dyz     :     0.014543
      dx2y2   :     0.007486
      dxy     :     0.025129

  1 N s       :     3.106838  s :     3.106838
      pz      :     1.206428  p :     4.015586
      px      :     1.265170
      py      :     1.543988
      dz2     :     0.012066  d :     0.054910
      dxz     :     0.019375
      dyz     :     0.008368
      dx2y2   :     0.006361
      dxy     :     0.008740

  2 C s       :     2.804120  s :     2.804120
      pz      :     0.983214  p :     2.829731
      px      :     0.943576
      py      :     0.902941
      dz2     :     0.091506  d :     0.346218
      dxz     :     0.095116
      dyz     :     0.080259
      dx2y2   :     0.043701
      dxy     :     0.035636

  3 O s       :     3.542837  s :     3.542837
      pz      :     1.470134  p :     4.616587
      px      :     1.614277
      py      :     1.532176
      dz2     :     0.013789  d :     0.032275
      dxz     :     0.010104
      dyz     :     0.006024
      dx2y2   :     0.001197
      dxy     :     0.001161

  4 O s       :     3.430501  s :     3.430501
      pz      :     1.572198  p :     4.594096
      px      :     1.401217
      py      :     1.620681
      dz2     :     0.006737  d :     0.032119
      dxz     :     0.008463
      dyz     :     0.006346
      dx2y2   :     0.005595
      dxy     :     0.004978

  5 C s       :     2.843780  s :     2.843780
      pz      :     0.993176  p :     2.941526
      px      :     0.884648
      py      :     1.063702
      dz2     :     0.012084  d :     0.162903
      dxz     :     0.019277
      dyz     :     0.018045
      dx2y2   :     0.056982
      dxy     :     0.056514

  6 C s       :     2.895352  s :     2.895352
      pz      :     1.007916  p :     3.148315
      px      :     1.068210
      py      :     1.072189
      dz2     :     0.007561  d :     0.088968
      dxz     :     0.007311
      dyz     :     0.011711
      dx2y2   :     0.030188
      dxy     :     0.032196

  7 C s       :     2.888078  s :     2.888078
      pz      :     0.987899  p :     3.138444
      px      :     1.084520
      py      :     1.066024
      dz2     :     0.007454  d :     0.093273
      dxz     :     0.015746
      dyz     :     0.003721
      dx2y2   :     0.038422
      dxy     :     0.027929

  8 C s       :     2.890125  s :     2.890125
      pz      :     0.997063  p :     3.134103
      px      :     1.070879
      py      :     1.066161
      dz2     :     0.007005  d :     0.091137
      dxz     :     0.006181
      dyz     :     0.012095
      dx2y2   :     0.033529
      dxy     :     0.032328

  9 C s       :     2.836530  s :     2.836530
      pz      :     0.960253  p :     3.071655
      px      :     1.055980
      py      :     1.055422
      dz2     :     0.007699  d :     0.112170
      dxz     :     0.012563
      dyz     :     0.014292
      dx2y2   :     0.038717
      dxy     :     0.038899

 10 C s       :     2.839926  s :     2.839926
      pz      :     0.978646  p :     3.079742
      px      :     1.046820
      py      :     1.054276
      dz2     :     0.008184  d :     0.108965
      dxz     :     0.011739
      dyz     :     0.014321
      dx2y2   :     0.034359
      dxy     :     0.040361

 11 C s       :     2.889089  s :     2.889089
      pz      :     0.982869  p :     3.124450
      px      :     1.075777
      py      :     1.065804
      dz2     :     0.006943  d :     0.090954
      dxz     :     0.006397
      dyz     :     0.012187
      dx2y2   :     0.033371
      dxy     :     0.032056

 12 C s       :     2.890089  s :     2.890089
      pz      :     0.985094  p :     3.137774
      px      :     1.087487
      py      :     1.065194
      dz2     :     0.007416  d :     0.092632
      dxz     :     0.014714
      dyz     :     0.003771
      dx2y2   :     0.038678
      dxy     :     0.028053

 13 C s       :     2.890834  s :     2.890834
      pz      :     0.984491  p :     3.139131
      px      :     1.065753
      py      :     1.088888
      dz2     :     0.007169  d :     0.092573
      dxz     :     0.007229
      dyz     :     0.011627
      dx2y2   :     0.028712
      dxy     :     0.037837

 14 C s       :     2.891503  s :     2.891503
      pz      :     0.988820  p :     3.127064
      px      :     1.055305
      py      :     1.082938
      dz2     :     0.006919  d :     0.090969
      dxz     :     0.004906
      dyz     :     0.013323
      dx2y2   :     0.030479
      dxy     :     0.035342

 15 H s       :     0.886421  s :     0.886421

 16 H s       :     0.866978  s :     0.866978

 17 H s       :     0.881000  s :     0.881000

 18 H s       :     0.757645  s :     0.757645

 19 H s       :     0.869182  s :     0.869182

 20 H s       :     0.873542  s :     0.873542

 21 H s       :     0.875449  s :     0.875449

 22 H s       :     0.872658  s :     0.872658

 23 H s       :     0.875200  s :     0.875200

 24 H s       :     0.875364  s :     0.875364

 25 H s       :     0.875534  s :     0.875534


---------------------------------
LOEWDIN BOND ORDERS (THRESH 0.050000)
---------------------------------
B(  0-C ,  1-N ) :   1.1284 B(  0-C ,  2-C ) :   0.0698 B(  0-C , 15-H ) :   0.9408 
B(  0-C , 16-H ) :   0.9358 B(  0-C , 17-H ) :   0.9428 B(  1-N ,  2-C ) :   1.3661 
B(  1-N ,  3-O ) :   0.1943 B(  1-N ,  4-O ) :   0.0907 B(  1-N , 18-H ) :   0.8540 
B(  2-C ,  3-O ) :   2.1748 B(  2-C ,  4-O ) :   1.2406 B(  2-C ,  5-C ) :   0.0761 
B(  3-O ,  4-O ) :   0.1600 B(  4-O ,  5-C ) :   1.1348 B(  4-O ,  6-C ) :   0.0844 
B(  4-O , 10-C ) :   0.0676 B(  5-C ,  6-C ) :   1.5515 B(  5-C ,  7-C ) :   0.0917 
B(  5-C ,  8-C ) :   0.1143 B(  5-C ,  9-C ) :   0.0798 B(  5-C , 10-C ) :   1.2616 
B(  5-C , 11-C ) :   0.0781 B(  6-C ,  7-C ) :   1.3816 B(  6-C ,  8-C ) :   0.0865 
B(  6-C ,  9-C ) :   0.0672 B(  6-C , 10-C ) :   0.0856 B(  6-C , 19-H ) :   0.8807 
B(  7-C ,  8-C ) :   1.6102 B(  7-C ,  9-C ) :   0.0868 B(  7-C , 10-C ) :   0.0675 
B(  7-C , 20-H ) :   0.8856 B(  8-C ,  9-C ) :   1.3130 B(  8-C , 10-C ) :   0.0733 
B(  8-C , 14-C ) :   0.0817 B(  8-C , 21-H ) :   0.8821 B(  9-C , 10-C ) :   1.2379 
B(  9-C , 11-C ) :   0.0730 B(  9-C , 12-C ) :   0.0703 B(  9-C , 13-C ) :   0.0859 
B(  9-C , 14-C ) :   1.3147 B( 10-C , 11-C ) :   1.3114 B( 10-C , 12-C ) :   0.0866 
B( 10-C , 13-C ) :   0.0709 B( 10-C , 14-C ) :   0.0745 B( 11-C , 12-C ) :   1.6103 
B( 11-C , 13-C ) :   0.0860 B( 11-C , 14-C ) :   0.1245 B( 11-C , 22-H ) :   0.8782 
B( 12-C , 13-C ) :   1.3841 B( 12-C , 14-C ) :   0.0858 B( 12-C , 23-H ) :   0.8874 
B( 13-C , 14-C ) :   1.6128 B( 13-C , 24-H ) :   0.8873 B( 14-C , 25-H ) :   0.8823 


------------------------------------------
LOEWDIN REDUCED ORBITAL POPULATIONS PER MO
-------------------------------------------
THRESHOLD FOR PRINTING IS 0.1%%
                      0         1         2         3         4         5   
                 -18.80546 -18.71508 -14.02164 -10.02293  -9.95385  -9.92571
                   2.00000   2.00000   2.00000   2.00000   2.00000   2.00000
                  --------  --------  --------  --------  --------  --------
 0 C  s               0.0       0.0       0.0       0.0       0.0      99.7
 1 N  s               0.0       0.0      99.8       0.0       0.0       0.0
 1 N  pz              0.0       0.0       0.0       0.0       0.0       0.1
 1 N  px              0.0       0.0       0.0       0.1       0.0       0.0
 2 C  s               0.0       0.0       0.0      99.3       0.0       0.0
 3 O  s               0.0      99.9       0.0       0.0       0.0       0.0
 3 O  pz              0.0       0.0       0.0       0.3       0.0       0.0
 4 O  s              99.9       0.0       0.0       0.0       0.0       0.0
 5 C  s               0.0       0.0       0.0       0.0      99.5       0.0
 6 C  py              0.0       0.0       0.0       0.0       0.2       0.0

                      6         7         8         9        10        11   
                  -9.90444  -9.90364  -9.89627  -9.89468  -9.89393  -9.89359
                   2.00000   2.00000   2.00000   2.00000   2.00000   2.00000
                  --------  --------  --------  --------  --------  --------
 5 C  py              0.0       0.0       0.0       0.1       0.0       0.0
 6 C  s               0.0       0.0       0.3      99.2       0.0       0.0
 6 C  px              0.0       0.0       0.1       0.0       0.0       0.0
 7 C  s               0.0       0.0      98.9       0.3       0.0       0.0
 7 C  px              0.0       0.0       0.0       0.1       0.0       0.0
 8 C  s               0.0       0.0       0.4       0.0       0.0       0.1
 8 C  px              0.0       0.0       0.1       0.0       0.0       0.0
 8 C  py              0.1       0.0       0.1       0.0       0.0       0.0
 9 C  s              99.1       0.4       0.0       0.0       0.0       0.0
 9 C  px              0.0       0.1       0.0       0.0       0.1       0.0
10 C  s               0.4      99.1       0.0       0.0       0.0       0.0
10 C  px              0.1       0.0       0.0       0.0       0.0       0.0
11 C  s               0.0       0.0       0.0       0.0       0.9      50.3
11 C  py              0.0       0.1       0.0       0.0       0.0       0.0
12 C  s               0.0       0.0       0.0       0.0       0.0      43.4
13 C  s               0.0       0.0       0.0       0.0       7.9       5.7
13 C  py              0.0       0.0       0.0       0.0       0.1       0.0
14 C  s               0.0       0.0       0.0       0.0      90.6       0.0

                     12        13        14        15        16        17   
                  -9.89337  -9.89331  -9.89320  -1.01307  -0.91574  -0.84511
                   2.00000   2.00000   2.00000   2.00000   2.00000   2.00000
                  --------  --------  --------  --------  --------  --------
 0 C  s               0.0       0.0       0.0       0.3       0.3       9.6
 0 C  pz              0.0       0.0       0.0       0.3       0.3       4.2
 0 C  px              0.0       0.0       0.0       0.3       0.0       1.2
 0 C  dz2             0.0       0.0       0.0       0.0       0.0       0.2
 0 C  dxz             0.0       0.0       0.0       0.0       0.0       0.2
 1 N  s               0.0       0.0       0.0       3.2       3.9      39.1
 1 N  pz              0.0       0.0       0.0       0.0       0.5       0.4
 1 N  px              0.0       0.0       0.0       1.3       0.3       0.1
 1 N  py              0.0       0.0       0.0       0.4       0.0       0.1
 2 C  s               0.0       0.0       0.0      19.0       8.1       0.8
 2 C  pz              0.0       0.0       0.0       0.9      18.6       5.8
 2 C  px              0.0       0.0       0.0       1.6       0.1      12.5
 2 C  py              0.0       0.0       0.0       0.8       1.5       1.9
 2 C  dz2             0.0       0.0       0.0       0.4       0.3       0.5
 2 C  dxz             0.0       0.0       0.0       0.0       1.2       0.0
 2 C  dyz             0.0       0.0       0.0       0.3       0.1       0.0
 2 C  dxy             0.0       0.0       0.0       0.2       0.0       0.2
 3 O  s               0.0       0.0       0.0       8.7      35.9       8.0
 3 O  pz              0.0       0.0       0.0       2.2       3.7       0.6
 3 O  px              0.0       0.0       0.0       0.2       1.0       0.0
 3 O  dxz             0.0       0.0       0.0       0.0       0.1       0.0
 4 O  s               0.0       0.0       0.0      41.1      14.6       0.2
 4 O  pz              0.0       0.0       0.0       2.7       0.2       0.0
 4 O  px              0.0       0.0       0.0       0.1       0.8       1.2
 4 O  py              0.0       0.0       0.0       0.2       0.2       0.3
 5 C  s               0.0       0.0       0.0       5.4       2.9       0.8
 5 C  pz              0.0       0.0       0.0       0.0       0.2       0.0
 5 C  px              0.0       0.0       0.0       5.1       1.4       0.1
 5 C  py              0.0       0.0       0.0       1.2       0.2       0.0
 5 C  dz2             0.0       0.0       0.0       0.2       0.1       0.0
 5 C  dx2y2           0.0       0.0       0.0       0.2       0.1       0.0
 5 C  dxy             0.0       0.0       0.0       0.2       0.1       0.0
 6 C  s               0.0       0.0       0.0       0.4       0.3       0.2
 6 C  py              0.0       0.0       0.0       0.6       0.4       0.1
 7 C  s               0.4       0.0       0.0       0.0       0.0       0.0
 8 C  s              98.4       0.4       0.2       0.0       0.0       0.0
 9 C  py              0.1       0.0       0.0       0.0       0.0       0.0
10 C  s               0.0       0.0       0.0       0.4       0.3       0.3
10 C  px              0.0       0.0       0.0       0.6       0.2       0.1
11 C  s               0.1      21.7      26.5       0.1       0.0       0.1
12 C  s               0.2       4.4      51.6       0.0       0.0       0.0
12 C  px              0.0       0.2       0.0       0.0       0.0       0.0
13 C  s               0.4      64.7      20.9       0.0       0.0       0.0
14 C  s               0.2       8.3       0.5       0.0       0.0       0.0
14 C  py              0.0       0.1       0.0       0.0       0.0       0.0
15 H  s               0.0       0.0       0.0       0.0       0.0       1.2
16 H  s               0.0       0.0       0.0       0.2       0.0       1.4
17 H  s               0.0       0.0       0.0       0.0       0.0       1.3
18 H  s               0.0       0.0       0.0       0.5       0.9       6.7

                     18        19        20        21        22        23   
                  -0.79444  -0.74630  -0.69804  -0.67005  -0.65690  -0.63984
                   2.00000   2.00000   2.00000   2.00000   2.00000   2.00000
                  --------  --------  --------  --------  --------  --------
 0 C  s               0.2       0.1       0.8       0.0       7.2      23.9
 0 C  pz              0.1       0.0       0.1       0.0       0.0       0.7
 0 C  px              0.0       0.0       0.0       0.0       0.2       0.2
 1 N  s               0.7       0.2       0.4       0.0       0.0       2.2
 1 N  pz              0.0       0.0       0.0       0.0       1.4      12.0
 1 N  px              0.1       0.1       1.0       0.0       4.7       4.8
 1 N  py              0.0       0.0       0.2       0.0       0.6       0.1
 2 C  s               0.0       0.1       0.9       0.0       2.3       0.9
 2 C  pz              0.2       0.3       1.4       0.0       2.4       0.1
 2 C  px              0.2       0.1       0.0       0.0       0.5       4.7
 2 C  py              0.2       0.1       0.3       0.0       0.0       1.3
 2 C  dz2             0.0       0.0       0.0       0.0       0.0       0.2
 2 C  dxy             0.0       0.0       0.0       0.0       0.0       0.1
 3 O  s               0.0       0.0       0.1       0.0       0.9       1.2
 3 O  pz              0.0       0.0       0.1       0.0       0.1       0.1
 3 O  px              0.0       0.0       0.0       0.0       0.0       0.4
 3 O  py              0.0       0.0       0.0       0.0       0.0       0.1
 4 O  s               0.9       0.3       0.8       0.0       0.0       0.3
 4 O  pz              0.1       0.1       0.5       0.0       0.8       0.0
 4 O  px              0.4       0.6       4.2       0.0       4.9       0.1
 4 O  py              0.1       0.4       1.1       0.3       2.7       0.1
 5 C  s               4.8       4.1       8.3       0.0       3.7       2.0
 5 C  px              3.6       0.4       0.6       1.5       0.8       0.2
 5 C  py              0.1       3.1       0.1       6.6       0.3       0.7
 6 C  s               4.4      10.8       1.4      10.1       0.3       1.4
 6 C  px              0.9       1.3       0.7       0.3       1.7       0.5
 6 C  py              0.4       0.2       2.1       0.6       1.9       0.9
 6 C  dz2             0.1       0.1       0.0       0.1       0.0       0.0
 6 C  dx2y2           0.0       0.0       0.1       0.0       0.1       0.1
 7 C  s               4.9      10.5       2.3       7.6       4.0       1.4
 7 C  px              0.0       0.2       2.6       2.0       0.8       1.8
 7 C  py              1.4       1.2       0.1       0.0       0.0       0.0
 7 C  dz2             0.1       0.1       0.0       0.1       0.0       0.0
 8 C  s               7.3       4.7      10.1       0.1       2.7       3.2
 8 C  px              0.8       1.9       0.0       0.9       0.7       0.1
 8 C  py              1.1       0.5       0.4       4.4       1.2       0.4
 8 C  dx2y2           0.0       0.0       0.0       0.1       0.0       0.0
 9 C  s              15.3       0.0       6.4       8.1       0.4       0.0
 9 C  px              0.4       0.9       4.9       1.1       1.9       0.0
 9 C  py              0.1       4.8       1.4       0.0       1.6       1.4
 9 C  dz2             0.2       0.0       0.1       0.1       0.0       0.0
10 C  s              14.2       0.0       5.9       9.2       0.3       0.2
10 C  pz              0.0       0.0       0.1       0.0       0.0       0.0
10 C  px              0.8       0.9       5.0       0.6       0.1       0.1
10 C  py              0.1       4.8       1.0       0.1       2.9       1.0
10 C  dz2             0.2       0.0       0.1       0.1       0.0       0.0
10 C  dx2y2           0.0       0.0       0.1       0.0       0.1       0.0
10 C  dxy             0.0       0.0       0.1       0.0       0.0       0.0
11 C  s               6.6       5.4       8.3       0.1       8.4       1.5
11 C  px              0.8       1.7       0.0       1.3       0.2       0.1
11 C  py              1.0       0.3       0.4       5.0       0.3       0.4
11 C  dx2y2           0.0       0.0       0.0       0.1       0.0       0.0
12 C  s               4.6      10.3       1.7       8.9       3.3       1.1
12 C  px              0.0       0.1       2.1       2.0       3.7       0.8
12 C  py              1.4       1.3       0.1       0.0       0.0       0.0
12 C  dz2             0.1       0.1       0.0       0.1       0.0       0.0
12 C  dxy             0.0       0.0       0.1       0.0       0.1       0.0
13 C  s               4.7      10.2       1.2      10.8       2.8       0.5
13 C  px              0.7       1.2       0.6       0.5       1.4       0.4
13 C  py              0.7       0.2       1.8       0.6       2.7       0.7
13 C  dz2             0.1       0.1       0.0       0.1       0.0       0.0
13 C  dx2y2           0.0       0.0       0.1       0.0       0.1       0.0
14 C  s               7.2       5.0       8.1       0.1       8.7       1.5
14 C  px              1.9       0.2       0.2       1.0       0.1       0.0
14 C  py              0.0       2.0       0.4       5.6       0.2       0.2
14 C  dx2y2           0.0       0.0       0.0       0.1       0.0       0.0
15 H  s               0.0       0.0       0.2       0.0       1.8       6.2
16 H  s               0.0       0.0       0.1       0.0       1.3       6.4
17 H  s               0.0       0.0       0.2       0.0       2.0       6.7
18 H  s               0.2       0.1       0.3       0.0       0.1       1.6
19 H  s               0.5       1.5       0.3       2.4       0.1       0.3
20 H  s               0.6       1.5       0.4       1.7       0.9       0.4
21 H  s               1.0       0.6       2.2       0.0       0.5       0.8
22 H  s               0.8       0.7       1.6       0.0       2.1       0.4
23 H  s               0.5       1.5       0.3       2.0       0.8       0.3
24 H  s               0.6       1.4       0.2       2.4       0.7       0.1
25 H  s               1.0       0.6       1.8       0.0       2.0       0.3

                     24        25        26        27        28        29   
                  -0.59263  -0.55963  -0.55511  -0.51749  -0.48942  -0.46429
                   2.00000   2.00000   2.00000   2.00000   2.00000   2.00000
                  --------  --------  --------  --------  --------  --------
 0 C  s               1.7       0.0       0.0       0.3       0.6       0.0
 0 C  pz              1.2       0.1       0.1       1.6       4.9       0.6
 0 C  px              0.1       0.0       0.0       0.5       0.6       0.0
 0 C  py              0.2       0.0       0.0       0.4       1.2       0.1
 1 N  s               2.0       0.1       0.1       0.3       0.2       0.0
 1 N  pz              4.7       0.3       0.1       1.4       0.1       0.0
 1 N  px              3.5       0.6       0.3       9.2      14.1       1.0
 1 N  py              2.2       0.2       0.3       2.6       3.9       0.2
 1 N  dxz             0.0       0.0       0.0       0.1       0.1       0.0
 2 C  s               2.4       0.2       0.1       0.8       0.0       0.0
 2 C  pz              3.5       0.2       0.0       0.2       1.0       0.0
 2 C  px              0.2       0.0       0.2       1.7       8.9       0.1
 2 C  py              0.6       0.0       0.2       1.3       3.4       2.7
 2 C  dxz             0.0       0.0       0.0       0.1       0.2       0.0
 3 O  s               0.1       0.0       0.0       0.1       0.0       0.0
 3 O  pz              0.2       0.0       0.0       0.0       0.3       0.0
 3 O  px              0.1       0.0       0.0       0.1       1.9       0.0
 3 O  py              0.1       0.0       0.0       0.2       0.7       0.7
 4 O  s               0.6       0.2       0.0       1.5       0.4       0.1
 4 O  pz              2.5       0.2       0.0       0.1      10.3       1.7
 4 O  px             12.4       0.2       1.1       0.1       2.6       2.8
 4 O  py              4.2       0.9       0.7       0.2       3.5       2.3
 4 O  dz2             0.1       0.0       0.0       0.0       0.1       0.0
 5 C  s               0.5       1.1       0.1       2.8       0.0       0.1
 5 C  pz              0.6       0.2       0.0       0.0       2.6       0.3
 5 C  px              5.4       5.1       0.3       0.6       3.4       1.1
 5 C  py              2.1       1.8       8.7       0.1       0.1       7.2
 5 C  dxz             0.0       0.0       0.0       0.0       0.1       0.0
 5 C  dx2y2           0.2       0.0       0.0       0.2       0.1       0.1
 6 C  s               4.7       3.6       2.0       0.0       0.2       0.7
 6 C  pz              0.0       0.0       0.0       0.0       0.2       0.0
 6 C  px              0.3       0.8       3.0       0.5       0.5       6.6
 6 C  py              0.4       2.9       2.5       3.7       0.2       2.5
 7 C  s               0.0       0.6       7.3       1.4       0.5       2.0
 7 C  pz              0.1       0.0       0.0       0.0       0.0       0.1
 7 C  px              7.5       2.6       0.9       1.1       0.7       3.7
 7 C  py              0.0       1.1       2.1       0.9       1.5       1.7
 7 C  dxy             0.2       0.0       0.0       0.0       0.0       0.1
 8 C  s               7.8       0.6       0.0       2.1       0.0       3.9
 8 C  px              0.8       0.5       1.1       2.6       0.0       1.7
 8 C  py              0.1       0.0       8.6       0.0       1.2       1.4
 8 C  dxy             0.0       0.0       0.1       0.0       0.0       0.1
 9 C  s               0.0       0.3       4.3       1.7       0.1       0.8
 9 C  pz              0.0       0.1       0.0       0.1       0.0       0.0
 9 C  px              1.0       7.3       0.0       4.4       0.2       0.8
 9 C  py              4.5       2.2       1.5       3.8       1.7       0.3
 9 C  dx2y2           0.1       0.0       0.0       0.0       0.0       0.2
 9 C  dxy             0.0       0.0       0.0       0.0       0.0       0.2
10 C  s               1.7       1.6       2.0       0.5       0.1       0.0
10 C  pz              0.0       0.0       0.1       0.2       0.1       0.1
10 C  px              0.5       1.0       3.6      10.1       2.1       1.1
10 C  py              0.0       8.0       2.8       0.1       0.6       5.0
10 C  dx2y2           0.0       0.0       0.0       0.1       0.0       0.3
11 C  s               0.1       6.2       0.4       2.5       0.5       1.2
11 C  px              0.0       0.2       3.1       3.9       1.8       0.2
11 C  py              1.4       0.4       5.9       1.3       1.4       3.6
12 C  s               1.8       0.8       6.3       0.1       0.1       2.7
12 C  pz              0.0       0.2       0.0       0.0       0.0       0.0
12 C  px              0.0      10.5       0.3       1.7       0.6       0.2
12 C  py              0.3       0.8       1.4       0.4       1.2       9.7
12 C  dxy             0.0       0.2       0.0       0.0       0.0       0.0
13 C  s               0.0       7.3       1.8       0.1       0.0       1.3
13 C  px              0.2       0.0       3.7       2.5       1.5       0.2
13 C  py              1.0       5.7       2.9       0.4       0.0       0.5
14 C  s               0.4       4.3       1.7       2.2       0.6       1.5
14 C  pz              0.0       0.0       0.0       0.1       0.1       0.0
14 C  px              0.0       0.1       2.0       6.0       2.9       0.2
14 C  py              0.2       4.8       4.2       0.2       0.1       5.3
15 H  s               0.5       0.0       0.0       0.1       0.3       0.0
16 H  s               1.4       0.1       0.1       1.1       3.0       0.3
17 H  s               0.3       0.0       0.0       0.0       0.0       0.1
18 H  s               5.2       0.5       0.3       4.5       4.5       0.0
19 H  s               1.2       3.0       0.9       0.0       0.0       1.5
20 H  s               0.0       0.7       4.3       1.1       1.1       2.2
21 H  s               3.1       0.0       0.0       2.6       0.0       4.2
22 H  s               0.0       2.3       0.4       4.0       1.6       0.0
23 H  s               0.8       0.6       3.3       0.1       0.5       7.4
24 H  s               0.0       4.1       0.9       0.3       0.4       0.4
25 H  s               0.0       1.9       0.7       4.1       1.7       2.0

                     30        31        32        33        34        35   
                  -0.45096  -0.44552  -0.44179  -0.42258  -0.40226  -0.40042
                   2.00000   2.00000   2.00000   2.00000   2.00000   2.00000
                  --------  --------  --------  --------  --------  --------
 0 C  s               0.0       1.3       0.5       0.0       0.0       0.1
 0 C  pz              0.0      13.6       2.4       1.3       1.9       0.3
 0 C  px              0.0      12.0       5.5       1.2       1.4       0.2
 0 C  py              0.1       0.0       0.0      13.5      10.5       1.7
 0 C  dz2             0.0       0.3       0.1       0.0       0.0       0.0
 0 C  dxz             0.0       0.4       0.0       0.0       0.0       0.1
 0 C  dxy             0.0       0.0       0.0       0.1       0.1       0.0
 1 N  s               0.0       1.3       0.2       0.0       0.0       0.2
 1 N  pz              0.0      24.4       5.1       0.3       0.2       2.2
 1 N  px              0.1       0.3       0.1       2.7       0.2       1.6
 1 N  py              0.3       0.5       0.0      11.4       5.6       0.1
 2 C  s               0.0       0.3       1.5       0.1       0.1       1.1
 2 C  pz              0.0       0.3       0.1       0.8       0.2       0.5
 2 C  px              0.2       0.5       0.1       4.4       0.0       0.1
 2 C  py              0.9       0.1       0.5      11.3       0.2       0.0
 2 C  dz2             0.0       0.0       0.2       0.0       0.1       0.5
 2 C  dxz             0.0       0.4       0.1       0.0       0.0       0.0
 2 C  dyz             0.0       0.1       0.0       0.0       0.0       0.1
 2 C  dx2y2           0.0       0.0       0.0       0.0       0.1       0.0
 3 O  s               0.0       1.5       3.3       0.1       0.7       4.5
 3 O  pz              0.0       0.6       3.4       1.0       1.2       8.4
 3 O  px              0.1       1.7       0.2       1.0       0.1       0.2
 3 O  py              0.2       0.2       0.3       3.4       0.2       0.1
 4 O  s               0.0       0.7       2.5       0.1       0.7       3.1
 4 O  pz              0.1       0.2      11.5       0.0       1.8      12.2
 4 O  px              0.3       0.3       0.3       2.4       5.2       8.5
 4 O  py              1.0       0.0       0.1       7.4       0.1       3.0
 5 C  s               1.1       0.8       1.8       0.0       0.0       0.1
[...]
25 H  s               0.0       0.1       0.0       0.0       0.1       0.0

                    228       229       230       231   
                   3.34439   3.46171   3.56758   3.61852
                   0.00000   0.00000   0.00000   0.00000
                  --------  --------  --------  --------
 0 C  dz2             0.1       0.0       0.0       0.2
 0 C  dxz             0.0       0.0       0.2       0.0
 1 N  s               0.0       0.1       0.2       0.0
 1 N  px              0.0       0.1       0.9       0.0
 1 N  py              0.0       0.0       0.2       0.0
 1 N  dz2             0.0       0.3       2.5       0.4
 1 N  dxz             1.0       0.0       0.1       2.8
 1 N  dyz             0.1       0.0       0.1       0.6
 1 N  dx2y2           0.0       0.1       0.4       0.0
 1 N  dxy             0.0       0.2       1.8       0.4
 2 C  s               1.1       2.2       1.5       2.9
 2 C  pz              0.1       1.3       0.0       4.3
 2 C  px              0.2       0.4       0.8       0.4
 2 C  py              0.0       0.1       0.3       0.0
 2 C  dz2             0.9       0.5      10.0       4.3
 2 C  dxz             0.1       1.2       5.9       6.9
 2 C  dyz             0.3       0.9       6.2       0.3
 2 C  dx2y2           0.2       0.6       1.5       0.1
 2 C  dxy             0.5       0.5       0.3       0.5
 3 O  s               0.6       1.6       0.6       3.3
 3 O  pz              0.3       1.1       0.1       2.6
 3 O  px              0.0       0.0       0.8       0.3
 3 O  py              0.0       0.1       0.2       0.0
 3 O  dz2             5.4      19.0       0.4      25.8
 3 O  dxz             0.4       1.2      19.4      11.0
 3 O  dyz             0.0       2.4       5.1       0.2
 3 O  dx2y2           0.0       0.0       3.4       0.2
 3 O  dxy             0.1       0.3       0.8       0.1
 4 O  s               0.2       0.7       0.3       0.6
 4 O  pz              0.1       0.1       0.4       0.4
 4 O  px              0.3       0.5       2.0       0.6
 4 O  py              0.3       0.1       0.7       0.3
 4 O  dz2             6.6       3.2       1.0       9.3
 4 O  dxz             0.2       0.0      16.8       0.3
 4 O  dyz             1.1       0.0       8.3       1.0
 4 O  dx2y2           0.0       5.3       1.0       4.1
 4 O  dxy             6.6       6.6       1.8       5.2
 5 C  s               0.8       0.0       0.3       0.3
 5 C  px              0.1       0.9       0.3       0.7
 5 C  py              0.6       0.1       0.0       0.2
 5 C  dz2             0.4       0.0       0.4       0.2
 5 C  dxz             0.3       0.5       0.6       0.4
 5 C  dyz             0.0       0.2       0.0       0.1
 5 C  dx2y2           3.2       4.6       0.0       2.3
 5 C  dxy             1.2       6.2       1.1       1.7
 6 C  s               0.0       0.4       0.0       0.1
 6 C  py              0.3       0.0       0.0       0.0
 6 C  dz2             0.0       0.1       0.0       0.0
 6 C  dx2y2           0.6       0.4       0.0       0.1
 6 C  dxy             0.5       4.2       0.3       0.7
 7 C  s               0.0       0.3       0.0       0.0
 7 C  px              0.2       0.0       0.0       0.0
 7 C  dx2y2           0.4       3.3       0.1       0.4
 7 C  dxy             0.4       0.1       0.0       0.0
 8 C  s               0.2       0.4       0.0       0.0
 8 C  py              0.5       0.0       0.0       0.0
 8 C  dz2             0.0       0.2       0.0       0.0
 8 C  dx2y2           1.6       1.8       0.0       0.1
 8 C  dxy             0.0       1.6       0.0       0.2
 9 C  s               0.2       0.0       0.0       0.0
 9 C  py              0.4       0.1       0.0       0.0
 9 C  dxz             0.2       0.0       0.0       0.0
 9 C  dx2y2           9.9       2.7       0.1       0.2
 9 C  dxy             0.1       3.9       0.0       0.4
10 C  s               0.1       0.0       0.0       0.0
10 C  px              0.3       0.1       0.1       0.0
10 C  py              0.1       0.2       0.0       0.0
10 C  dyz             0.2       0.1       0.0       0.0
10 C  dx2y2           0.1       7.1       0.1       1.1
10 C  dxy            12.2       1.3       0.2       0.0
11 C  s               0.5       0.3       0.0       0.0
11 C  py              0.0       0.3       0.0       0.1
11 C  dz2             0.3       0.1       0.0       0.0
11 C  dx2y2           2.3       1.6       0.0       0.1
11 C  dxy             6.8       0.2       0.0       0.0
12 C  s               0.9       0.0       0.0       0.0
12 C  py              0.1       0.0       0.0       0.0
12 C  dz2             0.4       0.0       0.0       0.0
12 C  dxz             0.3       0.0       0.0       0.0
12 C  dx2y2           7.3       1.0       0.0       0.0
12 C  dxy             0.3       0.0       0.0       0.0
13 C  s               0.8       0.1       0.0       0.0
13 C  dz2             0.4       0.0       0.0       0.0
13 C  dyz             0.1       0.0       0.0       0.0
13 C  dx2y2           0.8       0.0       0.0       0.0
13 C  dxy             6.3       1.1       0.0       0.0
14 C  s               0.6       0.2       0.0       0.0
14 C  px              0.0       0.1       0.0       0.0
14 C  dz2             0.3       0.0       0.0       0.0
14 C  dx2y2           3.6       0.2       0.0       0.0
14 C  dxy             3.8       1.5       0.0       0.1
19 H  s               0.0       0.2       0.0       0.1
20 H  s               0.0       0.2       0.0       0.0
21 H  s               0.0       0.1       0.0       0.0
22 H  s               0.3       0.1       0.0       0.0
23 H  s               0.3       0.0       0.0       0.0
24 H  s               0.3       0.0       0.0       0.0
25 H  s               0.3       0.1       0.0       0.0


                      *****************************
                      * MAYER POPULATION ANALYSIS *
                      *****************************

  NA   - Mulliken gross atomic population
  ZA   - Total nuclear charge
  QA   - Mulliken gross atomic charge
  VA   - Mayer's total valence
  BVA  - Mayer's bonded valence
  FA   - Mayer's free valence

  ATOM       NA         ZA         QA         VA         BVA        FA
  0 C      6.1808     6.0000    -0.1808     3.9082     3.9082    -0.0000
  1 N      7.2951     7.0000    -0.2951     3.2075     3.2075     0.0000
  2 C      5.8177     6.0000     0.1823     4.4329     4.4329    -0.0000
  3 O      8.2099     8.0000    -0.2099     2.2975     2.2975    -0.0000
  4 O      8.2625     8.0000    -0.2625     2.2203     2.2203    -0.0000
  5 C      5.8179     6.0000     0.1821     3.9335     3.9335     0.0000
  6 C      6.1207     6.0000    -0.1207     3.8094     3.8094     0.0000
  7 C      6.0410     6.0000    -0.0410     3.7570     3.7570     0.0000
  8 C      6.1114     6.0000    -0.1114     3.7329     3.7329     0.0000
  9 C      5.8682     6.0000     0.1318     3.8474     3.8474     0.0000
 10 C      5.8731     6.0000     0.1269     3.8539     3.8539     0.0000
 11 C      6.1260     6.0000    -0.1260     3.7925     3.7925     0.0000
 12 C      6.0423     6.0000    -0.0423     3.8077     3.8077     0.0000
 13 C      6.0360     6.0000    -0.0360     3.7927     3.7927    -0.0000
 14 C      6.1321     6.0000    -0.1321     3.7871     3.7871     0.0000
 15 H      0.8869     1.0000     0.1131     0.9496     0.9496     0.0000
 16 H      0.8610     1.0000     0.1390     0.9818     0.9818     0.0000
 17 H      0.8867     1.0000     0.1133     0.9539     0.9539     0.0000
 18 H      0.7610     1.0000     0.2390     0.9234     0.9234     0.0000
 19 H      0.9615     1.0000     0.0385     0.9662     0.9662     0.0000
 20 H      0.9449     1.0000     0.0551     0.9502     0.9502     0.0000
 21 H      0.9617     1.0000     0.0383     0.9584     0.9584     0.0000
 22 H      0.9472     1.0000     0.0528     0.9600     0.9600     0.0000
 23 H      0.9480     1.0000     0.0520     0.9504     0.9504     0.0000
 24 H      0.9468     1.0000     0.0532     0.9495     0.9495    -0.0000
 25 H      0.9598     1.0000     0.0402     0.9580     0.9580    -0.0000

  Mayer bond orders larger than 0.100000
B(  0-C ,  1-N ) :   1.0190 B(  0-C , 15-H ) :   0.9546 B(  0-C , 16-H ) :   0.9451 
B(  0-C , 17-H ) :   0.9569 B(  1-N ,  2-C ) :   1.2132 B(  1-N , 18-H ) :   0.8643 
B(  2-C ,  3-O ) :   2.0662 B(  2-C ,  4-O ) :   1.0551 B(  4-O ,  5-C ) :   0.9924 
B(  5-C ,  6-C ) :   1.5010 B(  5-C , 10-C ) :   1.2354 B(  6-C ,  7-C ) :   1.2148 
B(  6-C , 19-H ) :   0.9630 B(  7-C ,  8-C ) :   1.4464 B(  7-C , 20-H ) :   0.9612 
B(  8-C ,  9-C ) :   1.2353 B(  8-C , 21-H ) :   0.9672 B(  9-C , 10-C ) :   1.2544 
B(  9-C , 14-C ) :   1.2389 B( 10-C , 11-C ) :   1.2574 B( 11-C , 12-C ) :   1.4592 
B( 11-C , 22-H ) :   0.9483 B( 12-C , 13-C ) :   1.2572 B( 12-C , 23-H ) :   0.9616 
B( 13-C , 14-C ) :   1.4627 B( 13-C , 24-H ) :   0.9622 B( 14-C , 25-H ) :   0.9650 


-------
TIMINGS
-------

Total SCF time: 0 days 0 hours 0 min 10 sec 

Total time                  ....      10.866 sec
Sum of individual times     ....      10.802 sec  ( 99.4%)

SCF preparation             ....       0.280 sec  (  2.6%)
Fock matrix formation       ....       8.868 sec  ( 81.6%)
  Startup                   ....       0.009 sec  (  0.1% of F)
  Split-RI-J                ....       4.983 sec  ( 56.2% of F)
  XC integration            ....       3.370 sec  ( 38.0% of F)
    Basis function eval.    ....       1.370 sec  ( 40.6% of XC)
    Density eval.           ....       0.792 sec  ( 23.5% of XC)
    XC-Functional eval.     ....       0.202 sec  (  6.0% of XC)
    XC-Potential eval.      ....       0.814 sec  ( 24.2% of XC)
Diagonalization             ....       0.000 sec  (  0.0%)
Density matrix formation    ....       0.036 sec  (  0.3%)
Total Energy calculation    ....       0.003 sec  (  0.0%)
Population analysis         ....       1.443 sec  ( 13.3%)
Orbital Transformation      ....       0.025 sec  (  0.2%)
Orbital Orthonormalization  ....       0.000 sec  (  0.0%)
DIIS solution               ....       0.115 sec  (  1.1%)
  MO trafo                  ....       0.000 sec  (  0.0 % of DIIS)
  Orb grad                  ....       0.000 sec  (  0.0 % of DIIS)
  Energy W gradient         ....       0.000 sec  (  0.0 % of DIIS)
  DIIS error                ....       0.010 sec  (  9.0 % of DIIS)
  DIIS work                 ....       0.092 sec  ( 80.1 % of DIIS)
  Form Q                    ....       0.000 sec  (  0.0 % of DIIS)
  Form QpQm                 ....       0.000 sec  (  0.0 % of DIIS)
  Exp/Cayley                ....       0.000 sec  (  0.0 % of DIIS)
  Orb update                ....       0.000 sec  (  0.0 % of DIIS)
  Wake-sleep                ....       0.001 sec  (  1.1 % of DIIS)
SOSCF solution              ....       0.033 sec  (  0.3%)
  MO trafo                  ....       0.021 sec  ( 64.7 % of SOSCF)
  Orb grad                  ....       0.000 sec  (  0.7 % of SOSCF)
  Rot update                ....       0.002 sec  (  6.3 % of SOSCF)
  Step                      ....       0.009 sec  ( 28.0 % of SOSCF)
Finished LeanSCF after  12.5 sec

Maximum memory used throughout the entire LEANSCF-calculation: 22.9 MB


-------------------------------------------------------------------------------
                          DFT DISPERSION CORRECTION                            
                                                                               
                                DFTD4 V3.4.0                                   
-------------------------------------------------------------------------------
The PBE functional is recognized
Active option DFTDOPT                   ...         5   

-------------------------   ----------------
Dispersion correction           -0.032953306
-------------------------   ----------------

------------------   -----------------
gCP correction             0.108327145
------------------   -----------------

-------------------------   --------------------
FINAL SINGLE POINT ENERGY      -667.733251275906
-------------------------   --------------------


------------------------------------------------------------------------------
                              ORCA PROPERTY CALCULATIONS
------------------------------------------------------------------------------

GBWName                                 ... sp.gbw
Number of atoms                         ...     26
Number of basis functions               ...    232
Max core memory                         ...   1024 MB

Electric properties:
Dipole moment                           ... YES
Quadrupole moment                       ...  NO
Static polarizability (Dipole/Dipole)   ...  NO
Static polarizability (Dipole/Quad.)    ...  NO
Static polarizability (Quad./Quad.)     ...  NO
Static polarizability (Velocity)        ...  NO

Atomic electric properties:
Dipole moment                           ...  NO
Quadrupole moment                       ...  NO
Static polarizability                   ...  NO

Choice of electric origin               ... Center of mass
Position of electric origin             ...    -0.000000    -0.000004     0.000007

General magnetic properties:
Magnetizability                         ...  NO

EPR properties:
g-Tensor (aka g-matrix)                 ...  NO
Zero-Field splitting spin-orbit         ...  NO
Zero-field splitting spin-spin          ...  NO
Hyperfine couplings                     ...  NO (   0 nuclei)
Quadrupole couplings                    ...  NO (   0 nuclei)
Contact density                         ...  NO (   0 nuclei)

NMR properties:
Chemical shifts                         ...  NO (   0 nuclei)
Spin-rotation constants                 ...  NO (   0 nuclei)
Spin-spin couplings                     ...  NO (   0 nuclei,    0 pairs)

Choice of magnetic origin               ... GIAO
Position of magnetic origin             ...     0.000000     0.000000     0.000000

Properties with geometric perturbations:
SCF Hessian                             ...  NO
IR spectrum                             ...  NO
VCD spectrum                            ...  NO
X-ray spectroscopy properties:
SCF XES/XAS/RIXS spectra                ...  NO


-------------
DIPOLE MOMENT
-------------

Method             : SCF
Type of density    : Electron Density
Multiplicity       :   1
Irrep              :   0
Energy             :  -667.8086251151759143 Eh
Relativity type    : 
Basis              : AO
                                X                 Y                 Z
Electronic contribution:      2.516405194       1.791155749      -2.601822524
Nuclear contribution   :     -3.173456833      -1.977952768       3.289808485
                        -----------------------------------------
Total Dipole Moment    :     -0.657051639      -0.186797019       0.687985961
                        -----------------------------------------
Magnitude (a.u.)       :      0.969502277
Magnitude (Debye)      :      2.464278949



--------------------
Rotational spectrum 
--------------------
 
Rotational constants in cm-1:             0.035638             0.015186             0.011797 
Rotational constants in MHz :          1068.403838           455.261677           353.656674 

Dipole components along the rotational axes: 
x,y,z [a.u.] :    -0.678718    -0.083933     0.687191 
x,y,z [Debye]:    -1.725164    -0.213340     1.746702 

 

Dipole moment calculation done in   0.5 sec 

Maximum memory used throughout the entire PROP-calculation: 15.5 MB

--------------------------------
SUGGESTED CITATIONS FOR THIS RUN
--------------------------------

Below you find a list of papers that are relevant to this ORCA run
We neither can nor want to force you to cite these papers, but we appreciate if you do
You receive ORCA, which is the product of decades of hard work by many enthusiastic individuals, for free
The only thing we kindly ask in return is that you cite our papers,
We deeply appreciate it, if you show your appreciation for ORCA by not just citing the generic ORCA reference.

Please note that relegating all ORCA citations to the supporting information does *not* help us.
SI sections are not indexed - citations you put there will not count into any citation statistics
But we need these citations in order to attract the funding resources that allow us to do what we are doing

Therefore, if you are a happy ORCA user, please consider citing a few of the papers listed below in the main body of your paper

In addition to the list printed below, the program has created the file sp.bibtex that contains the list in bibtex format
You can import this file easily into all common literature databanks and citation aid programs


List of essential papers. We consider these as the minimum necessary citations

  1. Neese,F.
     Software update: the ORCA program system, version 5.0
     WIRES Comput. Molec. Sci., 2022 12(1)e1606
     doi.org/10.1002/wcms.1606

List of papers to cite with high priority. The work reported in these papers was absolutely
necessary for this run to complete.
Our perspective: the developers of density functionals and basis sets usually get cited in chemistry papers
Good! But without the algorithms to do something with them, the functionals or basis sets would not do anything.
Hence, in our opinion, the algorithm design and method developments papers are equally worthy of getting cited

  1. Neese,F.
     An improvement of the resolution of the identity approximation for the formation of the Coulomb matrix
     J. Comp. Chem., 2003 24(14)1740-1747
     doi.org/10.1002/jcc.10318
  2. Neese,F.
     The SHARK Integral Generation and Digestion System
     J. Comp. Chem., 2022  1-16
     doi.org/10.1002/jcc.26942
  3. Caldeweyher,E.; Bannwarth,C.; Grimme,S.
     Extension of the D3 dispersion coefficient model
     J. Chem. Phys., 2017 147 034112
     doi.org/10.1063/1.4993215
  4. Caldeweyher,E.; Ehlert,S.; Hansen,A.; Neugebauer,H.; Spicher,S.; Bannwarth,C.; Grimme,S.
     A generally applicable atomic-charge dependent London dispersion correction
     J. Chem. Phys., 2019 150 154122
     doi.org/10.1063/1.5090222
  5. Caldeweyher,E.; Mewes,J.; Ehlert,S.; Grimme,S.
     Extension and evaluation of the D4 London-dispersion model for periodic systems
     Phys. Chem. Chem. Phys., 2020 22(16)8499-8512
     doi.org/10.1039/D0CP00502A
  6. Wittmann,L.; Gordiy,I.; Friede,M.; Helmich-Paris,B.; Grimme,S.; Hansen,A.; Bursch,M.
     Extension of the D3 and D4 London Dispersion Corrections to the full Actinides Series
     Phys. Chem. Chem. Phys., 2024 26(32)21379-21394
     doi.org/https://doi.org/10.1039/D4CP01514B 

List of suggested additional citations. These are papers that are important in the 'surrounding' of 
of this run, or papers that preceded the highly important papers. If you like your results we are grateful for a citation.

  1. Neese,F.
     The ORCA program system
     WIRES Comput. Molec. Sci., 2012 2(1)73-78
     doi.org/10.1002/wcms.81
  2. Neese,F.
     Software update: the ORCA program system, version 4.0
     WIRES Comput. Molec. Sci., 2018 8(1)1-6
     doi.org/10.1002/wcms.1327
  3. Neese,F.; Wennmohs,F.; Becker,U.; Riplinger,C.
     The ORCA quantum chemistry program package
     J. Chem. Phys., 2020 152 Art. No. L224108
     doi.org/10.1063/5.0004608

List of optional additional citations

  1. Neese,F.
     Approximate second-order SCF convergence for spin unrestricted wavefunctions
     Chem. Phys. Lett., 2000 325(1-3)93-98
     doi.org/10.1016/s0009-2614(00)00662-x

Timings for individual modules:

Sum of individual times          ...       15.515 sec (=   0.259 min)
Startup calculation              ...        1.006 sec (=   0.017 min)   6.5 %
SCF iterations                   ...       13.904 sec (=   0.232 min)  89.6 %
Property calculations            ...        0.605 sec (=   0.010 min)   3.9 %
                             ****ORCA TERMINATED NORMALLY****
TOTAL RUN TIME: 0 days 0 hours 0 minutes 18 seconds 633 msec
