11
 energy: -1038.250414337752 gnorm: 0.024257745629 xtb: 6.7.1 (edcfbbe)
C            0.39033779417297       -1.87247523002974       -0.20136536568923
C            0.56788236485164       -0.48159320641341       -0.78100467314608
H            1.10109530968792       -0.52506366473267       -1.73575617306916
C           -0.74530633463026        0.25142501551141       -1.00243127184420
Cl          -1.68611115014716        0.39464693737488        0.50455524962358
Cl           1.60825878471266        0.49406889551893        0.30994622673735
H            1.35731667270146       -2.34583961823950       -0.05409865182397
H           -0.12347513945472       -1.81969308460635        0.75507899773460
H           -0.19911594148823       -2.48017132139903       -0.88489002419212
H           -0.57091359415299        1.26465058486040       -1.36424830500453
H           -1.36370483680429       -0.29766531023190       -1.71367717175938
11
 energy: -1038.251620366485 gnorm: 0.012343190738 xtb: 6.7.1 (edcfbbe)
C            0.39925476846557       -1.88042324622069       -0.19995162416382
C            0.56295740088642       -0.47870171997205       -0.75922483980180
H            1.07408907966027       -0.52186638907386       -1.72867492697024
C           -0.74996188073812        0.25728746977220       -0.98924019514520
Cl          -1.76000832932269        0.42812618661940        0.49012488979029
Cl           1.65741465394703        0.49897217978889        0.30354934572460
H            1.37095763946666       -2.35890059688203       -0.07256231631771
H           -0.10422294549163       -1.84304804352384        0.76675125955034
H           -0.20305792630623       -2.48219313493389       -0.88743869924648
H           -0.56515637113046        1.26275078149513       -1.37235727983649
H           -1.34600247162829       -0.29971414419686       -1.71886708392483
11
 energy: -1038.251797601682 gnorm: 0.005604224709 xtb: 6.7.1 (edcfbbe)
C            0.40004236218553       -1.88097594378756       -0.19439047727917
C            0.55788733685245       -0.48137023919732       -0.75787529665516
H            1.06181070715572       -0.51833767375501       -1.73192080378286
C           -0.74711815928832        0.26058991473020       -0.99414284447766
Cl          -1.76714623780676        0.42661708579601        0.48826442002354
Cl           1.65971228046188        0.50245806439147        0.30749548661176
H            1.37432680709292       -2.36160500732103       -0.08127287913569
H           -0.09603819017948       -1.85315058881278        0.77865694299506
H           -0.20895647595306       -2.47975675254377       -0.88196358589584
H           -0.56033843058742        1.26723414456872       -1.37353335535632
H           -1.33791831330485       -0.29941383350979       -1.72720889164864
11
 energy: -1038.251850915212 gnorm: 0.002075319988 xtb: 6.7.1 (edcfbbe)
C            0.39923806711275       -1.87966858548508       -0.19298043617544
C            0.55606196773741       -0.48337982424011       -0.75998145055117
H            1.06326660555944       -0.51961948674663       -1.73187397108269
C           -0.74500699350841        0.25946109566083       -0.99778834527176
Cl          -1.77117429528297        0.42113615825301        0.48625955748419
Cl           1.65918836193753        0.50548722769330        0.30985241102503
H            1.37391937304745       -2.36161712595713       -0.08917270600521
H           -0.08880935180914       -1.85212341164562        0.78408195040682
H           -0.21615408761926       -2.47862195369109       -0.87524479021407
H           -0.55765302416868        1.26859275651526       -1.36883588380335
H           -1.33661276529809       -0.29735783747025       -1.73220744594944
11
 energy: -1038.251873606351 gnorm: 0.001107486771 xtb: 6.7.1 (edcfbbe)
C            0.39897196915829       -1.87889640907529       -0.19242880288794
C            0.55458242954403       -0.48499925230732       -0.76221315560424
H            1.06826428537095       -0.52165849502265       -1.73036300870563
C           -0.74380148282692        0.25861448181875       -1.00122046949502
Cl          -1.77360241256451        0.41286557457020        0.48415874981450
Cl           1.65704732448638        0.50789780292401        0.31147010486807
H            1.37267573552103       -2.36342589060165       -0.09649400285833
H           -0.08020590319305       -1.84736767773070        0.78823016298570
H           -0.22442561061477       -2.47765394423046       -0.86729495827024
H           -0.55656686402501        1.27039776268477       -1.36414232025989
H           -1.33667539787094       -0.29348511620497       -1.73759320525244
11
 energy: -1038.251881633857 gnorm: 0.001288355168 xtb: 6.7.1 (edcfbbe)
C            0.39878644570511       -1.87825652997608       -0.19186084301465
C            0.55480787843620       -0.48536356627806       -0.76367066774455
H            1.07281881225932       -0.52232442280885       -1.72955429550978
C           -0.74342690552304        0.25768146495754       -1.00293706317481
Cl          -1.77681128549680        0.40481114718886        0.48118015105328
Cl           1.65554859890560        0.50894328598978        0.31256438093232
H            1.37115327058694       -2.36619859363181       -0.10345891447613
H           -0.07140359777433       -1.84265785978997        0.79266260803953
H           -0.23327791634969       -2.47551564624194       -0.85949646801350
H           -0.55632310543591        1.27133539403502       -1.36042785030492
H           -1.33560790427370       -0.29016599514109       -1.74289176465541
11
 energy: -1038.251887862073 gnorm: 0.000674893797 xtb: 6.7.1 (edcfbbe)
C            0.39907366597217       -1.87815829041371       -0.19093550665929
C            0.55529136961155       -0.48488017389645       -0.76313522530883
H            1.07372015842141       -0.52208089627445       -1.72885585376270
C           -0.74350237352271        0.25778395802969       -1.00378043410419
Cl          -1.78043370253045        0.39895544154860        0.47731674821837
Cl           1.65493875469816        0.50923416515329        0.31327844159418
H            1.37031655421396       -2.36971890024321       -0.10998512089591
H           -0.06303060411267       -1.84031090192332        0.79736046128526
H           -0.24107250949704       -2.47271181163353       -0.85306733404020
H           -0.55641338743285        1.27252474421464       -1.35846974886794
H           -1.33262346040902       -0.28834878216966       -1.74761701787947
11
 energy: -1038.251890686415 gnorm: 0.000335709686 xtb: 6.7.1 (edcfbbe)
C            0.39915153480212       -1.87758165711111       -0.18961988098324
C            0.55587938304250       -0.48427246307328       -0.76232800180037
H            1.07324429408474       -0.52182192594618       -1.72858744747746
C           -0.74338981056487        0.25775553693264       -1.00416081220943
Cl          -1.78541172888180        0.39430134661741        0.47279795085663
Cl           1.65454947997029        0.50935494231348        0.31389833013041
H            1.36950794346649       -2.37249468403955       -0.11755866123063
H           -0.05441166512370       -1.83958596716414        0.80274120312241
H           -0.24886736640036       -2.46909946681932       -0.84678477727878
H           -0.55569022446995        1.27333995242364       -1.35634969892267
H           -1.32829720667040       -0.28760717920999       -1.75193867449093
11
 energy: -1038.251890686415 gnorm: 0.000335709686 xtb: 6.7.1 (edcfbbe)
C            0.39915153480212       -1.87758165711111       -0.18961988098324
C            0.55587938304250       -0.48427246307328       -0.76232800180037
H            1.07324429408474       -0.52182192594618       -1.72858744747746
C           -0.74338981056487        0.25775553693264       -1.00416081220943
Cl          -1.78541172888180        0.39430134661741        0.47279795085663
Cl           1.65454947997029        0.50935494231348        0.31389833013041
H            1.36950794346649       -2.37249468403955       -0.11755866123063
H           -0.05441166512370       -1.83958596716414        0.80274120312241
H           -0.24886736640036       -2.46909946681932       -0.84678477727878
H           -0.55569022446995        1.27333995242364       -1.35634969892267
H           -1.32829720667040       -0.28760717920999       -1.75193867449093
