
                                 *****************
                                 * O   R   C   A *
                                 *****************

                                            #,                                       
                                            ###                                      
                                            ####                                     
                                            #####                                    
                                            ######                                   
                                           ########,                                 
                                     ,,################,,,,,                         
                               ,,#################################,,                 
                          ,,##########################################,,             
                       ,#########################################, ''#####,          
                    ,#############################################,,   '####,        
                  ,##################################################,,,,####,       
                ,###########''''           ''''###############################       
              ,#####''   ,,,,##########,,,,          '''####'''          '####       
            ,##' ,,,,###########################,,,                        '##       
           ' ,,###''''                  '''############,,,                           
         ,,##''                                '''############,,,,        ,,,,,,###''
      ,#''                                            '''#######################'''  
     '                                                          ''''####''''         
             ,#######,   #######,   ,#######,      ##                                
            ,#'     '#,  ##    ##  ,#'     '#,    #''#        ,####,   ,####,        
            ##       ##  ##   ,#'  ##            #'  '#       #'       #'  '#        
            ##       ##  #######   ##           ,######,      #####,   #    #        
            '#,     ,#'  ##    ##  '#,     ,#' ,#      #,     #,   #   #,  ,#        
             '#######'   ##     ##  '#######'  #'      '#     '####' # '####'        



                #########################################################
                #                        -***-                          #
                #          Department of theory and spectroscopy        #
                #                                                       #
                #                      Frank Neese                      #
                #                                                       #
                #     Directorship, Architecture, Infrastructure        #
                #                    SHARK, DRIVERS                     #
                #        Core code/Algorithms in most modules           #
                #                                                       #
                #        Max Planck Institute fuer Kohlenforschung      #
                #                Kaiser Wilhelm Platz 1                 #
                #                 D-45470 Muelheim/Ruhr                 #
                #                      Germany                          #
                #                                                       #
                #                  All rights reserved                  #
                #                        -***-                          #
                #########################################################


                         Program Version 6.0.0  -   RELEASE  -


 With contributions from (in alphabetic order):
   Daniel Aravena         : Magnetic Suceptibility
   Michael Atanasov       : Ab Initio Ligand Field Theory (pilot matlab implementation)
   Alexander A. Auer      : GIAO ZORA, VPT2 properties, NMR spectrum
   Ute Becker             : All parallelization in ORCA, NUMFREQ, NUMCALC
   Giovanni Bistoni       : ED, misc. LED, open-shell LED, HFLD
   Martin Brehm           : Molecular dynamics
   Dmytro Bykov           : pre 5.0 version of the SCF Hessian
   Marcos Casanova-Páez   : Triplet and SCS-CIS(D). UHF-(DLPNO)-IP/EA/STEOM-CCSD. UHF-CVS-IP/STEOM-CCSD
   Vijay G. Chilkuri      : MRCI spin determinant printing, contributions to CSF-ICE
   Pauline Colinet        : FMM embedding
   Dipayan Datta          : RHF DLPNO-CCSD density
   Achintya Kumar Dutta   : EOM-CC, STEOM-CC
   Nicolas Foglia         : Exact transition moments, OPA infrastructure, MCD improvements
   Dmitry Ganyushin       : Spin-Orbit,Spin-Spin,Magnetic field MRCI
   Miquel Garcia          : C-PCM and meta-GGA Hessian, CCSD/C-PCM, Gaussian charge scheme
   Tiago L. C. Gouveia    : GS-ROHF, GS-ROCIS
   Yang Guo               : DLPNO-NEVPT2, F12-NEVPT2, CIM, IAO-localization
   Andreas Hansen         : Spin unrestricted coupled pair/coupled cluster methods
   Ingolf Harden          : AUTO-CI MPn and infrastructure 
   Benjamin Helmich-Paris : MC-RPA, TRAH-(SCF,CASSCF), AVAS, COSX integrals, SCF dyn. polar.
   Lee Huntington         : MR-EOM, pCC
   Robert Izsak           : Overlap fitted RIJCOSX, COSX-SCS-MP3, EOM
   Riya Kayal             : Wick's Theorem for AUTO-CI, AUTO-CI UHF-CCSDT
   Emily Kempfer          : AUTO-CI, RHF CISDT and CCSDT
   Christian Kollmar      : KDIIS, OOCD, Brueckner-CCSD(T), CCSD density, CASPT2, CASPT2-K, improved NEVPT2
   Axel Koslowski         : Symmetry handling
   Simone Kossmann        : Meta GGA functionals, TD-DFT gradient, OOMP2, (MP2 Hessian; deprecated post 5.0)
   Lucas Lang             : DCDCAS
   Marvin Lechner         : AUTO-CI (C++ implementation), FIC-MRCC
   Spencer Leger          : CASSCF response
   Dagmar Lenk            : GEPOL surface, SMD, ORCA-2-JSON
   Dimitrios Liakos       : Extrapolation schemes; Compound Job, initial MDCI parallelization
   Dimitrios Manganas     : Further ROCIS development; embedding schemes. LFT, Crystal Embedding
   Dimitrios Pantazis     : SARC Basis sets
   Anastasios Papadopoulos: AUTO-CI, single reference methods and gradients
   Taras Petrenko         : pre 6.0 DFT Hessian and TD-DFT gradient, (ASA, deprecated), ECA, 1-Electron XAS/XES, NRVS
   Peter Pinski           : DLPNO-MP2, DLPNO-MP2 Gradient
   Christoph Reimann      : Effective Core Potentials
   Marius Retegan         : Local ZFS, SOC
   Christoph Riplinger    : Optimizer, TS searches, QM/MM, DLPNO-CCSD(T), (RO)-DLPNO pert. Triples
   Michael Roemelt        : Original ROCIS implementation
   Masaaki Saitow         : Open-shell DLPNO-CCSD energy and density
   Barbara Sandhoefer     : DKH picture change effects
   Kantharuban Sivalingam : CASSCF convergence/infrastructure, NEVPT2 and variants, FIC-MRCI
   Bernardo de Souza      : ESD, SOC TD-DFT
   Georgi Stoychev        : AutoAux, RI-MP2 NMR, DLPNO-MP2 response, X2C
   Van Anh Tran           : RI-MP2 g-tensors
   Willem Van den Heuvel  : Paramagnetic NMR
   Zikuan Wang            : NOTCH, Electric field optimization 
   Frank Wennmohs         : Technical directorship and infrastructure
   Hang Xu                : AUTO-CI-Response properties 


 We gratefully acknowledge several colleagues who have allowed us to
 interface, adapt or use parts of their codes:
   Stefan Grimme, W. Hujo, H. Kruse, P. Pracht,  : VdW corrections, initial TS optimization,
                  C. Bannwarth, S. Ehlert,         DFT functionals, gCP, sTDA/sTD-DF
                  L. Wittmann, M. Mueller
   Ed Valeev, F. Pavosevic, A. Kumar             : LibInt (2-el integral package), F12 methods
   Garnet Chan, S. Sharma, J. Yang, R. Olivares  : DMRG
   Ulf Ekstrom                                   : XCFun DFT Library
   Mihaly Kallay                                 : mrcc  (arbitrary order and MRCC methods)
   Frank Weinhold                                : gennbo (NPA and NBO analysis)
   Simon Mueller                                 : openCOSMO-RS
   Christopher J. Cramer and Donald G. Truhlar   : smd solvation model
   Lars Goerigk                                  : TD-DFT with DH, B97 family of functionals
   V. Asgeirsson, H. Jonsson                     : NEB implementation
   FAccTs GmbH                                   : IRC, NEB, NEB-TS, DLPNO-Multilevel, CI-OPT
                                                   MM, QMMM, 2- and 3-layer-ONIOM, Crystal-QMMM,
                                                   LR-CPCM, SF, NACMEs, symmetry and pop. for TD-DFT,
                                                   nearIR, NL-DFT gradient (VV10), updates on ESD,
                                                   ML-optimized integration grids, MBIS, APM,
                                                   GOAT, DOCKER, SOLVATOR, interface openCOSMO-RS
   S Lehtola, MJT Oliveira, MAL Marques          : LibXC Library
   Liviu Ungur et al                             : ANISO software


 Your calculation uses the libint2 library for the computation of 2-el integrals
 For citations please refer to: http://libint.valeyev.net

 Your ORCA version has been built with support for libXC version: 6.2.2
 For citations please refer to: https://libxc.gitlab.io

 This ORCA versions uses:
   CBLAS   interface :  Fast vector & matrix operations
   LAPACKE interface :  Fast linear algebra routines
   SCALAPACK package :  Parallel linear algebra routines
   Shared memory     :  Shared parallel matrices
   BLAS/LAPACK       :  OpenBLAS 0.3.27  USE64BITINT DYNAMIC_ARCH NO_AFFINITY SkylakeX SINGLE_THREADED
        Core in use  :  SkylakeX
   Copyright (c) 2011-2014, The OpenBLAS Project




***************************************
The coordinates will be read from file: vacuum_censo.xyz
***************************************


Your calculation utilizes the geometrical counterpoise correction gCP
Please cite in your paper:
H.Kruse, S. Grimme J.Chem.Phys., 136, (2012), 154101 
   

Your calculation utilizes the atom-pairwise dispersion correction
based on EEQ partial charges (D4)


================================================================================

----- Orbital basis set information -----
Your calculation utilizes the basis: def2-TZVP
   F. Weigend and R. Ahlrichs, Phys. Chem. Chem. Phys. 7, 3297 (2005).

----- AuxJ basis set information -----
Your calculation utilizes the basis: def2-mTZVPP/J
   Stefan Grimme, Andreas Hansen, Sebastian Ehlert, and Jan-Michael Mewes 
   J. Chem. Phys. 154, 000000 (2021). DOI: 10.1063/5.0040021

================================================================================
                                        WARNINGS
                       Please study these warnings very carefully!
================================================================================

Using LibXC functional ID 497 : Re-regularized SCAN exchange by Furness et al
[ 1]  J. W. Furness, A. D. Kaplan, J. Ning, J. P. Perdew, and J. Sun.,  J. Phys. Chem. Lett. 11, 8208-8215 (2020)
[ 2]  J. W. Furness, A. D. Kaplan, J. Ning, J. P. Perdew, and J. Sun.,  J. Phys. Chem. Lett. 11, 9248-9248 (2020)
Using LibXC functional ID 498 : Re-regularized SCAN correlation by Furness et al
[ 1]  J. W. Furness, A. D. Kaplan, J. Ning, J. P. Perdew, and J. Sun.,  J. Phys. Chem. Lett. 11, 8208-8215 (2020)
[ 2]  J. W. Furness, A. D. Kaplan, J. Ning, J. P. Perdew, and J. Sun.,  J. Phys. Chem. Lett. 11, 9248-9248 (2020)
Using LibXC functional ID 497 : Re-regularized SCAN exchange by Furness et al
[ 1]  J. W. Furness, A. D. Kaplan, J. Ning, J. P. Perdew, and J. Sun.,  J. Phys. Chem. Lett. 11, 8208-8215 (2020)
[ 2]  J. W. Furness, A. D. Kaplan, J. Ning, J. P. Perdew, and J. Sun.,  J. Phys. Chem. Lett. 11, 9248-9248 (2020)
Using LibXC functional ID 498 : Re-regularized SCAN correlation by Furness et al
[ 1]  J. W. Furness, A. D. Kaplan, J. Ning, J. P. Perdew, and J. Sun.,  J. Phys. Chem. Lett. 11, 8208-8215 (2020)
[ 2]  J. W. Furness, A. D. Kaplan, J. Ning, J. P. Perdew, and J. Sun.,  J. Phys. Chem. Lett. 11, 9248-9248 (2020)

================================================================================
                                       INPUT FILE
================================================================================
NAME = vacuum_censo.inp
|  1> ! r2SCAN-3c DEF2-TZVP FREQ
|  2> * xyzfile 0 1 vacuum_censo.xyz
|  3> 
|  4>                          ****END OF INPUT****
================================================================================

                       ****************************
                       * Single Point Calculation *
                       ****************************

---------------------------------
CARTESIAN COORDINATES (ANGSTROEM)
---------------------------------
  C     -2.515766    0.735854   -0.002228
  C     -1.228807   -0.035587   -0.022937
  C     -1.193777   -1.425996   -0.096948
  C      0.013092   -2.118733   -0.114063
  C      1.209178   -1.414340   -0.056326
  C      1.221640   -0.021117    0.018107
  C     -0.008194    0.648041    0.033174
  O     -0.083905    2.017603    0.103906
  C      2.510048    0.752851    0.080050
  H     -3.371993    0.058859   -0.054568
  H     -2.600428    1.337369    0.909687
  H     -2.570242    1.435210   -0.844004
  H     -2.132759   -1.970575   -0.141609
  H      0.020434   -3.201776   -0.172159
  H      2.155718   -1.947522   -0.069054
  H      0.806554    2.383055    0.141031
  H      3.365226    0.074250    0.062594
  H      2.622449    1.434993   -0.773671
  H      2.589803    1.347922    1.000014

----------------------------
CARTESIAN COORDINATES (A.U.)
----------------------------
  NO LB      ZA    FRAG     MASS         X           Y           Z
   0 C     6.0000    0    12.011   -4.754109    1.390563   -0.004210
   1 C     6.0000    0    12.011   -2.322108   -0.067250   -0.043345
   2 C     6.0000    0    12.011   -2.255911   -2.694742   -0.183206
   3 C     6.0000    0    12.011    0.024741   -4.003826   -0.215547
   4 C     6.0000    0    12.011    2.285016   -2.672715   -0.106441
   5 C     6.0000    0    12.011    2.308564   -0.039906    0.034216
   6 C     6.0000    0    12.011   -0.015485    1.224620    0.062690
   7 O     8.0000    0    15.999   -0.158558    3.812718    0.196354
   8 C     6.0000    0    12.011    4.743304    1.422683    0.151273
   9 H     1.0000    0     1.008   -6.372143    0.111227   -0.103119
  10 H     1.0000    0     1.008   -4.914097    2.527262    1.719059
  11 H     1.0000    0     1.008   -4.857054    2.712155   -1.594936
  12 H     1.0000    0     1.008   -4.030331   -3.723846   -0.267602
  13 H     1.0000    0     1.008    0.038614   -6.050480   -0.325334
  14 H     1.0000    0     1.008    4.073717   -3.680284   -0.130494
  15 H     1.0000    0     1.008    1.524167    4.503321    0.266510
  16 H     1.0000    0     1.008    6.359356    0.140312    0.118285
  17 H     1.0000    0     1.008    4.955710    2.711744   -1.462026
  18 H     1.0000    0     1.008    4.894018    2.547203    1.889753

--------------------------------
INTERNAL COORDINATES (ANGSTROEM)
--------------------------------
 C      0   0   0     0.000000000000     0.00000000     0.00000000
 C      1   0   0     1.500605115008     0.00000000     0.00000000
 C      2   1   0     1.392817832720   122.37787631     0.00000000
 C      3   2   1     1.391657378790   121.29078131   180.03175345
 C      4   3   2     1.389289480111   119.58559482     0.00000000
 C      5   4   3     1.395265174443   121.07641658   359.97154068
 C      2   1   3     1.400139264142   119.74240632   179.99269383
 O      7   2   1     1.373476153331   116.15968901   359.93677101
 C      6   5   4     1.504280858161   121.57429717   180.04727749
 H      1   2   3     1.092788546096   110.66037476   359.87242512
 H      1   2   3     1.095708287338   111.09848913   120.62895035
 H      1   2   3     1.095743101190   111.10947896   239.09045054
 H      3   2   1     1.086392044025   118.74106859     0.00000000
 H      4   3   2     1.084624952835   120.23720822   180.00704407
 H      5   4   3     1.086454612403   120.04991652   179.99084880
 H      8   7   2     0.963250354318   109.22871563   179.79902724
 H      9   6   5     1.091848847288   110.51205595   359.72271112
 H      9   6   5     1.098540332746   112.03176974   119.01722172
 H      9   6   5     1.098546324040   112.04723439   240.43115868

---------------------------
INTERNAL COORDINATES (A.U.)
---------------------------
 C      0   0   0     0.000000000000     0.00000000     0.00000000
 C      1   0   0     2.835732702526     0.00000000     0.00000000
 C      2   1   0     2.632044258282   122.37787631     0.00000000
 C      3   2   1     2.629851318164   121.29078131   180.03175345
 C      4   3   2     2.625376638147   119.58559482     0.00000000
 C      5   4   3     2.636669063895   121.07641658   359.97154068
 C      2   1   3     2.645879758579   119.74240632   179.99269383
 O      7   2   1     2.595493781267   116.15968901   359.93677101
 C      6   5   4     2.842678850424   121.57429717   180.04727749
 H      1   2   3     2.065071074407   110.66037476   359.87242512
 H      1   2   3     2.070588585738   111.09848913   120.62895035
 H      1   2   3     2.070654374383   111.10947896   239.09045054
 H      3   2   1     2.052983437277   118.74106859     0.00000000
 H      4   3   2     2.049644118875   120.23720822   180.00704407
 H      5   4   3     2.053101674376   120.04991652   179.99084880
 H      8   7   2     1.820279368064   109.22871563   179.79902724
 H      9   6   5     2.063295301011   110.51205595   359.72271112
 H      9   6   5     2.075940375957   112.03176974   119.01722172
 H      9   6   5     2.075951697862   112.04723439   240.43115868

---------------------
BASIS SET INFORMATION
---------------------
There are 3 groups of distinct atoms

 Group   1 Type C   : 11s6p2d1f contracted to 5s3p2d1f pattern {62111/411/11/1}
 Group   2 Type O   : 11s6p2d1f contracted to 5s3p2d1f pattern {62111/411/11/1}
 Group   3 Type H   : 5s1p contracted to 3s1p pattern {311/1}

Atom   0C    basis set group =>   1
Atom   1C    basis set group =>   1
Atom   2C    basis set group =>   1
Atom   3C    basis set group =>   1
Atom   4C    basis set group =>   1
Atom   5C    basis set group =>   1
Atom   6C    basis set group =>   1
Atom   7O    basis set group =>   2
Atom   8C    basis set group =>   1
Atom   9H    basis set group =>   3
Atom  10H    basis set group =>   3
Atom  11H    basis set group =>   3
Atom  12H    basis set group =>   3
Atom  13H    basis set group =>   3
Atom  14H    basis set group =>   3
Atom  15H    basis set group =>   3
Atom  16H    basis set group =>   3
Atom  17H    basis set group =>   3
Atom  18H    basis set group =>   3
---------------------------------
AUXILIARY/J BASIS SET INFORMATION
---------------------------------
There are 3 groups of distinct atoms

 Group   1 Type C   : 8s3p3d contracted to 6s3p3d pattern {311111/111/111}
 Group   2 Type O   : 8s3p3d contracted to 6s3p3d pattern {311111/111/111}
 Group   3 Type H   : 5s2p1d contracted to 3s1p1d pattern {311/2/1}

Atom   0C    basis set group =>   1
Atom   1C    basis set group =>   1
Atom   2C    basis set group =>   1
Atom   3C    basis set group =>   1
Atom   4C    basis set group =>   1
Atom   5C    basis set group =>   1
Atom   6C    basis set group =>   1
Atom   7O    basis set group =>   2
Atom   8C    basis set group =>   1
Atom   9H    basis set group =>   3
Atom  10H    basis set group =>   3
Atom  11H    basis set group =>   3
Atom  12H    basis set group =>   3
Atom  13H    basis set group =>   3
Atom  14H    basis set group =>   3
Atom  15H    basis set group =>   3
Atom  16H    basis set group =>   3
Atom  17H    basis set group =>   3
Atom  18H    basis set group =>   3
------------------------------------------------------------------------------
                             ORCA STARTUP CALCULATIONS
                           -- RI-GTO INTEGRALS CHOSEN --
------------------------------------------------------------------------------
------------------------------------------------------------------------------
                   ___                                                        
                  /   \      - P O W E R E D   B Y -                         
                 /     \                                                     
                 |  |  |   _    _      __       _____    __    __             
                 |  |  |  | |  | |    /  \     |  _  \  |  |  /  |          
                  \  \/   | |  | |   /    \    | | | |  |  | /  /          
                 / \  \   | |__| |  /  /\  \   | |_| |  |  |/  /          
                |  |  |   |  __  | /  /__\  \  |    /   |      \           
                |  |  |   | |  | | |   __   |  |    \   |  |\   \          
                \     /   | |  | | |  |  |  |  | |\  \  |  | \   \       
                 \___/    |_|  |_| |__|  |__|  |_| \__\ |__|  \__/        
                                                                              
                      - O R C A' S   B I G   F R I E N D -                    
                                      &                                       
                       - I N T E G R A L  F E E D E R -                       
                                                                              
 v1 FN, 2020, v2 2021, v3 2022-2024                                           
------------------------------------------------------------------------------


----------------------
SHARK INTEGRAL PACKAGE
----------------------

Number of atoms                             ...     19
Number of basis functions                   ...    339
Number of shells                            ...    139
Maximum angular momentum                    ...      3
Integral batch strategy                     ... SHARK/LIBINT Hybrid
RI-J (if used) integral strategy            ... SPLIT-RIJ (Revised 2003 algorithm where possible)
Printlevel                                  ...      1
Contraction scheme used                     ... SEGMENTED contraction
Prescreening option                         ... SCHWARTZ
   Thresh                                   ... 1.000e-10
   Tcut                                     ... 1.000e-11
   Tpresel                                  ... 1.000e-11 
Coulomb Range Separation                    ... NOT USED
Exchange Range Separation                   ... NOT USED
Multipole approximations                    ... NOT USED
Finite Nucleus Model                        ... NOT USED
CABS basis                                  ... NOT available
Auxiliary Coulomb fitting basis             ... AVAILABLE
   # of basis functions in Aux-J            ...    380
   # of shells in Aux-J                     ...    158
   Maximum angular momentum in Aux-J        ...      2
Auxiliary J/K fitting basis                 ... NOT available
Auxiliary Correlation fitting basis         ... NOT available
Auxiliary 'external' fitting basis          ... NOT available

Checking pre-screening integrals            ... done (  0.0 sec) Dimension = 139
Check shell pair data                       ... done (  0.0 sec)
Shell pair information
Shell pair cut-off parameter TPreSel        ...   1.0e-11
Total number of shell pairs                 ...      9730
Shell pairs after pre-screening             ...      8728
Total number of primitive shell pairs       ...     29148
Primitive shell pairs kept                  ...     19399
          la=0 lb=0:   2429 shell pairs
          la=1 lb=0:   2499 shell pairs
          la=1 lb=1:    649 shell pairs
          la=2 lb=0:   1241 shell pairs
          la=2 lb=1:    627 shell pairs
          la=2 lb=2:    165 shell pairs
          la=3 lb=0:    602 shell pairs
          la=3 lb=1:    313 shell pairs
          la=3 lb=2:    158 shell pairs
          la=3 lb=3:     45 shell pairs

Calculating one electron integrals          ... done (  0.0 sec)
Calculating RI/J V-Matrix + Cholesky decomp.... done (  0.1 sec)
Calculating Nuclear repulsion               ... done (  0.0 sec) ENN=    431.951244425378 Eh

Diagonalization of the overlap matrix:
Smallest eigenvalue                        ... 7.619e-06
Time for diagonalization                   ...    0.013 sec
Threshold for overlap eigenvalues          ... 1.000e-07
Number of eigenvalues below threshold      ... 0
Time for construction of square roots      ...    0.021 sec
Total time needed                          ...    0.045 sec

-------------------
DFT GRID GENERATION
-------------------

General Integration Accuracy     IntAcc      ... 4.388
Radial Grid Type                 RadialGrid  ... OptM3 with GC (2021)
Angular Grid (max. ang.)         AngularGrid ... 4 (Lebedev-302)
Angular grid pruning method      GridPruning ... 4 (adaptive)
Weight generation scheme         WeightScheme... mBecke (2022)
Basis function cutoff            BFCut       ... 1.0000e-10
Integration weight cutoff        WCut        ... 1.0000e-14
Partially contracted basis set               ... off
Rotationally invariant grid construction     ... off
Angular grids for H and He will be reduced by one unit

Total number of grid points                  ...    86146
Total number of batches                      ...     1360
Average number of points per batch           ...       63
Average number of grid points per atom       ...     4534
Initializing property integral containers    ... done (  0.0 sec)

SHARK setup successfully completed in   1.4 seconds

Maximum memory used throughout the entire STARTUP-calculation: 50.7 MB
-------------------------------------------------------------------------------
                                 ORCA GUESS
                   Start orbitals & Density for SCF / CASSCF
-------------------------------------------------------------------------------

------------
SCF SETTINGS
------------
Hamiltonian:
 Density Functional     Method          .... DFT(GTOs)
  Functional kind                       .... Exchange
  Functional name                       .... Re-regularized SCAN exchange by Furness et al
  Functional family                     .... MGGA
  Functional refs                              
    [ 0] J. W. Furness, A. D. Kaplan, J. Ning, J. P. Perdew, and J. Sun.,  J. Phys. Chem. Lett. 11, 8208-8215 (2020), doi: 10.1021/acs.jpclett.0c02405
    [ 1] J. W. Furness, A. D. Kaplan, J. Ning, J. P. Perdew, and J. Sun.,  J. Phys. Chem. Lett. 11, 9248-9248 (2020), doi: 10.1021/acs.jpclett.0c03077
  Functional external parameters        .... 6
    Parameter  0 _c1        =  6.670000e-01 : c1 parameter        
    Parameter  1 _c2        =  8.000000e-01 : c2 parameter        
    Parameter  2 _d         =  1.240000e+00 : d parameter         
    Parameter  3 _k1        =  6.500000e-02 : k1 parameter        
    Parameter  4 _eta       =  1.000000e-03 : eta parameter       
    Parameter  5 _dp2       =  3.610000e-01 : dp2 parameter       
  Functional kind                       .... Correlation
  Functional name                       .... Re-regularized SCAN correlation by Furness et al
  Functional family                     .... MGGA
  Functional refs                              
    [ 0] J. W. Furness, A. D. Kaplan, J. Ning, J. P. Perdew, and J. Sun.,  J. Phys. Chem. Lett. 11, 8208-8215 (2020), doi: 10.1021/acs.jpclett.0c02405
    [ 1] J. W. Furness, A. D. Kaplan, J. Ning, J. P. Perdew, and J. Sun.,  J. Phys. Chem. Lett. 11, 9248-9248 (2020), doi: 10.1021/acs.jpclett.0c03077
  Functional external parameters        .... 1
    Parameter  0 _eta       =  1.000000e-03 : Regularization parameter
 Gradients option       PostSCFGGA      .... off
 RI-approximation to the Coulomb term is turned on
   Number of AuxJ basis functions       .... 380


General Settings:
 Integral files         IntName         .... vacuum_censo
 Hartree-Fock type      HFTyp           .... RHF
 Total Charge           Charge          ....    0
 Multiplicity           Mult            ....    1
 Number of Electrons    NEL             ....   66
 Basis Dimension        Dim             ....  339
 Nuclear Repulsion      ENuc            ....    431.9512444254 Eh

Convergence Acceleration:
 AO-DIIS                CNVDIIS         .... on
   Start iteration      DIISMaxIt       ....    12
   Startup error        DIISStart       ....  0.200000
   # of expansion vecs  DIISMaxEq       ....     5
   Bias factor          DIISBfac        ....   1.050
   Max. coefficient     DIISMaxC        ....  10.000
 MO-DIIS                CNVKDIIS        .... off
 Trust-Rad. Augm. Hess. CNVTRAH         .... auto
   Auto Start mean grad. ratio tolernc. ....  1.125000
   Auto Start start iteration           ....    50
   Auto Start num. interpolation iter.  ....    10
   Max. Number of Micro iterations      ....    24
   Max. Number of Macro iterations      .... Maxiter - #DIIS iter
   Number of Davidson start vectors     ....     2
   Converg. threshold    (grad. norm)   ....   5.000e-05
   Grad. Scal. Fac. for Micro threshold ....   0.100
   Minimum threshold for Micro iter.    ....   1.000e-02
   NR start threshold (gradient norm)   ....   1.000e-04
   Initial trust radius                 ....   0.400
   Minimum AH scaling param. (alpha)    ....   1.000
   Maximum AH scaling param. (alpha)    .... 1000.000
   Quad. conv. algorithm                .... NR
   White noise on init. David. guess    .... on
   Maximum white noise                  ....   0.010
   Pseudo random numbers                .... off
   Inactive MOs                         .... canonical
   Orbital update algorithm             .... Taylor
   Preconditioner                       .... Diag
   Full preconditioner red. dimension   ....   250
   COSX micro iterations for RIJONX calc.... off
 SOSCF                  CNVSOSCF        .... on
   Start iteration      SOSCFMaxIt      ....   150
   Startup grad/error   SOSCFStart      ....  0.003300
   Hessian update       SOSCFHessUp     .... L-BFGS
 Level Shifting         CNVShift        .... on
   Level shift para.    LevelShift      ....    0.2500
   Turn off err/grad.   ShiftErr        ....    0.0010
 Zerner damping         CNVZerner       .... off
 Static damping         CNVDamp         .... on
   Fraction old density DampFac         ....    0.7000
   Max. Damping (<1)    DampMax         ....    0.9800
   Min. Damping (>=0)   DampMin         ....    0.0000
   Turn off err/grad.   DampErr         ....    0.1000

SCF Procedure:
 Maximum # iterations   MaxIter         ....   125
 SCF integral mode      SCFMode         .... Direct
   Integral package                     .... SHARK and LIBINT hybrid scheme
 Reset frequency        DirectResetFreq ....    20
 Integral Threshold     Thresh          ....  1.000e-10 Eh
 Primitive CutOff       TCut            ....  1.000e-11 Eh

Convergence Tolerance:
 Convergence Check Mode ConvCheckMode   .... Total+1el-Energy
 Convergence forced     ConvForced      .... 0
 Energy Change          TolE            ....  1.000e-06 Eh
 1-El. energy change                    ....  1.000e-03 Eh
 Orbital Gradient       TolG            ....  5.000e-05
 Orbital Rotation angle TolX            ....  5.000e-05
 DIIS Error             TolErr          ....  1.000e-06

------------------------------
INITIAL GUESS: MODEL POTENTIAL
------------------------------
Loading Hartree-Fock densities                     ... done
Calculating cut-offs                               ... done
Initializing the effective Hamiltonian             ... done
Setting up the integral package (SHARK)            ... done
Starting the Coulomb interaction                   ... done (   0.5 sec)
Making the grid                                    ... done (   0.2 sec)
Mapping shells                                     ... done
Starting the XC term evaluation                    ... done (   0.5 sec)
  promolecular density results
     # of electrons  =     65.994145489
     EX              =    -52.033537042
     EC              =     -2.182264601
     EX+EC           =    -54.215801643
Transforming the Hamiltonian                       ... done (   0.0 sec)
Diagonalizing the Hamiltonian                      ... done (   0.0 sec)
Back transforming the eigenvectors                 ... done (   0.0 sec)
Now organizing SCF variables                       ... done
                      ------------------
                      INITIAL GUESS DONE (   1.3 sec)
                      ------------------
             **** ENERGY FILE WAS UPDATED (vacuum_censo.en.tmp) ****
Finished Guess after   1.6 sec
Maximum memory used throughout the entire GUESS-calculation: 33.9 MB

-------------------------------------------------------------------------------------------
                                      ORCA LEAN-SCF
                              memory conserving SCF solver
-------------------------------------------------------------------------------------------

----------------------------------------D-I-I-S--------------------------------------------
Iteration    Energy (Eh)           Delta-E    RMSDP     MaxDP     DIISErr   Damp  Time(sec)
-------------------------------------------------------------------------------------------
               ***  Starting incremental Fock matrix formation  ***
    1    -385.7874028178889603     0.00e+00  1.67e-03  5.36e-02  2.07e-01  0.700   4.8
    2    -385.9043558905258351    -1.17e-01  1.32e-03  5.75e-02  9.31e-02  0.700   4.2
                               ***Turning on AO-DIIS***
    3    -385.9510772357882615    -4.67e-02  6.16e-04  1.83e-02  3.68e-02  0.700   4.2
    4    -385.9779428046043677    -2.69e-02  1.23e-03  3.06e-02  1.69e-02  0.000   4.0
    5    -386.0367353968200632    -5.88e-02  3.00e-04  2.10e-02  9.20e-03  0.000   4.1
                              *** Initializing SOSCF ***
---------------------------------------S-O-S-C-F--------------------------------------
Iteration    Energy (Eh)           Delta-E    RMSDP     MaxDP     MaxGrad    Time(sec)
--------------------------------------------------------------------------------------
    6    -386.0371809159095164    -4.46e-04  1.01e-04  4.63e-03  1.67e-03     3.8
               *** Restarting incremental Fock matrix formation ***
    7    -386.0372150777161551    -3.42e-05  1.05e-04  7.42e-03  3.12e-04     4.7
    8    -386.0372026481477405     1.24e-05  4.49e-05  3.13e-03  1.12e-03     3.7
    9    -386.0372210789869314    -1.84e-05  1.31e-05  6.82e-04  1.43e-04     3.5
   10    -386.0372203536521738     7.25e-07  7.04e-06  4.16e-04  2.37e-04     3.4
                 **** Energy Check signals convergence ****

               *****************************************************
               *                     SUCCESS                       *
               *           SCF CONVERGED AFTER  10 CYCLES          *
               *****************************************************

             **** ENERGY FILE WAS UPDATED (vacuum_censo.en.tmp) ****

----------------
TOTAL SCF ENERGY
----------------

Total Energy       :       -386.03722035365217 Eh          -10504.60681 eV

Components:
Nuclear Repulsion  :        431.95124442537838 Eh           11753.99092 eV
Electronic Energy  :       -817.98846477903055 Eh          -22258.59773 eV
One Electron Energy:      -1378.14631351990988 Eh          -37501.26772 eV
Two Electron Energy:        560.15784874087933 Eh           15242.66999 eV

Virial components:
Potential Energy   :       -770.23651680440219 Eh          -20959.20117 eV
Kinetic Energy     :        384.19929645075001 Eh           10454.59436 eV
Virial Ratio       :          2.00478377737773

DFT components:
N(Alpha)           :       33.000019855610 electrons
N(Beta)            :       33.000019855610 electrons
N(Total)           :       66.000039711220 electrons
E(X)               :      -53.493993934172 Eh       
E(C)               :       -2.118152208487 Eh       
E(XC)              :      -55.612146142659 Eh       

---------------
SCF CONVERGENCE
---------------

  Last Energy change         ...   -7.2533e-07  Tolerance :   1.0000e-06
  Last MAX-Density change    ...    4.1601e-04  Tolerance :   1.0000e-05
  Last RMS-Density change    ...    7.0358e-06  Tolerance :   1.0000e-06
  Last DIIS Error            ...    1.6676e-03  Tolerance :   1.0000e-06
  Last Orbital Gradient      ...    2.3724e-04  Tolerance :   5.0000e-05
  Last Orbital Rotation      ...    3.8558e-04  Tolerance :   5.0000e-05


----------------
ORBITAL ENERGIES
----------------

  NO   OCC          E(Eh)            E(eV) 
   0   2.0000     -18.984467      -516.5936 
   1   2.0000     -10.086668      -274.4722 
   2   2.0000     -10.043837      -273.3067 
   3   2.0000     -10.041566      -273.2449 
   4   2.0000     -10.035720      -273.0858 
   5   2.0000     -10.029853      -272.9262 
   6   2.0000     -10.027542      -272.8633 
   7   2.0000     -10.024221      -272.7729 
   8   2.0000     -10.022904      -272.7371 
   9   2.0000      -1.024951       -27.8903 
  10   2.0000      -0.818278       -22.2665 
  11   2.0000      -0.752838       -20.4858 
  12   2.0000      -0.717513       -19.5245 
  13   2.0000      -0.663317       -18.0498 
  14   2.0000      -0.644932       -17.5495 
  15   2.0000      -0.573497       -15.6056 
  16   2.0000      -0.547967       -14.9109 
  17   2.0000      -0.504752       -13.7350 
  18   2.0000      -0.454737       -12.3740 
  19   2.0000      -0.431471       -11.7409 
  20   2.0000      -0.411559       -11.1991 
  21   2.0000      -0.393459       -10.7066 
  22   2.0000      -0.385190       -10.4816 
  23   2.0000      -0.377662       -10.2767 
  24   2.0000      -0.373821       -10.1722 
  25   2.0000      -0.357287        -9.7223 
  26   2.0000      -0.346530        -9.4296 
  27   2.0000      -0.343917        -9.3585 
  28   2.0000      -0.314243        -8.5510 
  29   2.0000      -0.305847        -8.3225 
  30   2.0000      -0.301360        -8.2004 
  31   2.0000      -0.220659        -6.0044 
  32   2.0000      -0.198188        -5.3930 
  33   0.0000      -0.024180        -0.6580 
  34   0.0000      -0.015216        -0.4140 
  35   0.0000       0.025414         0.6915 
  36   0.0000       0.065530         1.7832 
  37   0.0000       0.075423         2.0524 
  38   0.0000       0.091634         2.4935 
  39   0.0000       0.103117         2.8059 
  40   0.0000       0.103462         2.8154 
  41   0.0000       0.114585         3.1180 
  42   0.0000       0.131290         3.5726 
  43   0.0000       0.138222         3.7612 
*Only the first 10 virtual orbitals were printed.

                    ********************************
                    * MULLIKEN POPULATION ANALYSIS *
                    ********************************

-----------------------
MULLIKEN ATOMIC CHARGES
-----------------------
   0 C :   -0.307345
   1 C :    0.028459
   2 C :   -0.162109
   3 C :   -0.126168
   4 C :   -0.171258
   5 C :    0.129867
   6 C :    0.144989
   7 O :   -0.402896
   8 C :   -0.454923
   9 H :    0.103429
  10 H :    0.114725
  11 H :    0.114806
  12 H :    0.095016
  13 H :    0.101056
  14 H :    0.094456
  15 H :    0.319060
  16 H :    0.119083
  17 H :    0.130366
  18 H :    0.129386
Sum of atomic charges:   -0.0000000

--------------------------------
MULLIKEN REDUCED ORBITAL CHARGES
--------------------------------
  0 C s       :     3.269209  s :     3.269209
      pz      :     1.055356  p :     2.990077
      px      :     0.914994
      py      :     1.019727
      dz2     :     0.001483  d :     0.044267
      dxz     :     0.011137
      dyz     :     0.012037
      dx2y2   :     0.011467
      dxy     :     0.008143
      f0      :     0.000346  f :     0.003791
      f+1     :    -0.000068
      f-1     :     0.001212
      f+2     :     0.000061
      f-2     :     0.000347
      f+3     :     0.000913
      f-3     :     0.000981

  1 C s       :     3.285269  s :     3.285269
      pz      :     0.955893  p :     2.545654
      px      :     0.798109
      py      :     0.791652
      dz2     :     0.005384  d :     0.128721
      dxz     :     0.023106
      dyz     :     0.027646
      dx2y2   :     0.035788
      dxy     :     0.036798
      f0      :     0.001921  f :     0.011897
      f+1     :     0.000810
      f-1     :     0.000783
      f+2     :     0.001111
      f-2     :     0.001263
      f+3     :     0.003790
      f-3     :     0.002219

  2 C s       :     3.241203  s :     3.241203
      pz      :     0.986786  p :     2.832262
      px      :     0.951809
      py      :     0.893667
      dz2     :     0.003202  d :     0.079810
      dxz     :     0.009477
      dyz     :     0.020583
      dx2y2   :     0.022684
      dxy     :     0.023864
      f0      :     0.001724  f :     0.008833
      f+1     :     0.000661
      f-1     :     0.000652
      f+2     :     0.001030
      f-2     :     0.000482
      f+3     :     0.002515
      f-3     :     0.001770

  3 C s       :     3.210006  s :     3.210006
      pz      :     0.994528  p :     2.829664
      px      :     0.919361
      py      :     0.915775
      dz2     :     0.003691  d :     0.077757
      dxz     :     0.024164
      dyz     :     0.005152
      dx2y2   :     0.023414
      dxy     :     0.021336
      f0      :     0.001764  f :     0.008741
      f+1     :     0.000649
      f-1     :     0.000701
      f+2     :     0.000208
      f-2     :     0.001294
      f+3     :     0.002448
      f-3     :     0.001677

  4 C s       :     3.244476  s :     3.244476
      pz      :     0.993011  p :     2.838645
      px      :     0.949990
      py      :     0.895644
      dz2     :     0.003607  d :     0.079251
      dxz     :     0.009184
      dyz     :     0.021726
      dx2y2   :     0.022774
      dxy     :     0.021960
      f0      :     0.001721  f :     0.008886
      f+1     :     0.000672
      f-1     :     0.000668
      f+2     :     0.001049
      f-2     :     0.000497
      f+3     :     0.002512
      f-3     :     0.001767

  5 C s       :     3.246764  s :     3.246764
      pz      :     0.984488  p :     2.490180
      px      :     0.777954
      py      :     0.727738
      dz2     :     0.006456  d :     0.121710
      dxz     :     0.020700
      dyz     :     0.025915
      dx2y2   :     0.031890
      dxy     :     0.036751
      f0      :     0.001862  f :     0.011479
      f+1     :     0.000785
      f-1     :     0.000717
      f+2     :     0.001141
      f-2     :     0.001118
      f+3     :     0.003679
      f-3     :     0.002177

  6 C s       :     3.065401  s :     3.065401
      pz      :     0.955837  p :     2.603296
      px      :     0.967972
      py      :     0.679488
      dz2     :     0.002485  d :     0.169295
      dxz     :     0.025068
      dyz     :     0.041713
      dx2y2   :     0.039100
      dxy     :     0.060930
      f0      :     0.002457  f :     0.017019
      f+1     :     0.000752
      f-1     :     0.001177
      f+2     :     0.002656
      f-2     :     0.001186
      f+3     :     0.005866
      f-3     :     0.002925

  7 O s       :     3.793416  s :     3.793416
      pz      :     1.811789  p :     4.574961
      px      :     1.440008
      py      :     1.323163
      dz2     :     0.004137  d :     0.032715
      dxz     :     0.001732
      dyz     :     0.005744
      dx2y2   :     0.012391
      dxy     :     0.008711
      f0      :     0.000237  f :     0.001805
      f+1     :     0.000292
      f-1     :     0.000343
      f+2     :     0.000143
      f-2     :     0.000026
      f+3     :     0.000254
      f-3     :     0.000509

  8 C s       :     3.353343  s :     3.353343
      pz      :     1.029998  p :     3.049628
      px      :     0.961783
      py      :     1.057847
      dz2     :     0.002078  d :     0.048153
      dxz     :     0.012369
      dyz     :     0.014387
      dx2y2   :     0.013252
      dxy     :     0.006067
      f0      :     0.000356  f :     0.003799
      f+1     :    -0.000050
      f-1     :     0.001225
      f+2     :     0.000073
      f-2     :     0.000317
      f+3     :     0.000922
      f-3     :     0.000957

  9 H s       :     0.873352  s :     0.873352
      pz      :     0.005247  p :     0.023219
      px      :     0.010276
      py      :     0.007695

 10 H s       :     0.862178  s :     0.862178
      pz      :     0.010247  p :     0.023098
      px      :     0.005152
      py      :     0.007699

 11 H s       :     0.862098  s :     0.862098
      pz      :     0.009486  p :     0.023096
      px      :     0.005118
      py      :     0.008493

 12 H s       :     0.881473  s :     0.881473
      pz      :     0.005707  p :     0.023510
      px      :     0.011166
      py      :     0.006637

 13 H s       :     0.875222  s :     0.875222
      pz      :     0.005980  p :     0.023722
      px      :     0.004412
      py      :     0.013331

 14 H s       :     0.881978  s :     0.881978
      pz      :     0.005761  p :     0.023567
      px      :     0.011185
      py      :     0.006621

 15 H s       :     0.632000  s :     0.632000
      pz      :     0.017253  p :     0.048940
      px      :     0.019135
      py      :     0.012551

 16 H s       :     0.857065  s :     0.857065
      pz      :     0.005417  p :     0.023852
      px      :     0.010514
      py      :     0.007920

 17 H s       :     0.846961  s :     0.846961
      pz      :     0.009415  p :     0.022672
      px      :     0.005299
      py      :     0.007959

 18 H s       :     0.847931  s :     0.847931
      pz      :     0.010132  p :     0.022682
      px      :     0.005254
      py      :     0.007297



                     *******************************
                     * LOEWDIN POPULATION ANALYSIS *
                     *******************************

----------------------
LOEWDIN ATOMIC CHARGES
----------------------
   0 C :   -0.250417
   1 C :   -0.157246
   2 C :   -0.123162
   3 C :   -0.159732
   4 C :   -0.128825
   5 C :   -0.173019
   6 C :   -0.212271
   7 O :    0.089701
   8 C :   -0.269163
   9 H :    0.124361
  10 H :    0.131172
  11 H :    0.131175
  12 H :    0.144042
  13 H :    0.141123
  14 H :    0.143228
  15 H :    0.183756
  16 H :    0.132505
  17 H :    0.126492
  18 H :    0.126280

-------------------------------
LOEWDIN REDUCED ORBITAL CHARGES
-------------------------------
  0 C s       :     2.823017  s :     2.823017
      pz      :     1.070302  p :     3.148718
      px      :     1.025350
      py      :     1.053067
      dz2     :     0.033030  d :     0.253569
      dxz     :     0.032611
      dyz     :     0.067202
      dx2y2   :     0.052046
      dxy     :     0.068680
      f0      :     0.002063  f :     0.025112
      f+1     :     0.002856
      f-1     :     0.003658
      f+2     :     0.003972
      f-2     :     0.002188
      f+3     :     0.005686
      f-3     :     0.004688

  1 C s       :     2.714295  s :     2.714295
      pz      :     0.859142  p :     2.868045
      px      :     0.984450
      py      :     1.024453
      dz2     :     0.033960  d :     0.516995
      dxz     :     0.072429
      dyz     :     0.079613
      dx2y2   :     0.158366
      dxy     :     0.172627
      f0      :     0.004289  f :     0.057911
      f+1     :     0.004271
      f-1     :     0.004377
      f+2     :     0.006949
      f-2     :     0.007212
      f+3     :     0.021073
      f-3     :     0.009740

  2 C s       :     2.762290  s :     2.762290
      pz      :     0.896122  p :     2.922653
      px      :     1.003851
      py      :     1.022680
      dz2     :     0.026257  d :     0.394625
      dxz     :     0.030608
      dyz     :     0.067541
      dx2y2   :     0.119657
      dxy     :     0.150562
      f0      :     0.003156  f :     0.043593
      f+1     :     0.003502
      f-1     :     0.004111
      f+2     :     0.006542
      f-2     :     0.003026
      f+3     :     0.015027
      f-3     :     0.008229

  3 C s       :     2.766889  s :     2.766889
      pz      :     0.912302  p :     2.957654
      px      :     1.062577
      py      :     0.982775
      dz2     :     0.025409  d :     0.391215
      dxz     :     0.083036
      dyz     :     0.013345
      dx2y2   :     0.165813
      dxy     :     0.103611
      f0      :     0.003283  f :     0.043973
      f+1     :     0.004498
      f-1     :     0.003281
      f+2     :     0.001308
      f-2     :     0.008056
      f+3     :     0.015334
      f-3     :     0.008213

  4 C s       :     2.762106  s :     2.762106
      pz      :     0.901159  p :     2.926120
      px      :     1.004365
      py      :     1.020597
      dz2     :     0.026570  d :     0.396858
      dxz     :     0.029625
      dyz     :     0.070889
      dx2y2   :     0.122318
      dxy     :     0.147457
      f0      :     0.003156  f :     0.043740
      f+1     :     0.003538
      f-1     :     0.004114
      f+2     :     0.006587
      f-2     :     0.003175
      f+3     :     0.014944
      f-3     :     0.008225

  5 C s       :     2.714745  s :     2.714745
      pz      :     0.880095  p :     2.882486
      px      :     0.980433
      py      :     1.021958
      dz2     :     0.034464  d :     0.518030
      dxz     :     0.070697
      dyz     :     0.079896
      dx2y2   :     0.158156
      dxy     :     0.174817
      f0      :     0.004231  f :     0.057758
      f+1     :     0.004332
      f-1     :     0.004410
      f+2     :     0.007175
      f-2     :     0.006941
      f+3     :     0.021104
      f-3     :     0.009566

  6 C s       :     2.712217  s :     2.712217
      pz      :     0.874509  p :     2.736201
      px      :     1.047135
      py      :     0.814557
      dz2     :     0.047195  d :     0.669343
      dxz     :     0.075155
      dyz     :     0.134243
      dx2y2   :     0.219503
      dxy     :     0.193247
      f0      :     0.006442  f :     0.094510
      f+1     :     0.004613
      f-1     :     0.009166
      f+2     :     0.017171
      f-2     :     0.007329
      f+3     :     0.033004
      f-3     :     0.016785

  7 O s       :     3.329361  s :     3.329361
      pz      :     1.700729  p :     4.503796
      px      :     1.437004
      py      :     1.366063
      dz2     :     0.008297  d :     0.072314
      dxz     :     0.000811
      dyz     :     0.014950
      dx2y2   :     0.024469
      dxy     :     0.023787
      f0      :     0.000413  f :     0.004829
      f+1     :     0.000403
      f-1     :     0.000679
      f+2     :     0.000634
      f-2     :     0.000024
      f+3     :     0.001351
      f-3     :     0.001325

  8 C s       :     2.825368  s :     2.825368
      pz      :     1.060459  p :     3.158938
      px      :     1.036041
      py      :     1.062439
      dz2     :     0.032329  d :     0.259836
      dxz     :     0.035526
      dyz     :     0.071547
      dx2y2   :     0.054237
      dxy     :     0.066197
      f0      :     0.002174  f :     0.025020
      f+1     :     0.002878
      f-1     :     0.003575
      f+2     :     0.003937
      f-2     :     0.002162
      f+3     :     0.005763
      f-3     :     0.004532

  9 H s       :     0.813703  s :     0.813703
      pz      :     0.014197  p :     0.061936
      px      :     0.025609
      py      :     0.022129

 10 H s       :     0.806277  s :     0.806277
      pz      :     0.029377  p :     0.062551
      px      :     0.012913
      py      :     0.020261

 11 H s       :     0.806278  s :     0.806278
      pz      :     0.027115  p :     0.062547
      px      :     0.012869
      py      :     0.022563

 12 H s       :     0.795883  s :     0.795883
      pz      :     0.014713  p :     0.060075
      px      :     0.028524
      py      :     0.016838

 13 H s       :     0.798213  s :     0.798213
      pz      :     0.015233  p :     0.060664
      px      :     0.011319
      py      :     0.034112

 14 H s       :     0.796579  s :     0.796579
      pz      :     0.014897  p :     0.060193
      px      :     0.028599
      py      :     0.016697

 15 H s       :     0.659070  s :     0.659070
      pz      :     0.044110  p :     0.157174
      px      :     0.081440
      py      :     0.031624

 16 H s       :     0.804927  s :     0.804927
      pz      :     0.013928  p :     0.062567
      px      :     0.026055
      py      :     0.022584

 17 H s       :     0.810809  s :     0.810809
      pz      :     0.027444  p :     0.062700
      px      :     0.013542
      py      :     0.021714

 18 H s       :     0.811026  s :     0.811026
      pz      :     0.029475  p :     0.062694
      px      :     0.013437
      py      :     0.019782



                      *****************************
                      * MAYER POPULATION ANALYSIS *
                      *****************************

  NA   - Mulliken gross atomic population
  ZA   - Total nuclear charge
  QA   - Mulliken gross atomic charge
  VA   - Mayer's total valence
  BVA  - Mayer's bonded valence
  FA   - Mayer's free valence

  ATOM       NA         ZA         QA         VA         BVA        FA
  0 C      6.3073     6.0000    -0.3073     3.8861     3.8861    -0.0000
  1 C      5.9715     6.0000     0.0285     3.6878     3.6878    -0.0000
  2 C      6.1621     6.0000    -0.1621     3.9079     3.9079    -0.0000
  3 C      6.1262     6.0000    -0.1262     3.9119     3.9119     0.0000
  4 C      6.1713     6.0000    -0.1713     3.8972     3.8972     0.0000
  5 C      5.8701     6.0000     0.1299     3.4403     3.4403    -0.0000
  6 C      5.8550     6.0000     0.1450     3.9600     3.9600    -0.0000
  7 O      8.4029     8.0000    -0.4029     2.0807     2.0807    -0.0000
  8 C      6.4549     6.0000    -0.4549     3.8736     3.8736    -0.0000
  9 H      0.8966     1.0000     0.1034     0.9799     0.9799    -0.0000
 10 H      0.8853     1.0000     0.1147     0.9776     0.9776     0.0000
 11 H      0.8852     1.0000     0.1148     0.9776     0.9776     0.0000
 12 H      0.9050     1.0000     0.0950     0.9762     0.9762    -0.0000
 13 H      0.8989     1.0000     0.1011     0.9775     0.9775     0.0000
 14 H      0.9055     1.0000     0.0945     0.9797     0.9797     0.0000
 15 H      0.6809     1.0000     0.3191     0.9206     0.9206    -0.0000
 16 H      0.8809     1.0000     0.1191     0.9919     0.9919    -0.0000
 17 H      0.8696     1.0000     0.1304     0.9624     0.9624    -0.0000
 18 H      0.8706     1.0000     0.1294     0.9627     0.9627    -0.0000

  Mayer bond orders larger than 0.100000
B(  0-C ,  1-C ) :   0.9511 B(  0-C ,  9-H ) :   0.9835 B(  0-C , 10-H ) :   0.9583 
B(  0-C , 11-H ) :   0.9584 B(  1-C ,  2-C ) :   1.3781 B(  1-C ,  6-C ) :   1.3397 
B(  2-C ,  3-C ) :   1.3976 B(  2-C , 12-H ) :   0.9780 B(  3-C ,  4-C ) :   1.4154 
B(  3-C , 13-H ) :   0.9805 B(  4-C ,  5-C ) :   1.3320 B(  4-C , 14-H ) :   0.9712 
B(  5-C ,  6-C ) :   1.3007 B(  5-C ,  8-C ) :   0.8633 B(  6-C ,  7-O ) :   1.1763 
B(  7-O , 15-H ) :   0.8764 B(  8-C , 16-H ) :   0.9748 B(  8-C , 17-H ) :   0.9733 
B(  8-C , 18-H ) :   0.9731 

-------
TIMINGS
-------

Total SCF time: 0 days 0 hours 0 min 40 sec 

Total time                  ....      40.891 sec
Sum of individual times     ....      40.363 sec  ( 98.7%)

SCF preparation             ....       0.200 sec  (  0.5%)
Fock matrix formation       ....      38.859 sec  ( 95.0%)
  Startup                   ....       0.068 sec  (  0.2% of F)
  Split-RI-J                ....       5.305 sec  ( 13.7% of F)
  XC integration            ....      32.867 sec  ( 84.6% of F)
    XC Preparation          ....       0.000 sec  (  0.0% of XC)
    Basis function eval.    ....       4.741 sec  ( 14.4% of XC)
    Density eval.           ....      10.202 sec  ( 31.0% of XC)
    XC-Functional eval.     ....       2.389 sec  (  7.3% of XC)
    XC-Potential eval.      ....      14.452 sec  ( 44.0% of XC)
Diagonalization             ....       0.000 sec  (  0.0%)
Density matrix formation    ....       0.341 sec  (  0.8%)
Total Energy calculation    ....       0.070 sec  (  0.2%)
Population analysis         ....       0.039 sec  (  0.1%)
Orbital Transformation      ....       0.092 sec  (  0.2%)
Orbital Orthonormalization  ....       0.000 sec  (  0.0%)
DIIS solution               ....       0.499 sec  (  1.2%)
SOSCF solution              ....       0.263 sec  (  0.6%)
Finished LeanSCF after  41.0 sec

Maximum memory used throughout the entire LEANSCF-calculation: 40.6 MB

------------------------------------------------------------------------------
                         ORCA PROPERTY INTEGRAL CALCULATIONS
------------------------------------------------------------------------------

GBWName                                   ... vacuum_censo.gbw
Number of atoms                           ...     19
Number of basis functions                 ...    339
Max core memory                           ...   1024 MB

Dipole integrals                          ... YES
Quadrupole integrals                      ...  NO
Linear momentum integrals                 ...  NO
Angular momentum integrals                ...  NO
Higher moments length integrals           ...  NO
Higher moments velocity integrals         ...  NO
Kinetic energy integrals                  ...  NO
GIAO right hand sides                     ...  NO
GIAO dipole derivative integrals          ...  NO
SOC integrals                             ...  NO
EPR diamagnetic integrals (GIAO)          ...  NO
EPR gauge integrals                       ...  NO
Field gradient integrals                  ...  NO (   0 nuclei)
Spin-dipole/Fermi contact integrals       ...  NO (   0 nuclei)
Contact density integrals                 ...  NO (   0 nuclei)
Nucleus-orbit integrals                   ...  NO (   0 nuclei)
Geometric perturbations                   ... YES (  19 nuclei)

Choice of electric origin   ... Center of mass
Position of electric origin ... ( -0.0056, -0.0207, -0.0033) 
Choice of magnetic origin   ... GIAO
Position of magnetic origin ... (  0.0000,  0.0000,  0.0000) 

Calculating integrals                     ... Electric Dipole (Length)     done (  0.1 sec)
Calculating integrals                     ... Geometrical perturbation right hand sides

-----------------------
GEOMETRIC PERTURBATIONS (19 nuclei)
-----------------------

MaxCore                            ...   1024 MB
Number of batches                  ...      1

BATCH   0: Atoms    0 -   18 ( 57 perturbations)
   => H(core) and overlap derivative integrals     ... done (     0.7 sec)
   => Making and storing internal U-coefficients   ... done (     0.5 sec)
   => RI-J derivative integrals                    ... done (     7.7 sec)
   => RI-J response operators                      ... done (     2.1 sec)
   => XC derivative integrals                      ... done (   431.2 sec)
   => XC response operators                        ... done (   130.1 sec)
   => Completing and storing right hand sides      ... done (     0.2 sec)
   => Total time for right hand sides = 576.2 sec

  geometrical perturbations done (576.2 sec)

Property integrals calculated in 576.3 sec

Maximum memory used throughout the entire PROPINT-calculation: 228.1 MB


-------------------------------------------------------------------------------
                          DFT DISPERSION CORRECTION                            
                                                                               
                                DFTD4 V3.4.0                                   
-------------------------------------------------------------------------------
The R2SCAN3C composite method is recognized
Using three-body term ABC
Active option DFTDOPT                   ...         5   

-------------------------   ----------------
Dispersion correction           -0.006226825
-------------------------   ----------------

------------------   -----------------
gCP correction             0.007336349
------------------   -----------------

-------------------------   --------------------
FINAL SINGLE POINT ENERGY      -386.036110829678
-------------------------   --------------------

------------------------------------------------------------------------------
                            ORCA SCF RESPONSE CALCULATION
------------------------------------------------------------------------------

GBWName                                 ... vacuum_censo.gbw
Number of atoms                         ...     19
Number of basis functions               ...    339
Max core memory                         ...   1024 MB

Electric field perturbation             ...  NO
Quadrupolar field perturbation          ...  NO
Magnetic field perturbation (no GIAO)   ...  NO
Magnetic field perturbation (with GIAO) ...  NO
Linear momentum (velocity) perturbation ...  NO
Spin-orbit coupling perturbation        ...  NO
Choice of electric origin               ... Center of mass
Position of electric origin             ...    -0.005592    -0.020743    -0.003321
Choice of magnetic origin               ... GIAO
Position of magnetic origin             ...     0.000000     0.000000     0.000000
Nuclear geometric perturbations         ... YES (  57 perturbations)
Nucleus-orbit perturbations             ...  NO (   0 perturbations)
Spin-dipole/Fermi contact perturbations ...  NO (   0 perturbations)

Total number of real perturbations      ...     57
Total number of imaginary perturbations ...      0
Total number of triplet perturbations   ...      0
Total number of SOC perturbations       ...      0


                                **********************
                                * REAL PERTURBATIONS *
                                **********************



-------------------
SHARK CP-SCF DRIVER
-------------------

Dimension of the orbital basis          ...    339
Dimension of the CPSCF-problem          ...  10098
Number of operators                     ...      1
Max. number of iterations               ...    128
Convergence Tolerance                   ... 1.0e-03
Number of perturbations                 ...     57
Perturbation type                       ... REAL

----------------------------
POPLE LINEAR EQUATION SOLVER
----------------------------

  ITERATION   0:   ||err||_max =   5.0139e-01 (  39.2 sec   0/ 57 done)
  ITERATION   1:   ||err||_max =   5.4573e-02 (  42.9 sec   0/ 57 done)
  ITERATION   2:   ||err||_max =   1.7582e-02 (  43.5 sec   2/ 57 done)
  ITERATION   3:   ||err||_max =   3.7575e-03 (  44.2 sec  18/ 57 done)
  ITERATION   4:   ||err||_max =   1.4892e-03 (  31.7 sec  41/ 57 done)
  ITERATION   5:   ||err||_max =   6.1158e-04 (  13.6 sec  57/ 57 done)

CP-SCF equations solved in 217.3 sec
Response densities calculated in   0.2 sec

Maximum memory used throughout the entire SCFRESP-calculation: 149.4 MB

------------------------------------------------------------------------------
                              ORCA PROPERTY CALCULATIONS
------------------------------------------------------------------------------

GBWName                                 ... vacuum_censo.gbw
Number of atoms                         ...     19
Number of basis functions               ...    339
Max core memory                         ...   1024 MB

Electric properties:
Dipole moment                           ... YES
Quadrupole moment                       ...  NO
Static polarizability (Dipole/Dipole)   ...  NO
Static polarizability (Dipole/Quad.)    ...  NO
Static polarizability (Quad./Quad.)     ...  NO
Static polarizability (Velocity)        ...  NO

Atomic electric properties:
Dipole moment                           ...  NO
Quadrupole moment                       ...  NO
Static polarizability                   ...  NO

Choice of electric origin               ... Center of mass
Position of electric origin             ...    -0.005592    -0.020743    -0.003321

General magnetic properties:
Magnetizability                         ...  NO

EPR properties:
g-Tensor (aka g-matrix)                 ...  NO
Zero-Field splitting spin-orbit         ...  NO
Zero-field splitting spin-spin          ...  NO
Hyperfine couplings                     ...  NO (   0 nuclei)
Quadrupole couplings                    ...  NO (   0 nuclei)
Contact density                         ...  NO (   0 nuclei)

NMR properties:
Chemical shifts                         ...  NO (   0 nuclei)
Spin-rotation constants                 ...  NO (   0 nuclei)
Spin-spin couplings                     ...  NO (   0 nuclei,    0 pairs)

Choice of magnetic origin               ... GIAO
Position of magnetic origin             ...     0.000000     0.000000     0.000000

Properties with geometric perturbations:
SCF Hessian                             ... YES
IR spectrum                             ... YES
VCD spectrum                            ...  NO
X-ray spectroscopy properties:
SCF XES/XAS/RIXS spectra                ...  NO


-------------
DIPOLE MOMENT
-------------

Method             : SCF
Type of density    : Electron Density
Multiplicity       :   1
Irrep              :   0
Energy             :  -386.0372203536521738 Eh
Relativity type    : 
Basis              : AO
                                X                 Y                 Z
Electronic contribution:     -0.313500029      -0.809206816      -0.050725867
Nuclear contribution   :      0.856627476       1.025922326       0.072710591
                        -----------------------------------------
Total Dipole Moment    :      0.543127447       0.216715510       0.021984724
                        -----------------------------------------
Magnitude (a.u.)       :      0.585180625
Magnitude (Debye)      :      1.487410942



--------------------
Rotational spectrum 
--------------------
 
Rotational constants in cm-1:             0.076211             0.058997             0.033672 
Rotational constants in MHz :          2284.740065          1768.687270          1009.458122 

Dipole components along the rotational axes: 
x,y,z [a.u.] :     0.542313     0.219843     0.001596 
x,y,z [Debye]:     1.378449     0.558796     0.004056 

 

Dipole moment calculation done in   0.0 sec 

-----------
SCF HESSIAN
-----------

Occupied/Occupied contributions to the Hessian:
   => Occupied/Occupied contributions              ... done (  0.0 sec)
Perturbed density contributions to the Hessian:
   => Perturbed density contributions              ... done (  0.1 sec)
Explicit contributions to the Hessian:
   => Nuclear repulsion Hessian                    ... done (  0.0 sec)
   => HCore and overlap Hessian                    ... done ( 25.5 sec)
   => RI-J Hessian                                 ... done ( 18.0 sec)
   => XC-Hessian                                   ... done (128.4 sec)
   => Van der Waals-Hessian                        ... done (  3.5 sec)
   => GCP-Hessian                                  ... done (  0.1 sec)
   => Explicit contributions done
Dipole derivatives                                 ... done (  0.2 sec)
Mass weighting the Hessian           ... done
Calculating normal modes             ... done
Scaling frequencies                  ... done

-----------------------
VIBRATIONAL FREQUENCIES
-----------------------

Scaling factor for frequencies =  1.000000000  (already applied!)

     0:       0.00 cm**-1
     1:       0.00 cm**-1
     2:       0.00 cm**-1
     3:       0.00 cm**-1
     4:       0.00 cm**-1
     5:       0.00 cm**-1
     6:     136.37 cm**-1
     7:     172.51 cm**-1
     8:     189.00 cm**-1
     9:     229.78 cm**-1
    10:     283.28 cm**-1
    11:     286.75 cm**-1
    12:     325.57 cm**-1
    13:     332.89 cm**-1
    14:     488.93 cm**-1
    15:     502.52 cm**-1
    16:     505.22 cm**-1
    17:     556.16 cm**-1
    18:     561.42 cm**-1
    19:     680.17 cm**-1
    20:     725.08 cm**-1
    21:     760.21 cm**-1
    22:     843.92 cm**-1
    23:     884.38 cm**-1
    24:     916.80 cm**-1
    25:     929.02 cm**-1
    26:    1003.33 cm**-1
    27:    1040.26 cm**-1
    28:    1046.85 cm**-1
    29:    1055.69 cm**-1
    30:    1112.49 cm**-1
    31:    1183.66 cm**-1
    32:    1219.88 cm**-1
    33:    1244.71 cm**-1
    34:    1287.36 cm**-1
    35:    1310.64 cm**-1
    36:    1371.80 cm**-1
    37:    1401.35 cm**-1
    38:    1405.21 cm**-1
    39:    1454.74 cm**-1
    40:    1471.38 cm**-1
    41:    1480.47 cm**-1
    42:    1482.54 cm**-1
    43:    1509.25 cm**-1
    44:    1518.06 cm**-1
    45:    1628.98 cm**-1
    46:    1648.44 cm**-1
    47:    2979.94 cm**-1
    48:    3006.08 cm**-1
    49:    3033.00 cm**-1
    50:    3065.66 cm**-1
    51:    3101.85 cm**-1
    52:    3103.34 cm**-1
    53:    3151.11 cm**-1
    54:    3156.08 cm**-1
    55:    3181.22 cm**-1
    56:    3810.81 cm**-1


------------
NORMAL MODES
------------

These modes are the Cartesian displacements weighted by the diagonal matrix
M(i,i)=1/sqrt(m[i]) where m[i] is the mass of the displaced atom
Thus, these vectors are normalized but *not* orthogonal

                  0          1          2          3          4          5    
      0       0.000000   0.000000   0.000000   0.000000   0.000000   0.000000
      1       0.000000   0.000000   0.000000   0.000000   0.000000   0.000000
      2       0.000000   0.000000   0.000000   0.000000   0.000000   0.000000
      3       0.000000   0.000000   0.000000   0.000000   0.000000   0.000000
      4       0.000000   0.000000   0.000000   0.000000   0.000000   0.000000
      5       0.000000   0.000000   0.000000   0.000000   0.000000   0.000000
      6       0.000000   0.000000   0.000000   0.000000   0.000000   0.000000
      7       0.000000   0.000000   0.000000   0.000000   0.000000   0.000000
      8       0.000000   0.000000   0.000000   0.000000   0.000000   0.000000
      9       0.000000   0.000000   0.000000   0.000000   0.000000   0.000000
     10       0.000000   0.000000   0.000000   0.000000   0.000000   0.000000
     11       0.000000   0.000000   0.000000   0.000000   0.000000   0.000000
     12       0.000000   0.000000   0.000000   0.000000   0.000000   0.000000
     13       0.000000   0.000000   0.000000   0.000000   0.000000   0.000000
     14       0.000000   0.000000   0.000000   0.000000   0.000000   0.000000
     15       0.000000   0.000000   0.000000   0.000000   0.000000   0.000000
     16       0.000000   0.000000   0.000000   0.000000   0.000000   0.000000
     17       0.000000   0.000000   0.000000   0.000000   0.000000   0.000000
     18       0.000000   0.000000   0.000000   0.000000   0.000000   0.000000
     19       0.000000   0.000000   0.000000   0.000000   0.000000   0.000000
     20       0.000000   0.000000   0.000000   0.000000   0.000000   0.000000
     21       0.000000   0.000000   0.000000   0.000000   0.000000   0.000000
     22       0.000000   0.000000   0.000000   0.000000   0.000000   0.000000
     23       0.000000   0.000000   0.000000   0.000000   0.000000   0.000000
     24       0.000000   0.000000   0.000000   0.000000   0.000000   0.000000
     25       0.000000   0.000000   0.000000   0.000000   0.000000   0.000000
     26       0.000000   0.000000   0.000000   0.000000   0.000000   0.000000
     27       0.000000   0.000000   0.000000   0.000000   0.000000   0.000000
     28       0.000000   0.000000   0.000000   0.000000   0.000000   0.000000
     29       0.000000   0.000000   0.000000   0.000000   0.000000   0.000000
     30       0.000000   0.000000   0.000000   0.000000   0.000000   0.000000
     31       0.000000   0.000000   0.000000   0.000000   0.000000   0.000000
     32       0.000000   0.000000   0.000000   0.000000   0.000000   0.000000
     33       0.000000   0.000000   0.000000   0.000000   0.000000   0.000000
     34       0.000000   0.000000   0.000000   0.000000   0.000000   0.000000
     35       0.000000   0.000000   0.000000   0.000000   0.000000   0.000000
     36       0.000000   0.000000   0.000000   0.000000   0.000000   0.000000
     37       0.000000   0.000000   0.000000   0.000000   0.000000   0.000000
     38       0.000000   0.000000   0.000000   0.000000   0.000000   0.000000
     39       0.000000   0.000000   0.000000   0.000000   0.000000   0.000000
     40       0.000000   0.000000   0.000000   0.000000   0.000000   0.000000
     41       0.000000   0.000000   0.000000   0.000000   0.000000   0.000000
     42       0.000000   0.000000   0.000000   0.000000   0.000000   0.000000
     43       0.000000   0.000000   0.000000   0.000000   0.000000   0.000000
     44       0.000000   0.000000   0.000000   0.000000   0.000000   0.000000
     45       0.000000   0.000000   0.000000   0.000000   0.000000   0.000000
     46       0.000000   0.000000   0.000000   0.000000   0.000000   0.000000
     47       0.000000   0.000000   0.000000   0.000000   0.000000   0.000000
     48       0.000000   0.000000   0.000000   0.000000   0.000000   0.000000
     49       0.000000   0.000000   0.000000   0.000000   0.000000   0.000000
     50       0.000000   0.000000   0.000000   0.000000   0.000000   0.000000
     51       0.000000   0.000000   0.000000   0.000000   0.000000   0.000000
     52       0.000000   0.000000   0.000000   0.000000   0.000000   0.000000
     53       0.000000   0.000000   0.000000   0.000000   0.000000   0.000000
     54       0.000000   0.000000   0.000000   0.000000   0.000000   0.000000
     55       0.000000   0.000000   0.000000   0.000000   0.000000   0.000000
     56       0.000000   0.000000   0.000000   0.000000   0.000000   0.000000
                  6          7          8          9         10         11    
      0      -0.003553   0.000795  -0.000002  -0.001657  -0.006492   0.158615
      1      -0.011640   0.001924   0.000110  -0.006217  -0.010568   0.197555
      2       0.215746  -0.030184  -0.005133   0.121223   0.058539   0.014596
      3      -0.000094  -0.000313  -0.000156   0.001377   0.004095   0.000036
      4      -0.000245  -0.001136  -0.000538   0.004414   0.014834  -0.055243
      5       0.004658   0.018917   0.009878  -0.083581  -0.241845  -0.009329
      6       0.000368  -0.000317   0.000527   0.003542   0.001250  -0.021399
      7       0.001270  -0.001046   0.001656   0.011705   0.003399  -0.056827
      8      -0.023067   0.017621  -0.029879  -0.217565  -0.027442  -0.003872
      9       0.001522   0.000291   0.000513   0.000093  -0.003312   0.003672
     10       0.004984   0.000843   0.001443   0.000341  -0.009161  -0.039386
     11      -0.092481  -0.017021  -0.024579  -0.006276   0.198379   0.003140
     12       0.000504   0.000538  -0.000274  -0.003513  -0.001043   0.022447
     13       0.001918   0.001587  -0.000538  -0.011821   0.002059  -0.048227
     14      -0.034563  -0.030676   0.014619   0.216616   0.003428  -0.002483
     15      -0.000007   0.000034  -0.000476  -0.001532   0.003836   0.003992
     16       0.000305   0.000056  -0.001362  -0.005172   0.014865  -0.045004
     17      -0.004103  -0.001932   0.031106   0.093624  -0.236653  -0.008606
     18       0.001592  -0.000265  -0.000545   0.000046   0.003656  -0.000423
     19       0.005351  -0.000897  -0.001465  -0.000209   0.016030  -0.094179
     20      -0.098476   0.014168   0.031560  -0.001368  -0.228256  -0.011085
     21       0.003549  -0.000423  -0.001300   0.000983  -0.004059  -0.032565
     22       0.011733  -0.000999  -0.001747   0.001983  -0.006397  -0.104607
     23      -0.220524   0.016061   0.036239  -0.042177   0.206114  -0.000392
     24      -0.003381  -0.000401   0.001452   0.001086   0.005718  -0.131353
     25      -0.011778  -0.000682   0.001766   0.005933  -0.009999   0.167433
     26       0.218431   0.016278  -0.047155  -0.102009   0.044040   0.008025
     27      -0.006685  -0.008655  -0.001139  -0.005988  -0.004212  -0.012998
     28      -0.020777  -0.027325  -0.004056  -0.017843  -0.029336   0.414331
     29       0.384888   0.502662   0.067359   0.342425   0.263621   0.026853
     30       0.163901   0.224848   0.026543   0.202962   0.223999   0.338433
     31      -0.006237   0.457067   0.067370   0.023703  -0.056502   0.220023
     32       0.228012  -0.314008  -0.047883   0.119872   0.111292   0.016437
     33      -0.170810  -0.211584  -0.025079  -0.204793  -0.250259   0.328601
     34      -0.017921  -0.417984  -0.061892  -0.035134   0.028183   0.224343
     35       0.221578  -0.370229  -0.055961   0.109597   0.107537   0.026074
     36      -0.000483  -0.000594   0.001094   0.006164  -0.001526  -0.014848
     37      -0.001508  -0.002064   0.003317   0.019755  -0.004234  -0.069206
     38       0.028585   0.035996  -0.062043  -0.369986   0.123834  -0.000308
     39       0.002184   0.000488   0.000967   0.000056  -0.008376   0.008643
     40       0.007053   0.001377   0.002552   0.000543  -0.026068  -0.040257
     41      -0.131018  -0.026944  -0.045301  -0.010175   0.513155   0.011449
     42      -0.000223   0.000941  -0.000376  -0.006127  -0.003653   0.018295
     43      -0.000476   0.002855  -0.000918  -0.020216  -0.006706  -0.056446
     44       0.010670  -0.054518   0.022244   0.373667   0.176605   0.001338
     45       0.005478  -0.001353  -0.000239  -0.007307  -0.001749  -0.047257
     46       0.017527  -0.003198   0.001798  -0.020014  -0.002803  -0.072478
     47      -0.323525   0.060100  -0.023774   0.373462   0.116915  -0.003672
     48      -0.008879   0.001045  -0.009245   0.006339  -0.006363   0.015729
     49      -0.025339   0.002997  -0.025811   0.018375  -0.031423   0.352606
     50       0.476327  -0.055608   0.498581  -0.328427   0.284279   0.030710
     51       0.216690  -0.024289   0.202220  -0.208970   0.251635  -0.262030
     52      -0.077344   0.061492  -0.429909   0.045936  -0.006699   0.185985
     53       0.193983   0.062983  -0.365876  -0.095383   0.081141   0.004318
     54      -0.221168   0.021538  -0.186508   0.208704  -0.226918  -0.279737
     55       0.055985  -0.067081   0.462505  -0.034365  -0.018573   0.190157
     56       0.192608   0.057494  -0.329189  -0.091848   0.071641   0.007587
                 12         13         14         15         16         17    
      0       0.120663   0.002487   0.092731   0.248081  -0.004650  -0.000945
      1       0.107747   0.002094  -0.139073  -0.100682   0.001121  -0.000206
      2       0.007235   0.003937  -0.006004  -0.001398   0.000814   0.015124
      3       0.021016   0.000378   0.137037   0.182571   0.001634   0.000460
      4      -0.046729  -0.001112   0.037961  -0.016941   0.015944   0.002506
      5      -0.000969   0.001319   0.006158  -0.008799  -0.288157  -0.028530
      6       0.002630   0.000862  -0.103661   0.116690  -0.005551   0.004605
      7      -0.040042   0.001467   0.080213  -0.042609  -0.005717   0.012261
      8       0.000826  -0.043760   0.001574   0.004795   0.128399  -0.209323
      9       0.032252   0.000884  -0.185388   0.006400  -0.001281  -0.004209
     10       0.007106   0.000497  -0.002755  -0.192754   0.004905  -0.015987
     11       0.000496  -0.007227  -0.002904  -0.010816  -0.011292   0.294502
     12      -0.003080  -0.000858  -0.103636  -0.102172   0.003249   0.004828
     13       0.055073  -0.001256  -0.083865  -0.047561   0.006862   0.011272
     14       0.000151   0.045826  -0.005592  -0.008417  -0.111365  -0.226566
     15       0.023954   0.000258   0.137023  -0.181298   0.000013  -0.000391
     16       0.061878   0.000650  -0.037441  -0.027901  -0.015385  -0.001606
     17       0.003775   0.013106  -0.001664   0.007177   0.298961   0.013512
     18      -0.014674  -0.000407   0.143086  -0.002023   0.001402  -0.004341
     19       0.008429   0.000128   0.000929   0.198837  -0.002844  -0.014225
     20       0.000939   0.004155   0.002958   0.009375  -0.028089   0.269580
     21      -0.313519  -0.008078  -0.115312  -0.008055  -0.000905   0.000761
[...]
      0      -0.001334   0.000395   0.000023
      1      -0.001429   0.000324  -0.000055
      2      -0.000100   0.000024  -0.000001
      3      -0.001177   0.000249  -0.000666
      4       0.002199  -0.001642  -0.000592
      5       0.000102  -0.000083  -0.000038
      6      -0.058771   0.026213   0.000162
      7      -0.035199   0.012517   0.000168
      8      -0.002866   0.001107   0.000012
      9       0.003156  -0.000507   0.000014
     10       0.006743   0.079354  -0.000199
     11       0.000416   0.004261  -0.000011
     12      -0.044723  -0.025105   0.000139
     13       0.025952   0.011384   0.000170
     14       0.000640   0.000189   0.000012
     15      -0.000788  -0.000219  -0.000055
     16      -0.001877  -0.001619  -0.000785
     17      -0.000112  -0.000090  -0.000044
     18       0.001185  -0.000022   0.002241
     19       0.000124  -0.000300   0.000821
     20       0.000024  -0.000016   0.000085
     21      -0.000105   0.000013   0.056398
     22      -0.000008   0.000032   0.025279
     23      -0.000001   0.000003   0.002459
     24      -0.000987  -0.000315  -0.000555
     25       0.001026   0.000259  -0.000422
     26       0.000031   0.000008  -0.000057
     27       0.018489  -0.004930  -0.000083
     28       0.011369  -0.002983  -0.000201
     29       0.000928  -0.000254  -0.000015
     30       0.000675  -0.000710  -0.000279
     31       0.002095   0.000631   0.000599
     32       0.003699   0.000321   0.000818
     33       0.000797  -0.000705  -0.000260
     34       0.002523   0.000660   0.000692
     35      -0.003455  -0.000271  -0.000768
     36       0.685334  -0.271979  -0.000904
     37       0.399816  -0.154008  -0.000101
     38       0.032818  -0.012799  -0.000027
     39      -0.004217   0.006038   0.000037
     40      -0.081578  -0.897193   0.000497
     41      -0.004453  -0.048141   0.000024
     42       0.518148   0.258439   0.000055
     43      -0.293143  -0.141592  -0.001026
     44      -0.007036  -0.003270  -0.000060
     45      -0.000300  -0.000046  -0.915721
     46      -0.000977  -0.000130  -0.394944
     47      -0.000056  -0.000025  -0.039120
     48       0.013824   0.004032   0.000575
     49      -0.008594  -0.002399   0.000950
     50      -0.000151  -0.000057   0.000104
     51       0.000687   0.000728   0.003043
     52      -0.001125   0.000849   0.001723
     53       0.001844  -0.000434  -0.006144
     54       0.000758   0.000713   0.002856
     55      -0.000958   0.000799   0.001247
     56      -0.001915   0.000542   0.006661


-----------
IR SPECTRUM
-----------

 Mode   freq       eps      Int      T**2         TX        TY        TZ
       cm**-1   L/(mol*cm) km/mol    a.u.
----------------------------------------------------------------------------
  6:    136.37   0.000106    0.54  0.000243  (-0.000206 -0.001034  0.015540)
  7:    172.51   0.000000    0.00  0.000001  ( 0.000367 -0.000041  0.000835)
  8:    189.00   0.000319    1.61  0.000527  ( 0.000346  0.000744 -0.022937)
  9:    229.78   0.001032    5.21  0.001401  (-0.000586 -0.002004  0.037375)
 10:    283.28   0.000576    2.91  0.000634  (-0.000417 -0.002040  0.025101)
 11:    286.75   0.000252    1.27  0.000275  ( 0.004880  0.015757  0.001555)
 12:    325.57   0.000638    3.23  0.000612  ( 0.001965  0.023926  0.005962)
 13:    332.89   0.015559   78.63  0.014586  ( 0.002512  0.007878 -0.120487)
 14:    488.93   0.000651    3.29  0.000416  ( 0.005441  0.019618  0.001121)
 15:    502.52   0.000220    1.11  0.000137  ( 0.000456 -0.011654 -0.000846)
 16:    505.22   0.000096    0.48  0.000059  ( 0.000294  0.000975 -0.007629)
 17:    556.16   0.000007    0.04  0.000004  (-0.000033  0.000238 -0.002001)
 18:    561.42   0.000810    4.09  0.000450  ( 0.011292 -0.017949 -0.000781)
 19:    680.17   0.000406    2.05  0.000186  (-0.000118 -0.013622 -0.000751)
 20:    725.08   0.001047    5.29  0.000451  ( 0.000394  0.001142 -0.021198)
 21:    760.21   0.008763   44.28  0.003597  (-0.000976 -0.003413  0.059871)
 22:    843.92   0.002295   11.60  0.000849  ( 0.001552  0.029046  0.001585)
 23:    884.38   0.000000    0.00  0.000000  (-0.000108 -0.000117 -0.000012)
 24:    916.80   0.002364   11.94  0.000805  (-0.017174 -0.022529 -0.001431)
 25:    929.02   0.000199    1.01  0.000067  ( 0.000202  0.000368 -0.008169)
 26:   1003.33   0.000962    4.86  0.000299  ( 0.000315 -0.017269 -0.000919)
 27:   1040.26   0.003157   15.95  0.000947  (-0.014876  0.026912  0.001219)
 28:   1046.85   0.000301    1.52  0.000090  ( 0.000362  0.000931 -0.009416)
 29:   1055.69   0.000104    0.53  0.000031  (-0.000035  0.000346 -0.005542)
 30:   1112.49   0.005255   26.55  0.001474  ( 0.002608 -0.038254 -0.001957)
 31:   1183.66   0.000941    4.75  0.000248  (-0.004149  0.015175  0.000707)
 32:   1219.88   0.027178  137.35  0.006953  ( 0.018373 -0.081234 -0.003993)
 33:   1244.71   0.002197   11.10  0.000551  (-0.008858 -0.021694 -0.001295)
 34:   1287.36   0.007158   36.17  0.001735  (-0.005104  0.041291  0.002049)
 35:   1310.64   0.000853    4.31  0.000203  ( 0.013371 -0.004940 -0.000040)
 36:   1371.80   0.003400   17.18  0.000774  ( 0.000272  0.027773  0.001461)
 37:   1401.35   0.001111    5.62  0.000247  (-0.004969 -0.014901 -0.000880)
 38:   1405.21   0.000209    1.05  0.000046  ( 0.005805 -0.003549 -0.000159)
 39:   1454.74   0.005112   25.83  0.001097  (-0.003847 -0.032844 -0.001724)
 40:   1471.38   0.001681    8.50  0.000357  ( 0.000151  0.001207 -0.018844)
 41:   1480.47   0.000801    4.05  0.000169  ( 0.010983  0.006913 -0.000607)
 42:   1482.54   0.001418    7.16  0.000298  ( 0.000389 -0.000016  0.017271)
 43:   1509.25   0.010333   52.22  0.002137  ( 0.007552  0.045533  0.002509)
 44:   1518.06   0.003220   16.27  0.000662  (-0.016690  0.019568  0.000664)
 45:   1628.98   0.002989   15.10  0.000573  ( 0.003639  0.023616  0.001272)
 46:   1648.44   0.000075    0.38  0.000014  ( 0.000604  0.003705  0.000205)
 47:   2979.94   0.007595   38.38  0.000795  (-0.020296 -0.019533 -0.001372)
 48:   3006.08   0.006039   30.52  0.000627  (-0.022310  0.011363  0.000256)
 49:   3033.00   0.003722   18.81  0.000383  ( 0.000384  0.000930 -0.019543)
 50:   3065.66   0.002755   13.92  0.000280  (-0.000289 -0.000878  0.016720)
 51:   3101.85   0.003332   16.84  0.000335  ( 0.014292  0.011404  0.000962)
 52:   3103.34   0.002094   10.58  0.000211  (-0.010523  0.009987  0.000355)
 53:   3151.11   0.000226    1.14  0.000022  ( 0.003274 -0.003408 -0.000118)
 54:   3156.08   0.004317   21.82  0.000427  (-0.020653 -0.000402 -0.000349)
 55:   3181.22   0.003395   17.16  0.000333  ( 0.000092  0.018226  0.000940)
 56:   3810.81   0.010931   55.24  0.000895  (-0.022532 -0.019628 -0.001476)

* The epsilon (eps) is given for a Dirac delta lineshape.
** The dipole moment derivative (T) already includes vibrational overlap.

The first frequency considered to be a vibration is 6
The total number of vibrations considered is 51


--------------------------
THERMOCHEMISTRY AT 298.15K
--------------------------

Temperature         ...   298.15 K
Pressure            ...     1.00 atm
Total Mass          ...   122.17 AMU
Quasi RRHO          ...     True
Cut-Off Frequency   ...     1.00 cm^-1

Throughout the following assumptions are being made:
  (1) The electronic state is orbitally nondegenerate
  (2) There are no thermally accessible electronically excited states
  (3) Hindered rotations indicated by low frequency modes are not
      treated as such but are treated as vibrations and this may
      cause some error
  (4) All equations used are the standard statistical mechanics
      equations for an ideal gas
  (5) All vibrations are strictly harmonic

freq.     136.37  E(vib)   ...       0.42 
freq.     172.51  E(vib)   ...       0.38 
freq.     189.00  E(vib)   ...       0.36 
freq.     229.78  E(vib)   ...       0.32 
freq.     283.28  E(vib)   ...       0.28 
freq.     286.75  E(vib)   ...       0.27 
freq.     325.57  E(vib)   ...       0.24 
freq.     332.89  E(vib)   ...       0.24 
freq.     488.93  E(vib)   ...       0.15 
freq.     502.52  E(vib)   ...       0.14 
freq.     505.22  E(vib)   ...       0.14 
freq.     556.16  E(vib)   ...       0.12 
freq.     561.42  E(vib)   ...       0.11 
freq.     680.17  E(vib)   ...       0.08 
freq.     725.08  E(vib)   ...       0.06 
freq.     760.21  E(vib)   ...       0.06 
freq.     843.92  E(vib)   ...       0.04 
freq.     884.38  E(vib)   ...       0.04 
freq.     916.80  E(vib)   ...       0.03 
freq.     929.02  E(vib)   ...       0.03 
freq.    1003.33  E(vib)   ...       0.02 
freq.    1040.26  E(vib)   ...       0.02 
freq.    1046.85  E(vib)   ...       0.02 
freq.    1055.69  E(vib)   ...       0.02 
freq.    1112.49  E(vib)   ...       0.01 
freq.    1183.66  E(vib)   ...       0.01 
freq.    1219.88  E(vib)   ...       0.01 
freq.    1244.71  E(vib)   ...       0.01 
freq.    1287.36  E(vib)   ...       0.01 
freq.    1310.64  E(vib)   ...       0.01 
freq.    1371.80  E(vib)   ...       0.01 
freq.    1401.35  E(vib)   ...       0.00 
freq.    1405.21  E(vib)   ...       0.00 
freq.    1454.74  E(vib)   ...       0.00 
freq.    1471.38  E(vib)   ...       0.00 
freq.    1480.47  E(vib)   ...       0.00 
freq.    1482.54  E(vib)   ...       0.00 
freq.    1509.25  E(vib)   ...       0.00 
freq.    1518.06  E(vib)   ...       0.00 
freq.    1628.98  E(vib)   ...       0.00 
freq.    1648.44  E(vib)   ...       0.00 
freq.    2979.94  E(vib)   ...       0.00 
freq.    3006.08  E(vib)   ...       0.00 
freq.    3033.00  E(vib)   ...       0.00 
freq.    3065.66  E(vib)   ...       0.00 
freq.    3101.85  E(vib)   ...       0.00 
freq.    3103.34  E(vib)   ...       0.00 
freq.    3151.11  E(vib)   ...       0.00 
freq.    3156.08  E(vib)   ...       0.00 
freq.    3181.22  E(vib)   ...       0.00 
freq.    3810.81  E(vib)   ...       0.00 

------------
INNER ENERGY
------------

The inner energy is: U= E(el) + E(ZPE) + E(vib) + E(rot) + E(trans)
    E(el)   - is the total energy from the electronic structure calculation
              = E(kin-el) + E(nuc-el) + E(el-el) + E(nuc-nuc)
    E(ZPE)  - the the zero temperature vibrational energy from the frequency calculation
    E(vib)  - the the finite temperature correction to E(ZPE) due to population
              of excited vibrational states
    E(rot)  - is the rotational thermal energy
    E(trans)- is the translational thermal energy

Summary of contributions to the inner energy U:
Electronic energy                ...   -386.03611083 Eh
Zero point energy                ...      0.15896180 Eh      99.75 kcal/mol
Thermal vibrational correction   ...      0.00587715 Eh       3.69 kcal/mol
Thermal rotational correction    ...      0.00141627 Eh       0.89 kcal/mol
Thermal translational correction ...      0.00141627 Eh       0.89 kcal/mol
-----------------------------------------------------------------------
Total thermal energy                   -385.86843934 Eh


Summary of corrections to the electronic energy:
(perhaps to be used in another calculation)
Total thermal correction                  0.00870969 Eh       5.47 kcal/mol
Non-thermal (ZPE) correction              0.15896180 Eh      99.75 kcal/mol
-----------------------------------------------------------------------
Total correction                          0.16767149 Eh     105.22 kcal/mol


--------
ENTHALPY
--------

The enthalpy is H = U + kB*T
                kB is Boltzmann's constant
Total thermal energy              ...   -385.86843934 Eh 
Thermal Enthalpy correction       ...      0.00094421 Eh       0.59 kcal/mol
-----------------------------------------------------------------------
Total Enthalpy                    ...   -385.86749513 Eh


Note: Only C1 symmetry has been detected, increase convergence thresholds 
      if your molecule has a higher symmetry. Symmetry factor of 1.0 is   
      used for the rotational entropy correction. 
 

Note: Rotational entropy computed according to Herzberg 
Infrared and Raman Spectra, Chapter V,1, Van Nostrand Reinhold, 1945 
Point Group:  C1, Symmetry Number:   1  
Rotational constants in cm-1:     0.076211     0.058997     0.033672 

Vibrational entropy computed according to the QRRHO of S. Grimme
Chem.Eur.J. 2012 18 9955 using a reference frequency of 100.0 cm-1


-------
ENTROPY
-------

The entropy contributions are T*S = T*(S(el)+S(vib)+S(rot)+S(trans))
     S(el)   - electronic entropy
     S(vib)  - vibrational entropy
     S(rot)  - rotational entropy
     S(trans)- translational entropy
The entropies will be listed as multiplied by the temperature to get
units of energy

Electronic entropy                ...      0.00000000 Eh      0.00 kcal/mol
Vibrational entropy               ...      0.00951494 Eh      5.97 kcal/mol
Rotational entropy                ...      0.01366314 Eh      8.57 kcal/mol
Translational entropy             ...      0.01915481 Eh     12.02 kcal/mol
-----------------------------------------------------------------------
Final entropy term                ...      0.04233288 Eh     26.56 kcal/mol

In case the symmetry of your molecule has not been determined correctly
or in case you have a reason to use a different symmetry number we print 
out the resulting rotational entropy values for sn=1,12:

 non-linear molecules -----------------------------------
|  sn= 1 | S(rot)=       0.01366314 Eh      8.57 kcal/mol|
|  sn= 2 | S(rot)=       0.01300868 Eh      8.16 kcal/mol|
|  sn= 3 | S(rot)=       0.01262585 Eh      7.92 kcal/mol|
|  sn= 4 | S(rot)=       0.01235422 Eh      7.75 kcal/mol|
|  sn= 5 | S(rot)=       0.01214353 Eh      7.62 kcal/mol|
|  sn= 6 | S(rot)=       0.01197139 Eh      7.51 kcal/mol|
|  sn= 7 | S(rot)=       0.01182584 Eh      7.42 kcal/mol|
|  sn= 8 | S(rot)=       0.01169977 Eh      7.34 kcal/mol|
|  sn= 9 | S(rot)=       0.01158856 Eh      7.27 kcal/mol|
|  sn=10 | S(rot)=       0.01148908 Eh      7.21 kcal/mol|
|  sn=11 | S(rot)=       0.01139909 Eh      7.15 kcal/mol|
|  sn=12 | S(rot)=       0.01131693 Eh      7.10 kcal/mol|
 linear molecules ---------------------------------------
|  Dinfh | S(rot)=       0.00852761 Eh      5.35 kcal/mol|
|  Cinfv | S(rot)=       0.00918207 Eh      5.76 kcal/mol|
 --------------------------------------------------------


-------------------
GIBBS FREE ENERGY
-------------------

The Gibbs free energy is G = H - T*S

Total enthalpy                    ...   -385.86749513 Eh 
Total entropy correction          ...     -0.04233288 Eh    -26.56 kcal/mol
-----------------------------------------------------------------------
Final Gibbs free energy         ...   -385.90982801 Eh

For completeness - the Gibbs free energy minus the electronic energy
G-E(el)                           ...      0.12628282 Eh     79.24 kcal/mol


Maximum memory used throughout the entire PROP-calculation: 73.0 MB

--------------------------------
SUGGESTED CITATIONS FOR THIS RUN
--------------------------------

Below you find a list of papers that are relevant to this ORCA run
We neither can nor want to force you to cite these papers, but we appreciate if you do
You receive ORCA, which is the product of decades of hard work by many enthusiastic individuals, for free
The only thing we kindly ask in return is that you cite our papers,
We deeply appreciate it, if you show your appreciation for ORCA by not just citing the generic ORCA reference.

Please note that relegating all ORCA citations to the supporting information does *not* help us.
SI sections are not indexed - citations you put there will not count into any citation statistics
But we need these citations in order to attract the funding resources that allow us to do what we are doing

Therefore, if you are a happy ORCA user, please consider citing a few of the papers listed below in the main body of your paper

In addition to the list printed below, the program has created the file vacuum_censo.bibtex that contains the list in bibtex format
You can import this file easily into all common literature databanks and citation aid programs


List of essential papers. We consider these as the minimum necessary citations

  1. Neese,F.
     Software update: the ORCA program system, version 5.0
     WIRES Comput. Molec. Sci., 2022 12(1)e1606
     doi.org/10.1002/wcms.1606
  2. Grimme,S.; Hansen,A.; Ehlert,S.; Mewes,J.
     r2SCAN-3c: A 'Swiss army knife' composite electronic-structure method
     J. Chem. Phys., 2021 154 064103
     doi.org/10.1063/5.0040021

List of papers to cite with high priority. The work reported in these papers was absolutely
necessary for this run to complete.
Our perspective: the developers of density functionals and basis sets usually get cited in chemistry papers
Good! But without the algorithms to do something with them, the functionals or basis sets would not do anything.
Hence, in our opinion, the algorithm design and method developments papers are equally worthy of getting cited

  1. Neese,F.
     An improvement of the resolution of the identity approximation for the formation of the Coulomb matrix
     J. Comp. Chem., 2003 24(14)1740-1747
     doi.org/10.1002/jcc.10318
  2. Bykov,D.; Petrenko,T.; Izsak,R.; Kossmann,S.; Becker,U.; Valeev,E.; Neese,F.
     Efficient implementation of the analytic second derivatives of Hartree-Fock and hybrid DFT energies: a detailed analysis of different approximations
     Molec. Phys., 2015 113 1961-1977
     doi.org/10.1080/00268976.2015.1025114
  3. Neese,F.
     The SHARK Integral Generation and Digestion System
     J. Comp. Chem., 2022  1-16
     doi.org/10.1002/jcc.26942
  4. Lehtola,S.; Steigemann,C.; Oliveira,M.; Marques,M.
     Recent developments in Libxc - A comprehensive library of functionals for density functional theory
     Software X, 2018 7 
     doi.org/10.1016/j.softx.2017.11.002
  5. Caldeweyher,E.; Bannwarth,C.; Grimme,S.
     Extension of the D3 dispersion coefficient model
     J. Chem. Phys., 2017 147 034112-XXXX
     doi.org/10.1063/1.4993215
  6. Caldeweyher,E.; Ehlert,S.; Hansen,A.; Neugebauer,H.; Spicher,S.; Bannwarth,C.; Grimme,S.
     A generally applicable atomic-charge dependent London dispersion correction
     J. Chem. Phys., 2019 150 154122-XXXX
     doi.org/10.1063/1.5090222
  7. Caldeweyher,E.; Mewes,J.; Ehlert,S.; Grimme,S.
     Extension and evaluation of the D4 London-dispersion model for periodic systems
     Phys. Chem. Chem. Phys., 2020 22(16)8499-8512
     doi.org/10.1039/D0CP00502A

List of suggested additional citations. These are papers that are important in the 'surrounding' of 
of this run, or papers that preceded the highly important papers. If you like your results we are grateful for a citation.

  1. Neese,F.
     The ORCA program system
     WIRES Comput. Molec. Sci., 2012 2(1)73-78
     doi.org/10.1002/wcms.81
  2. Neese,F.
     Software update: the ORCA program system, version 4.0
     WIRES Comput. Molec. Sci., 2018 8(1)1-6
     doi.org/10.1002/wcms.1327
  3. Neese,F.; Wennmohs,F.; Becker,U.; Riplinger,C.
     The ORCA quantum chemistry program package
     J. Chem. Phys., 2020 152 Art. No. L224108
     doi.org/10.1063/5.0004608

List of optional additional citations

  1. Neese,F.
     Approximate second-order SCF convergence for spin unrestricted wavefunctions
     Chem. Phys. Lett., 2000 325(1-3)93-98
     doi.org/10.1016/s0009-2614(00)00662-x

Timings for individual modules:

Sum of individual times          ...     1015.063 sec (=  16.918 min)
Startup calculation              ...        1.470 sec (=   0.025 min)   0.1 %
SCF iterations                   ...       42.600 sec (=   0.710 min)   4.2 %
Property integrals               ...      576.434 sec (=   9.607 min)  56.8 %
SCF Response                     ...      218.598 sec (=   3.643 min)  21.5 %
Property calculations            ...      175.960 sec (=   2.933 min)  17.3 %
                             ****ORCA TERMINATED NORMALLY****
TOTAL RUN TIME: 0 days 0 hours 16 minutes 55 seconds 766 msec
