 Entering Gaussian System
 *********************************************
 Gaussian 98:
 frequency output generated by the xtb code
 *********************************************
                         Standard orientation:
 --------------------------------------------------------------------
  Center     Atomic     Atomic              Coordinates (Angstroms)
  Number     Number      Type              X           Y           Z
 --------------------------------------------------------------------
    1          6             0       -3.525943   -0.578428   -1.537929
    2          7             0       -2.394950   -0.157543   -0.749034
    3          6             0       -2.409039   -0.207443    0.604004
    4          8             0       -3.337895   -0.590263    1.261991
    5          8             0       -1.268424    0.200067    1.219716
    6          6             0       -0.201126    0.721881    0.506011
    7          6             0       -0.215678    2.030447    0.092501
    8          6             0        0.891733    2.569213   -0.577866
    9          6             0        1.991973    1.798972   -0.830440
   10          6             0        2.038175    0.450338   -0.418772
   11          6             0        0.925120   -0.107379    0.263739
   12          6             0        0.968137   -1.455040    0.675852
   13          6             0        2.070592   -2.221441    0.420352
   14          6             0        3.173553   -1.675307   -0.254321
   15          6             0        3.158589   -0.371224   -0.663551
   16          1             0       -4.310451   -0.882035   -0.847224
   17          1             0       -3.258814   -1.422575   -2.176614
   18          1             0       -3.887232    0.242965   -2.159515
   19          1             0       -1.563296    0.147344   -1.230867
   20          1             0       -1.082482    2.641822    0.294380
   21          1             0        0.861900    3.602019   -0.890375
   22          1             0        2.845347    2.212876   -1.347117
   23          1             0        0.117566   -1.862185    1.201834
   24          1             0        2.100492   -3.252847    0.738301
   25          1             0        4.036768   -2.295554   -0.445740
   26          1             0        4.007097    0.053199   -1.180566
 --------------------------------------------------------------------
     1 basis functions        1 primitive gaussians
     1 alpha electrons        1 beta electrons
 
 Harmonic frequencies (cm**-1), IR intensities (km*mol⁻¹),
 Raman scattering activities (A**4/amu), Raman depolarization ratios,
 reduced masses (AMU), force constants (mDyne/A) and normal coordinates:
                      1                      2                      3
                        a                      a                      a 
 Frequencies --   -19.8178                48.3672                68.8427
 Red. masses --    11.1438                12.4330                10.4848
 Frc consts  --     0.0000                 0.0000                 0.0000
 IR Inten    --     0.1639                 9.5684                 1.1473
 Raman Activ --     0.0000                 0.0000                 0.0000
 Depolar     --     0.0000                 0.0000                 0.0000
 Atom AN      X      Y      Z        X      Y      Z        X      Y      Z
   1   6    -0.30   0.40   0.03    -0.11   0.20   0.02     0.30   0.22  -0.19
   2   7    -0.19   0.17  -0.02    -0.12   0.27  -0.01     0.24   0.08  -0.00
   3   6    -0.08   0.02  -0.02     0.06  -0.11  -0.02     0.05  -0.00  -0.00
   4   8    -0.11   0.12   0.01     0.30  -0.67  -0.01    -0.04  -0.03  -0.17
   5   8     0.06  -0.31  -0.08    -0.01   0.13  -0.04    -0.01  -0.07   0.18
   6   6     0.01  -0.18  -0.06    -0.00   0.08  -0.04     0.00  -0.02   0.20
   7   6    -0.10  -0.20  -0.11     0.04   0.07  -0.09    -0.06  -0.03   0.15
   8   6    -0.13  -0.12  -0.10     0.06   0.01  -0.11    -0.16  -0.06  -0.03
   9   6    -0.05  -0.03  -0.04     0.04  -0.04  -0.08    -0.21  -0.08  -0.20
  10   6     0.06  -0.01   0.01    -0.00  -0.02  -0.02    -0.13  -0.05  -0.11
  11   6     0.09  -0.08   0.01    -0.02   0.04  -0.00     0.00  -0.01   0.14
  12   6     0.20  -0.06   0.06    -0.06   0.06   0.07     0.11   0.05   0.30
  13   6     0.27   0.02   0.11    -0.08   0.02   0.13     0.08   0.04   0.18
  14   6     0.24   0.10   0.12    -0.05  -0.04   0.12    -0.07  -0.02  -0.13
  15   6     0.14   0.08   0.07    -0.02  -0.06   0.04    -0.18  -0.07  -0.27
  16   1    -0.09   0.15   0.02     0.04  -0.11   0.01     0.06   0.05  -0.09
  17   1    -0.14   0.11  -0.01     0.02   0.17  -0.12     0.10   0.08  -0.07
  18   1    -0.05   0.14   0.02    -0.15   0.10   0.13     0.12   0.09  -0.04
  19   1    -0.04   0.00  -0.01    -0.09   0.21  -0.01     0.08   0.02   0.04
  20   1    -0.05  -0.08  -0.05     0.02   0.03  -0.03    -0.01  -0.01   0.06
  21   1    -0.06  -0.04  -0.04     0.03  -0.00  -0.04    -0.06  -0.02  -0.02
  22   1    -0.02   0.01  -0.01     0.01  -0.02  -0.03    -0.09  -0.03  -0.12
  23   1     0.06  -0.03   0.01    -0.02   0.03   0.02     0.06   0.03   0.15
  24   1     0.10   0.01   0.04    -0.03   0.01   0.06     0.05   0.02   0.09
  25   1     0.09   0.05   0.05    -0.02  -0.02   0.05    -0.03  -0.01  -0.07
  26   1     0.03   0.04   0.02    -0.00  -0.03   0.01    -0.08  -0.03  -0.14
                      4                      5                      6
                        a                      a                      a 
 Frequencies --   106.0863               135.2895               140.7372
 Red. masses --     7.2018                 9.0437                 7.7733
 Frc consts  --     0.0000                 0.0000                 0.0000
 IR Inten    --     1.5645                 0.4736                 2.4581
 Raman Activ --     0.0000                 0.0000                 0.0000
 Depolar     --     0.0000                 0.0000                 0.0000
 Atom AN      X      Y      Z        X      Y      Z        X      Y      Z
   1   6    -0.07   0.22   0.00    -0.19  -0.27   0.02     0.26  -0.20  -0.04
   2   7     0.23  -0.58   0.00    -0.24   0.09  -0.12    -0.05   0.42   0.09
   3   6     0.02  -0.05   0.01    -0.10   0.07  -0.11    -0.04   0.17   0.07
   4   8    -0.05   0.15   0.03    -0.10   0.13  -0.06    -0.07   0.15   0.03
   5   8    -0.01   0.05   0.01    -0.06  -0.05  -0.17     0.02  -0.04   0.12
   6   6    -0.01   0.02  -0.01     0.02  -0.03  -0.04     0.00  -0.06   0.06
   7   6    -0.01   0.01  -0.02     0.11   0.03   0.13    -0.07  -0.10  -0.04
   8   6    -0.01   0.01  -0.02     0.17   0.07   0.27    -0.14  -0.10  -0.15
   9   6     0.00   0.01  -0.00     0.08   0.02   0.07    -0.08  -0.05  -0.04
  10   6    -0.00   0.01   0.01     0.01  -0.03  -0.08     0.00  -0.01   0.06
  11   6    -0.02   0.01  -0.02     0.05  -0.01   0.01    -0.00  -0.06   0.02
  12   6    -0.03   0.00  -0.04     0.17   0.06   0.22    -0.01  -0.11  -0.13
  13   6    -0.03   0.01  -0.02     0.17   0.07   0.21     0.00  -0.08  -0.17
  14   6    -0.01   0.01   0.03     0.02  -0.03  -0.12     0.07   0.03   0.03
  15   6     0.01   0.02   0.04    -0.06  -0.08  -0.26     0.07   0.06   0.14
  16   1     0.10  -0.25  -0.00     0.05  -0.29   0.03     0.18  -0.39  -0.04
  17   1    -0.03   0.32  -0.34     0.05   0.04  -0.11     0.30   0.13  -0.17
  18   1    -0.18   0.26   0.35    -0.25  -0.07   0.13    -0.18  -0.05   0.14
  19   1     0.01  -0.00   0.00    -0.09   0.05  -0.05    -0.01   0.14   0.04
  20   1    -0.00   0.01  -0.01     0.04   0.01   0.05    -0.03  -0.04  -0.02
  21   1    -0.00   0.00  -0.01     0.07   0.04   0.14    -0.06  -0.04  -0.08
  22   1     0.00   0.00   0.00     0.03   0.01   0.03    -0.03  -0.01  -0.02
  23   1    -0.01  -0.00  -0.02     0.07   0.03   0.12    -0.01  -0.05  -0.07
  24   1    -0.01  -0.00  -0.01     0.08   0.04   0.12    -0.01  -0.04  -0.09
  25   1     0.00   0.01   0.01    -0.01  -0.02  -0.07     0.03   0.02   0.02
  26   1     0.01   0.01   0.02    -0.05  -0.04  -0.13     0.03   0.04   0.07
                      7                      8                      9
                        a                      a                      a 
 Frequencies --   158.3489               236.0655               256.0495
 Red. masses --    10.0031                10.2560                12.8242
 Frc consts  --     0.0000                 0.0000                 0.0000
 IR Inten    --     0.6941                 0.4134                 1.9655
 Raman Activ --     0.0000                 0.0000                 0.0000
 Depolar     --     0.0000                 0.0000                 0.0000
 Atom AN      X      Y      Z        X      Y      Z        X      Y      Z
   1   6    -0.04  -0.01   0.01     0.24   0.10  -0.23     0.02  -0.03   0.14
   2   7    -0.02  -0.01  -0.03    -0.04   0.02   0.20     0.11   0.13  -0.07
   3   6     0.01  -0.01  -0.02    -0.09  -0.04   0.18     0.21  -0.05  -0.06
   4   8     0.02  -0.02  -0.02    -0.02  -0.02   0.33     0.16   0.15  -0.06
   5   8     0.01  -0.02  -0.02     0.02  -0.01  -0.01     0.36  -0.52  -0.08
   6   6     0.02   0.02   0.04    -0.11  -0.07  -0.24     0.05  -0.01  -0.07
   7   6    -0.14  -0.09  -0.33    -0.13  -0.09  -0.31    -0.14  -0.00  -0.00
   8   6    -0.06  -0.04  -0.15     0.06   0.04   0.10    -0.11   0.05   0.07
   9   6     0.12   0.08   0.25     0.14   0.10   0.28    -0.05   0.13   0.03
  10   6     0.14   0.10   0.30    -0.04  -0.02  -0.10     0.05   0.08  -0.10
  11   6     0.15   0.11   0.31    -0.09  -0.05  -0.22     0.06   0.10  -0.13
  12   6     0.12   0.10   0.28    -0.03  -0.00  -0.06    -0.18   0.14  -0.01
  13   6    -0.08  -0.05  -0.15     0.07   0.06   0.18    -0.25   0.03   0.15
  14   6    -0.18  -0.12  -0.36    -0.01  -0.00   0.00    -0.22  -0.05   0.14
  15   6     0.00  -0.00   0.01    -0.08  -0.06  -0.18    -0.05  -0.08  -0.01
  16   1    -0.00  -0.01   0.01    -0.00  -0.00  -0.17     0.06  -0.05   0.09
  17   1    -0.02   0.00  -0.01     0.14   0.06  -0.07     0.00   0.01   0.02
  18   1    -0.02  -0.00   0.01     0.13   0.05  -0.07    -0.07  -0.02   0.07
  19   1    -0.01  -0.01  -0.01     0.02   0.00   0.11     0.06  -0.10  -0.05
  20   1    -0.09  -0.06  -0.21    -0.05  -0.03  -0.13    -0.05  -0.02  -0.00
  21   1    -0.04  -0.03  -0.10     0.05   0.03   0.10    -0.04   0.02   0.04
  22   1     0.05   0.03   0.10     0.09   0.06   0.19    -0.02   0.07   0.03
  23   1     0.05   0.05   0.12    -0.01   0.00  -0.01    -0.08   0.09  -0.01
  24   1    -0.05  -0.03  -0.10     0.05   0.04   0.12    -0.09   0.02   0.07
  25   1    -0.11  -0.08  -0.22     0.00   0.00   0.01    -0.07  -0.04   0.07
  26   1    -0.01  -0.01  -0.02    -0.03  -0.03  -0.08     0.01  -0.07  -0.00
                     10                     11                     12
                        a                      a                      a 
 Frequencies --   283.6476               368.9794               388.7120
 Red. masses --    11.1431                13.1808                 9.4314
 Frc consts  --     0.0000                 0.0000                 0.0000
 IR Inten    --     8.0703                 9.2839                 7.9168
 Raman Activ --     0.0000                 0.0000                 0.0000
 Depolar     --     0.0000                 0.0000                 0.0000
 Atom AN      X      Y      Z        X      Y      Z        X      Y      Z
   1   6     0.01  -0.00  -0.38     0.06   0.02   0.20     0.09   0.04   0.13
   2   7    -0.27  -0.10   0.07     0.04   0.06   0.19     0.10   0.08   0.06
   3   6    -0.16  -0.11   0.07    -0.17  -0.13   0.14     0.01  -0.02   0.04
   4   8    -0.04   0.01   0.36    -0.51  -0.18  -0.29    -0.07  -0.03  -0.07
   5   8     0.05  -0.26  -0.16    -0.11  -0.19   0.20    -0.01   0.04  -0.02
   6   6     0.03   0.04   0.01    -0.09   0.03   0.08    -0.12  -0.08  -0.29
   7   6     0.14   0.11   0.20     0.09   0.00  -0.05    -0.03  -0.01  -0.07
   8   6     0.07   0.01  -0.03     0.17  -0.09  -0.08     0.07   0.06   0.16
   9   6     0.00  -0.01  -0.27     0.25   0.03  -0.09    -0.07  -0.05  -0.12
  10   6     0.13   0.07   0.01     0.15   0.04  -0.07    -0.12  -0.07  -0.21
  11   6     0.13   0.15   0.07     0.05   0.19  -0.06    -0.13  -0.10  -0.24
  12   6     0.02   0.17   0.09    -0.01   0.20  -0.12     0.15   0.09   0.35
  13   6    -0.14   0.01  -0.09    -0.04   0.14  -0.00    -0.06  -0.05  -0.15
  14   6    -0.07  -0.04  -0.01     0.04  -0.01   0.02    -0.07  -0.04  -0.16
  15   6     0.12   0.01   0.13     0.09  -0.05  -0.09     0.14   0.12   0.35
  16   1    -0.08  -0.04  -0.22     0.03  -0.01   0.07     0.04   0.00   0.06
  17   1     0.08   0.03  -0.12     0.02   0.02   0.05     0.01   0.01   0.03
  18   1     0.07   0.03  -0.12    -0.00   0.01   0.07     0.00   0.01   0.05
  19   1    -0.04  -0.04   0.07     0.07  -0.12   0.07     0.07  -0.10   0.02
  20   1     0.06   0.05   0.08     0.05   0.05  -0.06     0.02   0.01   0.04
  21   1     0.00  -0.00  -0.03     0.03  -0.03  -0.03     0.07   0.05   0.16
  22   1    -0.04  -0.02  -0.16     0.07   0.02  -0.02    -0.00  -0.01   0.00
  23   1     0.00   0.08   0.05    -0.02   0.06  -0.05     0.12   0.08   0.26
  24   1    -0.08  -0.01  -0.06    -0.04   0.04   0.02    -0.01  -0.02  -0.05
  25   1    -0.04  -0.04  -0.02    -0.00  -0.03   0.02    -0.02  -0.01  -0.05
  26   1     0.06  -0.01   0.07     0.03  -0.03  -0.04     0.11   0.09   0.26
                     13                     14                     15
                        a                      a                      a 
 Frequencies --   408.9923               432.9167               451.8109
 Red. masses --     3.1972                 9.5371                10.9272
 Frc consts  --     0.0000                 0.0000                 0.0000
 IR Inten    --    78.9969                 0.4435                 6.4050
 Raman Activ --     0.0000                 0.0000                 0.0000
 Depolar     --     0.0000                 0.0000                 0.0000
 Atom AN      X      Y      Z        X      Y      Z        X      Y      Z
   1   6    -0.03   0.03  -0.04     0.01   0.01   0.02     0.04  -0.00   0.05
   2   7    -0.09   0.20  -0.03     0.01   0.02   0.01     0.05  -0.02   0.02
   3   6     0.07  -0.15  -0.02     0.00  -0.01   0.01     0.02  -0.05   0.00
   4   8     0.08  -0.02   0.07    -0.01  -0.00  -0.01    -0.02   0.05   0.00
   5   8    -0.03   0.07  -0.03    -0.00   0.02  -0.02     0.14  -0.36  -0.06
   6   6    -0.01   0.08   0.02    -0.04  -0.04  -0.12    -0.05   0.03  -0.03
   7   6     0.04   0.07  -0.02     0.12   0.09   0.29     0.25   0.05  -0.11
   8   6     0.06   0.03  -0.03    -0.15  -0.09  -0.30     0.29   0.02  -0.14
   9   6    -0.01  -0.07   0.01     0.04   0.05   0.13     0.13  -0.15  -0.03
  10   6    -0.09  -0.03   0.08     0.13   0.09   0.26    -0.27  -0.04   0.18
  11   6    -0.06  -0.02   0.12    -0.14  -0.11  -0.34    -0.20  -0.12   0.13
  12   6    -0.03  -0.08  -0.02    -0.04  -0.04  -0.10    -0.16  -0.14   0.10
  13   6     0.05   0.01  -0.02     0.13   0.08   0.29     0.01   0.14  -0.02
  14   6     0.04   0.06   0.01    -0.14  -0.11  -0.30    -0.09   0.29  -0.07
  15   6    -0.09   0.03  -0.03     0.07   0.04   0.15    -0.21   0.26   0.01
  16   1     0.02  -0.07  -0.02     0.01  -0.00   0.01     0.01   0.01   0.02
  17   1     0.01   0.07  -0.08     0.00   0.00   0.00     0.01  -0.01   0.03
  18   1    -0.07   0.04   0.06    -0.00   0.00   0.01     0.01  -0.01  -0.00
  19   1     0.29  -0.83  -0.02     0.02  -0.05   0.00    -0.05   0.19   0.01
  20   1     0.01   0.02  -0.03     0.09   0.06   0.21     0.10   0.06  -0.05
  21   1     0.03   0.00  -0.03    -0.09  -0.06  -0.20     0.10   0.00  -0.05
  22   1     0.01  -0.06  -0.01     0.01   0.02   0.03     0.09  -0.15  -0.01
  23   1    -0.00  -0.06  -0.02     0.00   0.00   0.01    -0.02  -0.09   0.02
  24   1     0.03  -0.00  -0.02     0.09   0.06   0.21     0.07   0.03  -0.03
  25   1     0.02   0.03   0.00    -0.09  -0.07  -0.21    -0.02   0.10  -0.04
  26   1    -0.05   0.03  -0.03     0.02   0.01   0.04    -0.10   0.13  -0.01
                     16                     17                     18
                        a                      a                      a 
 Frequencies --   491.0744               506.4563               532.9821
 Red. masses --    11.4131                10.9866                11.1204
 Frc consts  --     0.0000                 0.0000                 0.0000
 IR Inten    --     1.3139                 0.9976                 2.2519
 Raman Activ --     0.0000                 0.0000                 0.0000
 Depolar     --     0.0000                 0.0000                 0.0000
 Atom AN      X      Y      Z        X      Y      Z        X      Y      Z
   1   6    -0.03  -0.01  -0.05     0.15   0.05   0.17    -0.04  -0.02  -0.04
   2   7     0.00  -0.01  -0.08     0.12   0.02   0.10    -0.07  -0.03   0.03
   3   6     0.06   0.01  -0.05    -0.07  -0.03   0.05     0.01  -0.06   0.03
   4   8     0.14   0.07   0.06    -0.12  -0.04   0.00    -0.10  -0.00  -0.07
   5   8     0.02  -0.12   0.06     0.04  -0.06  -0.29     0.12  -0.17   0.06
   6   6    -0.16   0.24   0.10    -0.13   0.11  -0.37     0.04   0.27   0.15
   7   6    -0.25   0.21   0.04    -0.14   0.25  -0.04     0.01   0.30  -0.01
   8   6    -0.02  -0.26   0.04     0.00   0.19   0.15    -0.05   0.24  -0.26
   9   6    -0.04  -0.34   0.19    -0.25  -0.11  -0.13     0.03   0.18   0.17
  10   6    -0.00  -0.31  -0.00     0.08   0.01   0.31    -0.21  -0.00  -0.15
  11   6    -0.21   0.14  -0.05     0.03   0.08   0.21    -0.11   0.01  -0.08
  12   6    -0.03   0.21  -0.02     0.06  -0.07  -0.13     0.28  -0.04   0.00
  13   6     0.03   0.30  -0.13     0.14  -0.07   0.07     0.12  -0.31  -0.08
  14   6     0.24  -0.07  -0.11     0.13  -0.17  -0.02     0.14  -0.21   0.08
  15   6     0.21  -0.08  -0.03    -0.03  -0.14   0.03    -0.23  -0.17   0.11
  16   1    -0.01   0.00  -0.01     0.06   0.02   0.07    -0.03  -0.01  -0.03
  17   1    -0.01  -0.01  -0.01     0.02   0.00   0.05     0.01  -0.00  -0.01
  18   1    -0.01  -0.01  -0.02     0.03   0.01   0.05     0.00  -0.00  -0.02
  19   1    -0.02   0.05  -0.03     0.03   0.07   0.06    -0.03   0.03   0.00
  20   1    -0.04   0.12  -0.02    -0.05   0.06  -0.01     0.01   0.10  -0.01
  21   1     0.09  -0.08  -0.03     0.06   0.06   0.04    -0.00   0.06  -0.12
  22   1    -0.00  -0.07   0.08    -0.11  -0.07  -0.14     0.06   0.04   0.12
  23   1     0.04   0.01   0.04    -0.02  -0.08  -0.14     0.12  -0.00   0.08
  24   1    -0.02   0.10   0.00    -0.01  -0.03  -0.01     0.00  -0.08   0.02
  25   1     0.04  -0.06   0.02     0.01  -0.06  -0.10     0.11   0.03   0.06
  26   1     0.04   0.06   0.02    -0.06  -0.06  -0.10    -0.04  -0.02   0.10
                     19                     20                     21
                        a                      a                      a 
 Frequencies --   577.3053               610.1344               650.2612
 Red. masses --    10.8735                12.3118                11.6331
 Frc consts  --     0.0000                 0.0000                 0.0000
 IR Inten    --     2.1244                 2.8023                 3.8353
 Raman Activ --     0.0000                 0.0000                 0.0000
 Depolar     --     0.0000                 0.0000                 0.0000
 Atom AN      X      Y      Z        X      Y      Z        X      Y      Z
   1   6     0.10   0.04   0.11     0.11   0.04   0.09    -0.15  -0.05  -0.14
   2   7     0.06   0.02   0.06     0.20   0.07  -0.18    -0.16   0.00   0.05
   3   6    -0.09  -0.00   0.01    -0.10  -0.01  -0.17     0.31  -0.16   0.10
   4   8    -0.09  -0.05   0.03     0.21   0.06   0.28     0.03   0.12  -0.21
   5   8    -0.01   0.06  -0.29    -0.32  -0.10  -0.10     0.17   0.11   0.40
   6   6     0.02  -0.07  -0.28    -0.30  -0.14   0.00    -0.22  -0.14  -0.36
   7   6     0.09   0.09   0.26     0.04  -0.14   0.10     0.00  -0.03   0.04
   8   6    -0.17  -0.08  -0.23     0.05  -0.21  -0.02     0.02  -0.08   0.00
   9   6     0.02   0.00   0.30     0.22   0.10  -0.09     0.04  -0.02  -0.07
  10   6     0.05  -0.08  -0.03    -0.09   0.15   0.04     0.04   0.10   0.24
  11   6     0.07  -0.08   0.03    -0.10   0.17  -0.01    -0.07   0.05  -0.05
  12   6    -0.02   0.01   0.29     0.21   0.19  -0.08     0.13   0.12   0.09
  13   6    -0.17  -0.00  -0.24     0.04  -0.07  -0.07    -0.02  -0.03  -0.11
  14   6     0.07   0.16   0.24     0.07  -0.08   0.08     0.09   0.02   0.15
  15   6     0.05  -0.02  -0.30    -0.29  -0.08   0.08    -0.16  -0.05  -0.04
  16   1     0.04   0.02   0.05     0.10   0.04   0.12    -0.10  -0.03  -0.12
  17   1     0.01   0.00   0.03    -0.04  -0.02   0.04     0.02   0.01  -0.05
  18   1     0.01   0.01   0.03    -0.04  -0.02   0.03     0.02   0.01  -0.05
  19   1     0.04  -0.00   0.05     0.07   0.04  -0.01    -0.10   0.03  -0.07
  20   1     0.04   0.01   0.15     0.06   0.02   0.02     0.07   0.05   0.14
  21   1    -0.05  -0.04  -0.13    -0.05  -0.05   0.01     0.02  -0.00   0.06
  22   1     0.01   0.02   0.11     0.06   0.03  -0.03     0.02  -0.00  -0.01
  23   1    -0.00   0.01   0.10     0.06   0.05  -0.03     0.00  -0.00  -0.05
  24   1    -0.04  -0.03  -0.15    -0.06  -0.02  -0.02    -0.08  -0.04  -0.12
  25   1     0.03   0.03   0.16     0.05   0.03  -0.01     0.00   0.00  -0.04
  26   1     0.01  -0.01  -0.10    -0.10  -0.01   0.00    -0.11  -0.04  -0.13
                     22                     23                     24
                        a                      a                      a 
 Frequencies --   667.7395               718.8018               748.7163
 Red. masses --    12.1332                10.4686                 8.6963
 Frc consts  --     0.0000                 0.0000                 0.0000
 IR Inten    --    37.7412                 0.0184                 7.0432
 Raman Activ --     0.0000                 0.0000                 0.0000
 Depolar     --     0.0000                 0.0000                 0.0000
 Atom AN      X      Y      Z        X      Y      Z        X      Y      Z
   1   6     0.05   0.02   0.04     0.01   0.00   0.00     0.02   0.01   0.04
   2   7    -0.01   0.18  -0.03     0.03   0.01  -0.04    -0.10  -0.04   0.18
   3   6     0.22  -0.81  -0.08    -0.05  -0.01  -0.04     0.09  -0.00   0.09
   4   8    -0.12   0.28   0.10    -0.00  -0.01   0.06    -0.06  -0.01  -0.16
   5   8    -0.16   0.16  -0.09    -0.06  -0.04   0.01     0.21   0.17  -0.27
   6   6     0.05   0.03   0.09     0.08   0.08   0.23     0.13  -0.00  -0.05
   7   6     0.01   0.01  -0.01    -0.05  -0.00  -0.14    -0.04  -0.06   0.11
   8   6    -0.01   0.04  -0.00     0.09   0.14   0.16     0.02  -0.29   0.18
   9   6    -0.02   0.01   0.02    -0.06  -0.01  -0.10     0.07  -0.10   0.10
  10   6     0.01  -0.03  -0.07     0.24   0.13   0.43    -0.10   0.02   0.05
  11   6     0.03  -0.01   0.03    -0.20  -0.18  -0.45     0.07   0.10   0.02
  12   6    -0.05  -0.04  -0.02     0.02  -0.02   0.15     0.09   0.12  -0.21
  13   6    -0.00   0.01   0.03    -0.09  -0.08  -0.18    -0.01  -0.03  -0.06
  14   6    -0.02  -0.01  -0.03     0.06   0.05   0.14    -0.10   0.03  -0.07
  15   6     0.07   0.01  -0.01    -0.01  -0.06  -0.23    -0.31   0.01   0.02
  16   1     0.04   0.02   0.04     0.02   0.01   0.02    -0.05  -0.02  -0.06
  17   1    -0.01  -0.00   0.01    -0.01  -0.01   0.00     0.06   0.02   0.00
  18   1    -0.02  -0.00   0.02    -0.01  -0.01   0.00     0.06   0.02   0.01
  19   1    -0.04   0.20   0.02     0.02   0.00   0.01    -0.04  -0.01   0.02
  20   1    -0.02  -0.02  -0.03    -0.04  -0.02  -0.11    -0.10  -0.08  -0.14
  21   1    -0.01   0.00  -0.03    -0.04  -0.01  -0.12    -0.07  -0.14  -0.14
  22   1    -0.01   0.00  -0.00    -0.09  -0.06  -0.19    -0.08  -0.08  -0.18
  23   1     0.00  -0.00   0.02     0.07   0.04   0.19     0.10   0.13   0.14
  24   1     0.02   0.01   0.03     0.05   0.02   0.08     0.06   0.07   0.22
  25   1    -0.00  -0.01   0.02     0.03   0.02   0.10     0.11   0.14   0.18
  26   1     0.04   0.00   0.03     0.02  -0.01  -0.02    -0.00   0.10   0.23
                     25                     26                     27
                        a                      a                      a 
 Frequencies --   772.4804               780.2992               817.3028
 Red. masses --     9.0452                 9.8162                 3.9510
 Frc consts  --     0.0000                 0.0000                 0.0000
 IR Inten    --     2.6544                 2.2684                38.7286
 Raman Activ --     0.0000                 0.0000                 0.0000
 Depolar     --     0.0000                 0.0000                 0.0000
 Atom AN      X      Y      Z        X      Y      Z        X      Y      Z
   1   6     0.03   0.01   0.03    -0.04  -0.01  -0.05    -0.01  -0.00  -0.01
   2   7    -0.03  -0.00   0.05     0.05   0.01  -0.09    -0.00  -0.00   0.00
   3   6    -0.02  -0.04   0.00     0.01   0.03  -0.01     0.04   0.02   0.02
   4   8    -0.05  -0.01  -0.02     0.06   0.02   0.04     0.03   0.01  -0.01
   5   8     0.07   0.06  -0.18    -0.10  -0.09   0.25    -0.02  -0.02   0.06
   6   6     0.12   0.20   0.16    -0.27   0.08  -0.19    -0.08  -0.02  -0.07
   7   6    -0.26   0.14  -0.00    -0.19   0.26   0.06     0.05   0.06   0.15
   8   6     0.01  -0.36   0.08     0.05  -0.12   0.03     0.08   0.06   0.17
   9   6     0.09  -0.12  -0.10     0.19   0.07  -0.04     0.12   0.10   0.18
  10   6     0.04   0.04  -0.03     0.14   0.05  -0.08    -0.08  -0.06  -0.22
  11   6     0.00  -0.02  -0.21     0.07   0.02   0.18    -0.07  -0.04  -0.09
  12   6     0.19  -0.02   0.07    -0.03  -0.27  -0.02     0.02  -0.01   0.12
  13   6     0.05  -0.26   0.12     0.01  -0.32   0.05     0.04   0.03   0.09
  14   6    -0.20   0.23   0.14    -0.22   0.12  -0.05     0.04   0.01   0.06
  15   6    -0.02   0.18   0.06     0.17   0.10  -0.20     0.08   0.03   0.09
  16   1    -0.00   0.00  -0.00     0.01   0.00   0.01    -0.01  -0.00  -0.01
  17   1     0.01   0.01   0.01    -0.03  -0.01  -0.01     0.00   0.00  -0.00
  18   1     0.02   0.01   0.01    -0.03  -0.01  -0.01     0.00   0.00  -0.00
  19   1     0.00   0.00   0.03     0.00   0.01  -0.03    -0.01   0.00  -0.01
  20   1    -0.00   0.11   0.05    -0.02   0.15  -0.07    -0.16  -0.10  -0.37
  21   1     0.10  -0.08   0.09     0.03  -0.05  -0.06    -0.19  -0.12  -0.40
  22   1     0.07   0.07   0.14    -0.03   0.03  -0.13    -0.16  -0.10  -0.37
  23   1    -0.05  -0.02  -0.16     0.05  -0.02   0.13    -0.07  -0.07  -0.15
  24   1    -0.03  -0.15  -0.20     0.18  -0.04   0.15    -0.10  -0.08  -0.24
  25   1    -0.13   0.04  -0.24     0.04   0.11   0.19    -0.09  -0.08  -0.20
  26   1    -0.08  -0.06  -0.20     0.17   0.01   0.14    -0.04  -0.05  -0.12
                     28                     29                     30
                        a                      a                      a 
 Frequencies --   856.5591               878.6333               892.4739
 Red. masses --    10.7748                 3.6632                 4.0859
 Frc consts  --     0.0000                 0.0000                 0.0000
 IR Inten    --     4.0804                 0.1702                 0.8938
 Raman Activ --     0.0000                 0.0000                 0.0000
 Depolar     --     0.0000                 0.0000                 0.0000
 Atom AN      X      Y      Z        X      Y      Z        X      Y      Z
   1   6    -0.03  -0.01  -0.08    -0.00  -0.00  -0.00    -0.00  -0.00   0.00
   2   7     0.10   0.04  -0.15     0.00  -0.00   0.00    -0.00  -0.00   0.01
   3   6    -0.10  -0.02  -0.02     0.01   0.01   0.00     0.03   0.01   0.02
   4   8    -0.06  -0.03   0.12     0.01   0.00  -0.00     0.02   0.01  -0.01
   5   8    -0.03  -0.03   0.22    -0.01  -0.01   0.02    -0.03  -0.01   0.02
   6   6     0.05  -0.08  -0.07    -0.03  -0.02  -0.05    -0.05  -0.03  -0.05
   7   6     0.16  -0.03  -0.07     0.06   0.04   0.11     0.16   0.09   0.31
   8   6     0.05   0.18  -0.05    -0.01   0.00  -0.02    -0.01   0.02  -0.03
   9   6    -0.29  -0.31   0.28    -0.03  -0.02  -0.04    -0.14  -0.10  -0.25
  10   6     0.00  -0.14   0.03    -0.02  -0.02  -0.05     0.05   0.02   0.10
  11   6     0.15   0.10  -0.08     0.03   0.02   0.06    -0.03  -0.01  -0.06
  12   6     0.29   0.25  -0.21    -0.09  -0.07  -0.22     0.07   0.05   0.09
  13   6    -0.03  -0.18   0.08    -0.08  -0.07  -0.18     0.00  -0.02   0.02
  14   6    -0.26   0.17   0.06     0.06   0.05   0.14    -0.05  -0.01  -0.05
  15   6     0.02   0.11  -0.05     0.12   0.08   0.24    -0.01  -0.02  -0.09
  16   1     0.05   0.02   0.06    -0.00  -0.00  -0.00    -0.01  -0.00  -0.01
  17   1    -0.07  -0.03  -0.01     0.00   0.00  -0.00     0.01   0.00  -0.00
  18   1    -0.08  -0.03  -0.01     0.00   0.00  -0.00     0.01   0.00  -0.00
  19   1     0.04   0.02  -0.01    -0.00   0.00  -0.00    -0.01   0.00  -0.01
  20   1     0.03  -0.04   0.01    -0.09  -0.06  -0.21    -0.24  -0.16  -0.55
  21   1     0.11   0.02  -0.10     0.01   0.01   0.02     0.01   0.01   0.01
  22   1    -0.07  -0.20   0.01     0.05   0.03   0.12     0.20   0.14   0.45
  23   1     0.02   0.18  -0.08     0.20   0.16   0.43    -0.08  -0.05  -0.18
  24   1    -0.05  -0.05   0.03     0.12   0.08   0.26    -0.00  -0.01   0.00
  25   1    -0.05   0.08   0.00    -0.08  -0.06  -0.18     0.03   0.03   0.09
  26   1     0.02   0.01   0.00    -0.21  -0.15  -0.48     0.07   0.04   0.13
                     31                     32                     33
                        a                      a                      a 
 Frequencies --   917.1303               918.7630               923.3916
 Red. masses --     5.9625                 9.0173                 3.6011
 Frc consts  --     0.0000                 0.0000                 0.0000
 IR Inten    --     9.8122                19.6639                 0.4910
 Raman Activ --     0.0000                 0.0000                 0.0000
 Depolar     --     0.0000                 0.0000                 0.0000
 Atom AN      X      Y      Z        X      Y      Z        X      Y      Z
   1   6    -0.05  -0.02  -0.13    -0.09  -0.03  -0.20    -0.01  -0.00  -0.01
   2   7     0.12   0.05  -0.16     0.19   0.08  -0.24     0.01   0.01  -0.01
   3   6    -0.12  -0.04   0.04    -0.17  -0.06   0.06    -0.01  -0.01   0.01
   4   8    -0.15  -0.06   0.13    -0.23  -0.10   0.19    -0.02  -0.01   0.01
   5   8     0.19   0.07   0.10     0.28   0.11   0.16     0.02   0.01   0.00
   6   6     0.11   0.02  -0.09     0.17   0.03  -0.12     0.03   0.02   0.03
   7   6    -0.09   0.02  -0.05    -0.06   0.09   0.10     0.03   0.03   0.08
   8   6     0.07  -0.02   0.21    -0.06  -0.15  -0.05    -0.11  -0.08  -0.24
   9   6     0.01  -0.00  -0.11     0.09   0.04  -0.02     0.08   0.06   0.16
  10   6    -0.03   0.01  -0.04    -0.01   0.05   0.03     0.00   0.01   0.01
  11   6     0.06  -0.03   0.01     0.07  -0.05  -0.02    -0.03  -0.03  -0.08
  12   6     0.00   0.01   0.17    -0.13  -0.08  -0.04     0.08   0.06   0.19
  13   6    -0.04   0.04  -0.13     0.04   0.13   0.03    -0.07  -0.04  -0.15
  14   6    -0.02  -0.08  -0.18     0.13  -0.01   0.08    -0.04  -0.03  -0.10
  15   6    -0.03   0.03   0.21    -0.20  -0.07  -0.03     0.04   0.04   0.13
  16   1     0.08   0.03   0.09     0.12   0.04   0.14     0.01   0.00   0.01
  17   1    -0.11  -0.05  -0.02    -0.17  -0.07  -0.03    -0.01  -0.00  -0.00
  18   1    -0.12  -0.04  -0.02    -0.18  -0.06  -0.03    -0.01  -0.00  -0.00
  19   1     0.06   0.03   0.02     0.10   0.04   0.03     0.01   0.00   0.00
  20   1     0.04   0.03   0.16    -0.11  -0.06  -0.13    -0.09  -0.06  -0.19
  21   1    -0.15  -0.13  -0.34     0.09   0.03   0.20     0.20   0.14   0.46
  22   1     0.08   0.08   0.16    -0.03   0.01  -0.09    -0.15  -0.10  -0.34
  23   1    -0.11  -0.09  -0.21     0.05   0.04   0.18    -0.14  -0.11  -0.31
  24   1     0.09   0.08   0.17    -0.05  -0.01  -0.14     0.12   0.09   0.26
  25   1     0.15   0.10   0.28    -0.06  -0.05  -0.21     0.07   0.05   0.16
  26   1    -0.16  -0.07  -0.25     0.02   0.08   0.21    -0.09  -0.06  -0.18
                     34                     35                     36
                        a                      a                      a 
 Frequencies --   931.2547              1046.1245              1078.8757
 Red. masses --     3.2808                10.6840                 6.7836
 Frc consts  --     0.0000                 0.0000                 0.0000
 IR Inten    --     0.0395                72.0820                 6.4804
 Raman Activ --     0.0000                 0.0000                 0.0000
 Depolar     --     0.0000                 0.0000                 0.0000
 Atom AN      X      Y      Z        X      Y      Z        X      Y      Z
   1   6    -0.00  -0.00  -0.00     0.06   0.02   0.15    -0.02  -0.01  -0.06
   2   7     0.00   0.00  -0.00    -0.08  -0.03  -0.01     0.01   0.00   0.02
   3   6     0.00  -0.00   0.00    -0.02   0.01  -0.13     0.05   0.02   0.07
   4   8    -0.00   0.00   0.00     0.10   0.03  -0.00    -0.00  -0.00  -0.01
   5   8     0.00  -0.00  -0.00    -0.36  -0.13   0.20     0.00   0.01  -0.05
   6   6    -0.00  -0.00  -0.01     0.27  -0.05  -0.14    -0.03  -0.00   0.02
   7   6    -0.01  -0.01  -0.03    -0.24   0.19   0.05    -0.06  -0.00   0.02
   8   6     0.03   0.02   0.06     0.08   0.05  -0.05     0.00   0.06  -0.02
   9   6    -0.01  -0.00  -0.01     0.04  -0.08   0.00     0.04   0.02  -0.03
  10   6    -0.04  -0.03  -0.08     0.10   0.02  -0.05     0.07  -0.05  -0.01
  11   6     0.03   0.03   0.08     0.36  -0.14  -0.12    -0.07  -0.08   0.06
  12   6     0.05   0.04   0.10    -0.08  -0.03   0.05     0.23  -0.00  -0.11
  13   6    -0.11  -0.08  -0.25     0.03   0.19  -0.08     0.16   0.34  -0.18
  14   6     0.11   0.08   0.25     0.02   0.01  -0.01    -0.41   0.09   0.16
  15   6    -0.04  -0.03  -0.10    -0.30  -0.06   0.15    -0.06  -0.16   0.08
  16   1     0.00   0.00   0.00    -0.07  -0.03  -0.08     0.03   0.01   0.04
  17   1    -0.00  -0.00  -0.00     0.10   0.05   0.02    -0.04  -0.02  -0.01
  18   1    -0.00  -0.00  -0.00     0.11   0.03   0.01    -0.04  -0.01  -0.01
  19   1     0.00  -0.00  -0.00    -0.06  -0.02  -0.07     0.02   0.01   0.03
  20   1     0.03   0.02   0.07    -0.14  -0.06   0.06    -0.05  -0.05   0.04
  21   1    -0.05  -0.03  -0.11     0.25  -0.01  -0.11    -0.01   0.02  -0.00
  22   1     0.02   0.01   0.04     0.04  -0.07   0.00     0.03  -0.03  -0.00
  23   1    -0.12  -0.09  -0.26    -0.07   0.08  -0.00     0.25  -0.33   0.01
  24   1     0.21   0.15   0.48     0.07   0.05  -0.05     0.18   0.09  -0.11
  25   1    -0.22  -0.15  -0.48     0.04   0.08  -0.04    -0.20  -0.11   0.13
  26   1     0.12   0.08   0.25    -0.08  -0.01   0.05     0.15  -0.37   0.05
                     37                     38                     39
                        a                      a                      a 
 Frequencies --  1100.1689              1108.5263              1113.6109
 Red. masses --     7.8838                 6.1779                 3.5226
 Frc consts  --     0.0000                 0.0000                 0.0000
 IR Inten    --   309.2648                21.6722                 3.2153
 Raman Activ --     0.0000                 0.0000                 0.0000
 Depolar     --     0.0000                 0.0000                 0.0000
 Atom AN      X      Y      Z        X      Y      Z        X      Y      Z
   1   6     0.01   0.02   0.34     0.04  -0.00  -0.08     0.17  -0.38   0.02
   2   7     0.07   0.02  -0.21    -0.08  -0.02   0.06    -0.10   0.18  -0.01
   3   6    -0.31  -0.11  -0.31     0.07   0.02   0.04    -0.05   0.03  -0.04
   4   8    -0.09  -0.04   0.15     0.05   0.02  -0.05     0.01  -0.00   0.00
   5   8     0.29   0.10   0.13    -0.13  -0.06   0.02     0.04   0.00   0.02
   6   6    -0.04   0.03  -0.02     0.01   0.04  -0.02    -0.01  -0.00  -0.00
   7   6     0.13  -0.01  -0.04     0.30   0.03  -0.15    -0.01  -0.00   0.01
   8   6    -0.04  -0.08   0.05    -0.06  -0.21   0.10     0.00   0.01  -0.00
   9   6    -0.08   0.01   0.03    -0.30  -0.03   0.15     0.01   0.00  -0.01
  10   6     0.01   0.02  -0.01     0.13   0.11  -0.09    -0.01  -0.00   0.00
  11   6    -0.04   0.02   0.02     0.12   0.03  -0.06    -0.00  -0.00   0.00
  12   6     0.02  -0.03  -0.00    -0.08  -0.08   0.06     0.00   0.00  -0.00
  13   6     0.03   0.05  -0.03     0.04   0.08  -0.05    -0.00  -0.00   0.00
  14   6    -0.06   0.01   0.02    -0.00   0.00   0.00    -0.00   0.00   0.00
  15   6    -0.01  -0.04   0.02    -0.15  -0.08   0.09     0.01   0.00  -0.00
  16   1    -0.25  -0.10  -0.26     0.08   0.04   0.09    -0.07   0.20   0.00
  17   1     0.25   0.12   0.03    -0.08  -0.03  -0.01    -0.48   0.01  -0.35
  18   1     0.24   0.05   0.00    -0.06  -0.00   0.02     0.37   0.33   0.36
  19   1    -0.11  -0.04  -0.29     0.03   0.01   0.11    -0.01   0.04   0.02
  20   1     0.09   0.10  -0.09     0.30   0.37  -0.24    -0.01  -0.01   0.01
  21   1    -0.06  -0.02   0.03     0.03  -0.07   0.01    -0.00   0.00  -0.00
  22   1    -0.08   0.10  -0.00    -0.26   0.31   0.02     0.01  -0.01  -0.00
  23   1     0.04  -0.07   0.01    -0.01  -0.04   0.02     0.00   0.00  -0.00
  24   1     0.06   0.01  -0.03     0.13   0.01  -0.06    -0.00  -0.00   0.00
  25   1    -0.03  -0.02   0.02     0.04   0.08  -0.05    -0.00  -0.00   0.00
  26   1     0.03  -0.07   0.01    -0.00  -0.10   0.03     0.00   0.00  -0.00
                     40                     41                     42
                        a                      a                      a 
 Frequencies --  1123.5812              1164.2869              1173.1909
 Red. masses --    10.4339                 4.3547                 5.5278
 Frc consts  --     0.0000                 0.0000                 0.0000
 IR Inten    --   111.5308                57.8287                83.6772
 Raman Activ --     0.0000                 0.0000                 0.0000
 Depolar     --     0.0000                 0.0000                 0.0000
 Atom AN      X      Y      Z        X      Y      Z        X      Y      Z
   1   6    -0.32  -0.15  -0.06     0.17   0.06   0.03     0.34   0.13   0.03
   2   7     0.48   0.20  -0.02    -0.13  -0.05  -0.10    -0.23  -0.08  -0.22
   3   6     0.21   0.07   0.41     0.05   0.02   0.08     0.12   0.04   0.22
   4   8    -0.12  -0.05   0.09    -0.03  -0.01   0.03    -0.11  -0.05   0.07
   5   8    -0.24  -0.09  -0.19    -0.12  -0.06   0.06    -0.03  -0.02  -0.01
   6   6     0.06   0.03   0.01     0.20   0.03  -0.10     0.05   0.06  -0.02
   7   6     0.03  -0.01  -0.03     0.02   0.07  -0.04     0.05  -0.03  -0.01
   8   6    -0.00  -0.03   0.00     0.02  -0.10   0.02    -0.04   0.00   0.02
   9   6    -0.03  -0.01   0.02    -0.01   0.07  -0.02     0.01  -0.05   0.01
  10   6     0.02   0.01  -0.02    -0.08  -0.00   0.04     0.03   0.03  -0.02
  11   6     0.01   0.00  -0.01    -0.03  -0.16   0.06    -0.09   0.11   0.00
  12   6    -0.01  -0.00   0.01     0.19   0.00  -0.09    -0.08   0.00   0.03
  13   6    -0.00  -0.00   0.00    -0.07   0.04   0.02    -0.01  -0.04   0.02
  14   6     0.01  -0.00  -0.00    -0.04  -0.07   0.04     0.04   0.06  -0.03
  15   6    -0.02  -0.00   0.01     0.05   0.15  -0.07     0.01  -0.06   0.01
  16   1    -0.23  -0.07  -0.21     0.07   0.03   0.05     0.17   0.06   0.12
  17   1     0.01   0.04  -0.09    -0.02  -0.01   0.01    -0.06  -0.03   0.02
  18   1     0.09   0.02  -0.03    -0.02  -0.00   0.01    -0.06  -0.01   0.02
  19   1    -0.05   0.00  -0.33    -0.12  -0.04  -0.20    -0.28  -0.09  -0.47
  20   1     0.03   0.03   0.00     0.01   0.02  -0.01    -0.02  -0.07   0.04
  21   1     0.02  -0.01   0.00     0.12  -0.04  -0.04    -0.11   0.01   0.05
  22   1    -0.03   0.04   0.01    -0.14   0.27  -0.03     0.06  -0.11   0.01
  23   1     0.00  -0.00   0.00     0.18  -0.23   0.00     0.00  -0.05   0.02
  24   1    -0.01  -0.00   0.00    -0.40   0.05   0.16    -0.02  -0.01   0.01
  25   1     0.02   0.02  -0.01    -0.17  -0.29   0.17     0.16   0.27  -0.16
  26   1    -0.01   0.00   0.00    -0.13   0.31  -0.04     0.13  -0.25   0.02
                     43                     44                     45
                        a                      a                      a 
 Frequencies --  1176.8450              1184.9602              1217.0141
 Red. masses --     2.3270                 2.6683                 5.6395
 Frc consts  --     0.0000                 0.0000                 0.0000
 IR Inten    --    14.8939                 5.0646                31.1816
 Raman Activ --     0.0000                 0.0000                 0.0000
 Depolar     --     0.0000                 0.0000                 0.0000
 Atom AN      X      Y      Z        X      Y      Z        X      Y      Z
   1   6     0.10   0.04   0.00    -0.08  -0.03   0.01     0.05   0.02  -0.01
   2   7    -0.06  -0.02  -0.06     0.05   0.02   0.05    -0.01  -0.00  -0.03
   3   6     0.05   0.01   0.08    -0.03  -0.01  -0.07     0.02   0.00   0.06
   4   8    -0.03  -0.01   0.02     0.04   0.02  -0.01    -0.04  -0.02   0.01
   5   8    -0.06  -0.02   0.01    -0.08  -0.03   0.05     0.14   0.09  -0.10
   6   6     0.04   0.07  -0.04     0.15  -0.01  -0.07    -0.16  -0.26   0.17
   7   6    -0.04   0.01   0.01    -0.04   0.10  -0.01    -0.13  -0.04   0.07
   8   6    -0.04   0.01   0.02    -0.10  -0.03   0.05    -0.01   0.01   0.00
   9   6     0.03   0.04  -0.03     0.03  -0.01  -0.01    -0.11   0.03   0.04
  10   6    -0.10  -0.09   0.07    -0.05   0.05   0.01    -0.13   0.36  -0.06
  11   6     0.16  -0.06  -0.05     0.11  -0.15  -0.00     0.09  -0.00  -0.04
  12   6     0.05   0.01  -0.02     0.07  -0.03  -0.03     0.01  -0.09   0.03
  13   6     0.06   0.03  -0.03    -0.07   0.07   0.01    -0.03   0.02   0.00
  14   6    -0.04  -0.04   0.03     0.03   0.04  -0.03     0.12  -0.04  -0.04
  15   6    -0.01  -0.01   0.01     0.01   0.04  -0.02     0.03   0.06  -0.03
  16   1     0.05   0.02   0.03    -0.05  -0.02  -0.04     0.03   0.01   0.02
  17   1    -0.02  -0.01   0.00     0.03   0.01  -0.00    -0.02  -0.01   0.00
  18   1    -0.02  -0.00   0.01     0.03   0.01  -0.01    -0.02  -0.01   0.00
  19   1    -0.09  -0.03  -0.15     0.08   0.02   0.13    -0.05  -0.02  -0.11
  20   1     0.13   0.23  -0.12     0.14   0.29  -0.16     0.11   0.25  -0.12
  21   1    -0.40   0.04   0.17    -0.38   0.03   0.16     0.47  -0.05  -0.20
  22   1     0.14  -0.23   0.01     0.19  -0.35   0.02     0.14  -0.31   0.04
  23   1    -0.14   0.28  -0.04     0.11  -0.16   0.01    -0.03   0.03   0.00
  24   1     0.35  -0.03  -0.15    -0.46   0.07   0.19    -0.06   0.01   0.02
  25   1    -0.20  -0.34   0.20     0.08   0.14  -0.08    -0.09  -0.22   0.11
  26   1    -0.12   0.21  -0.01     0.10  -0.16   0.01     0.10  -0.14  -0.00
                     46                     47                     48
                        a                      a                      a 
 Frequencies --  1232.3302              1247.1250              1335.1589
 Red. masses --     9.2872                 4.6456                 9.1683
 Frc consts  --     0.0000                 0.0000                 0.0000
 IR Inten    --    48.6961                10.6815                 4.4030
 Raman Activ --     0.0000                 0.0000                 0.0000
 Depolar     --     0.0000                 0.0000                 0.0000
 Atom AN      X      Y      Z        X      Y      Z        X      Y      Z
   1   6     0.04   0.02  -0.01     0.01   0.00  -0.00     0.00   0.00  -0.00
   2   7    -0.01  -0.00  -0.03     0.00   0.00  -0.00     0.00  -0.00   0.00
   3   6     0.02  -0.00   0.06    -0.00   0.00   0.01    -0.00  -0.00   0.00
   4   8    -0.04  -0.01   0.01    -0.01  -0.00   0.00     0.00   0.00  -0.00
   5   8     0.16   0.09  -0.11     0.04   0.04  -0.03     0.02  -0.02   0.00
   6   6    -0.31  -0.08   0.17    -0.11  -0.07   0.07    -0.29   0.39   0.00
   7   6    -0.21  -0.12   0.13    -0.02  -0.06   0.03     0.11  -0.12  -0.01
   8   6     0.14   0.18  -0.12    -0.03   0.10  -0.02     0.20  -0.15  -0.04
   9   6     0.01   0.14  -0.05    -0.02  -0.09   0.04    -0.23   0.02   0.10
  10   6     0.20  -0.37   0.03     0.26   0.02  -0.12     0.20   0.09  -0.12
  11   6     0.17  -0.33   0.03     0.15   0.32  -0.17     0.21  -0.07  -0.07
  12   6    -0.01   0.12  -0.03    -0.10  -0.05   0.06    -0.16  -0.05   0.09
  13   6     0.09   0.07  -0.06    -0.11  -0.04   0.06     0.25  -0.05  -0.10
  14   6    -0.13  -0.03   0.07    -0.04  -0.03   0.03     0.03  -0.11   0.02
  15   6    -0.08   0.04   0.03    -0.06  -0.06   0.05    -0.20   0.28   0.00
  16   1     0.02   0.01   0.02     0.00   0.00   0.00     0.00   0.00   0.00
  17   1    -0.02  -0.01   0.00    -0.00  -0.00  -0.00    -0.00  -0.00   0.00
  18   1    -0.02  -0.01   0.00    -0.00  -0.00  -0.00    -0.00   0.00   0.00
  19   1    -0.05  -0.02  -0.10    -0.01  -0.00  -0.02    -0.01   0.00  -0.01
  20   1     0.10   0.24  -0.11     0.02   0.03  -0.02    -0.10  -0.26   0.13
  21   1     0.04   0.05  -0.03    -0.04   0.03   0.01    -0.12  -0.03   0.06
  22   1    -0.05   0.15  -0.03     0.10  -0.21   0.02     0.02  -0.15   0.04
  23   1    -0.04   0.11  -0.02     0.25  -0.52   0.07    -0.04  -0.02   0.02
  24   1    -0.17   0.04   0.06     0.11  -0.03  -0.04    -0.20   0.01   0.09
  25   1     0.10   0.22  -0.11     0.03   0.06  -0.03    -0.09  -0.19   0.10
  26   1    -0.08   0.11   0.00    -0.26   0.43  -0.02     0.05  -0.11   0.01
                     49                     50                     51
                        a                      a                      a 
 Frequencies --  1362.2573              1394.3171              1395.3552
 Red. masses --     9.0157                 9.7071                 2.6801
 Frc consts  --     0.0000                 0.0000                 0.0000
 IR Inten    --    45.2558                 3.4292                 9.1017
 Raman Activ --     0.0000                 0.0000                 0.0000
 Depolar     --     0.0000                 0.0000                 0.0000
 Atom AN      X      Y      Z        X      Y      Z        X      Y      Z
   1   6    -0.01  -0.01   0.03     0.04   0.01   0.01    -0.30  -0.11  -0.13
   2   7    -0.02  -0.01  -0.04     0.01   0.00   0.02    -0.04  -0.01  -0.08
   3   6     0.01   0.00  -0.01    -0.01  -0.00  -0.00     0.05   0.02   0.02
   4   8    -0.00  -0.00   0.01     0.01   0.00  -0.01    -0.05  -0.02   0.04
   5   8    -0.07  -0.04   0.06     0.02  -0.01  -0.01     0.01   0.00  -0.01
   6   6     0.21   0.21  -0.16     0.03  -0.10   0.02    -0.00  -0.02   0.01
   7   6    -0.02  -0.21   0.07     0.16   0.17  -0.12     0.01   0.02  -0.01
   8   6     0.02  -0.14   0.04    -0.28  -0.02   0.13    -0.03   0.01   0.01
   9   6    -0.16   0.34  -0.04     0.05  -0.08   0.00     0.01  -0.02   0.00
  10   6    -0.07  -0.06   0.05     0.40   0.19  -0.25     0.05   0.02  -0.03
  11   6    -0.10  -0.16   0.09    -0.37  -0.20   0.23    -0.04  -0.01   0.02
  12   6    -0.14   0.37  -0.05     0.02   0.02  -0.02     0.01  -0.01   0.00
  13   6     0.04  -0.09   0.01     0.20   0.06  -0.11     0.03   0.01  -0.01
  14   6    -0.07  -0.29   0.12    -0.17  -0.12   0.11    -0.02  -0.00   0.01
  15   6     0.12   0.16  -0.10    -0.03  -0.01   0.02    -0.01  -0.01   0.01
  16   1    -0.01  -0.00   0.00    -0.04  -0.01  -0.05     0.34   0.12   0.48
  17   1     0.03   0.02  -0.01    -0.06  -0.02  -0.00     0.48   0.12   0.03
  18   1     0.03   0.01  -0.01    -0.05  -0.02  -0.00     0.44   0.22   0.03
  19   1     0.03   0.01   0.07    -0.01  -0.00  -0.01    -0.02  -0.01  -0.03
  20   1     0.08   0.07  -0.06    -0.01  -0.04   0.02     0.00   0.00  -0.00
  21   1     0.21  -0.06  -0.07     0.06  -0.02  -0.02     0.00   0.00  -0.00
  22   1     0.11  -0.20   0.01     0.11  -0.20   0.01     0.01  -0.02   0.00
  23   1     0.10  -0.17   0.01    -0.11   0.22  -0.02    -0.02   0.03  -0.00
  24   1     0.24  -0.05  -0.09    -0.07   0.03   0.02    -0.02   0.01   0.01
  25   1     0.11   0.13  -0.09     0.01   0.07  -0.03    -0.00   0.00   0.00
  26   1     0.05   0.03  -0.03    -0.13   0.22  -0.01    -0.02   0.02  -0.00
                     52                     53                     54
                        a                      a                      a 
 Frequencies --  1410.3595              1418.6266              1447.9298
 Red. masses --     9.1734                 9.6027                 9.8894
 Frc consts  --     0.0000                 0.0000                 0.0000
 IR Inten    --   372.1884                12.8279                19.7784
 Raman Activ --     0.0000                 0.0000                 0.0000
 Depolar     --     0.0000                 0.0000                 0.0000
 Atom AN      X      Y      Z        X      Y      Z        X      Y      Z
   1   6     0.06   0.02   0.29     0.01   0.00   0.06     0.00   0.00   0.01
   2   7    -0.20  -0.06  -0.57    -0.04  -0.01  -0.12    -0.01  -0.00  -0.03
   3   6     0.24   0.08   0.29     0.05   0.02   0.07     0.02   0.01   0.03
   4   8    -0.12  -0.05   0.05    -0.02  -0.01   0.01    -0.01  -0.00  -0.00
   5   8    -0.02   0.00  -0.04    -0.00  -0.02  -0.00     0.05   0.02  -0.04
   6   6     0.01  -0.07   0.03    -0.19   0.26   0.00    -0.20  -0.12   0.13
   7   6    -0.04  -0.01   0.02     0.16  -0.04  -0.06     0.01   0.28  -0.09
   8   6     0.02   0.06  -0.03    -0.07  -0.17   0.08     0.20  -0.08  -0.06
   9   6     0.03  -0.08   0.01    -0.12   0.27  -0.03    -0.05  -0.18   0.08
  10   6     0.06   0.01  -0.03    -0.18  -0.00   0.09    -0.15   0.37  -0.05
  11   6    -0.05   0.03   0.01     0.19  -0.02  -0.08     0.17  -0.38   0.05
  12   6    -0.04   0.02   0.01     0.22  -0.29  -0.00     0.08   0.16  -0.09
  13   6     0.04  -0.04  -0.00    -0.10   0.21  -0.02    -0.25   0.10   0.08
  14   6     0.03   0.01  -0.02    -0.14   0.08   0.04     0.01  -0.25   0.08
  15   6    -0.06   0.05   0.01     0.22  -0.36   0.02     0.12   0.06  -0.07
  16   1    -0.11  -0.04  -0.10    -0.02  -0.01  -0.02     0.01   0.00   0.01
  17   1     0.05   0.14  -0.12     0.01   0.03  -0.03     0.01   0.01  -0.01
  18   1     0.13  -0.07  -0.12     0.03  -0.01  -0.03     0.01  -0.00  -0.01
  19   1     0.24   0.09   0.40     0.05   0.02   0.08     0.00  -0.00  -0.01
  20   1     0.01   0.04  -0.01    -0.03  -0.14   0.06    -0.11  -0.11   0.08
  21   1    -0.03   0.02   0.01     0.15  -0.06  -0.04    -0.20   0.00   0.09
  22   1    -0.02   0.04  -0.00     0.08  -0.15   0.01    -0.08   0.07   0.02
  23   1    -0.01   0.00   0.01    -0.05   0.14  -0.02     0.09  -0.07  -0.02
  24   1    -0.01  -0.01   0.01    -0.08   0.07   0.02     0.21   0.00  -0.10
  25   1    -0.02  -0.05   0.03     0.05   0.19  -0.08     0.11   0.11  -0.09
  26   1     0.01  -0.04   0.01    -0.10   0.19  -0.02     0.02   0.06  -0.03
                     55                     56                     57
                        a                      a                      a 
 Frequencies --  1463.2580              1483.1738              1504.9175
 Red. masses --     1.5517                 1.9803                10.7818
 Frc consts  --     0.0000                 0.0000                 0.0000
 IR Inten    --    11.5097                17.7398                10.2062
 Raman Activ --     0.0000                 0.0000                 0.0000
 Depolar     --     0.0000                 0.0000                 0.0000
 Atom AN      X      Y      Z        X      Y      Z        X      Y      Z
   1   6     0.08  -0.21  -0.00    -0.03  -0.02   0.17    -0.00  -0.00  -0.00
   2   7     0.01  -0.03  -0.00     0.04   0.01   0.19     0.01   0.00   0.02
   3   6     0.00  -0.00   0.00    -0.07  -0.02  -0.07    -0.01  -0.00  -0.03
   4   8     0.00  -0.00  -0.00     0.04   0.02  -0.03    -0.00  -0.00   0.00
   5   8    -0.00   0.00  -0.00     0.01   0.00   0.01    -0.01   0.01   0.01
   6   6    -0.00   0.00   0.00     0.00   0.00  -0.00     0.19  -0.04  -0.07
   7   6    -0.00   0.00   0.00     0.00   0.00  -0.00    -0.23  -0.17   0.16
   8   6     0.00  -0.00  -0.00    -0.01  -0.00   0.00     0.36   0.03  -0.17
   9   6    -0.00  -0.00   0.00     0.00   0.00  -0.00    -0.10  -0.14   0.09
  10   6    -0.00   0.00   0.00     0.00  -0.01   0.00    -0.15   0.27  -0.02
  11   6     0.00  -0.00  -0.00     0.00  -0.00   0.00    -0.13   0.26  -0.02
  12   6     0.00  -0.00  -0.00    -0.00   0.00  -0.00    -0.03  -0.20   0.08
  13   6     0.00   0.00  -0.00    -0.00  -0.00   0.00     0.30   0.09  -0.16
  14   6    -0.00  -0.00   0.00     0.00   0.00  -0.00    -0.25  -0.22   0.18
  15   6     0.00  -0.00  -0.00    -0.00   0.00   0.00     0.20  -0.06  -0.07
  16   1    -0.26   0.68   0.01     0.13   0.05   0.18     0.00  -0.00  -0.00
  17   1     0.37   0.22  -0.15    -0.16   0.35  -0.53    -0.01   0.00  -0.00
  18   1    -0.42  -0.07   0.16     0.10  -0.36  -0.53    -0.00  -0.00  -0.01
  19   1     0.00  -0.00   0.00    -0.06  -0.02  -0.09    -0.00  -0.00   0.00
  20   1    -0.00  -0.00   0.00    -0.00  -0.00   0.00     0.02   0.09  -0.04
  21   1    -0.00  -0.00   0.00     0.00  -0.00  -0.00    -0.12   0.03   0.05
  22   1    -0.00   0.00   0.00     0.00  -0.00  -0.00    -0.09   0.07   0.02
  23   1     0.00   0.00   0.00     0.00  -0.00   0.00    -0.09   0.10   0.01
  24   1     0.00   0.00  -0.00     0.00  -0.00  -0.00    -0.11   0.04   0.04
  25   1     0.00   0.00  -0.00    -0.00  -0.00   0.00     0.04   0.12  -0.06
  26   1    -0.00   0.00  -0.00     0.00  -0.00   0.00    -0.02   0.13  -0.03
                     58                     59                     60
                        a                      a                      a 
 Frequencies --  1562.7980              1597.0263              1609.0569
 Red. masses --    11.7172                11.4654                11.4114
 Frc consts  --     0.0000                 0.0000                 0.0000
 IR Inten    --    15.7651                 6.4736                 0.8199
 Raman Activ --     0.0000                 0.0000                 0.0000
 Depolar     --     0.0000                 0.0000                 0.0000
 Atom AN      X      Y      Z        X      Y      Z        X      Y      Z
   1   6    -0.00  -0.00  -0.00     0.00   0.00   0.00    -0.00   0.00  -0.00
   2   7     0.00   0.00   0.02    -0.00   0.00  -0.01     0.00   0.00   0.00
   3   6    -0.01  -0.00  -0.03     0.00   0.00   0.01    -0.00  -0.00  -0.00
   4   8    -0.00  -0.00   0.00    -0.00  -0.00  -0.00     0.00   0.00   0.00
   5   8     0.00  -0.01   0.01     0.01   0.02  -0.02     0.00  -0.00   0.00
   6   6     0.07   0.23  -0.11     0.09  -0.42   0.10    -0.03   0.02   0.00
   7   6    -0.17  -0.28   0.17    -0.01   0.36  -0.11    -0.01   0.00   0.00
   8   6     0.28   0.01  -0.13     0.35  -0.26  -0.08     0.03  -0.01  -0.01
   9   6    -0.16   0.01   0.07    -0.35   0.42   0.02    -0.00  -0.05   0.02
  10   6     0.29   0.16  -0.18     0.11  -0.20   0.02    -0.13   0.21  -0.01
  11   6    -0.27  -0.17   0.18    -0.14   0.14   0.02     0.07  -0.22   0.04
  12   6     0.22  -0.06  -0.08    -0.02   0.01   0.01    -0.30   0.39   0.01
  13   6    -0.35   0.03   0.15     0.03  -0.04   0.00     0.31  -0.24  -0.07
  14   6     0.18   0.24  -0.16     0.02   0.11  -0.04    -0.02   0.39  -0.12
  15   6    -0.07  -0.17   0.09    -0.02  -0.06   0.03     0.15  -0.47   0.08
  16   1    -0.00  -0.00  -0.00     0.00   0.00   0.00     0.00   0.00   0.00
  17   1    -0.00  -0.00  -0.00     0.00   0.00  -0.00    -0.00   0.00  -0.00
  18   1    -0.00  -0.00  -0.00     0.00   0.00   0.00     0.00  -0.00  -0.00
  19   1     0.00   0.00   0.01    -0.00  -0.00  -0.01    -0.00  -0.00  -0.00
  20   1     0.03   0.06  -0.03    -0.09  -0.05   0.06    -0.01  -0.00   0.00
  21   1    -0.05   0.01   0.02    -0.10  -0.05   0.06    -0.01  -0.00   0.01
  22   1    -0.02  -0.04   0.02     0.03  -0.12   0.03    -0.02   0.02   0.00
  23   1     0.02   0.06  -0.03    -0.01   0.01   0.00     0.02  -0.11   0.02
  24   1     0.07  -0.00  -0.03    -0.02  -0.01   0.01    -0.09  -0.05   0.06
  25   1    -0.02  -0.05   0.02    -0.03  -0.02   0.02    -0.09  -0.04   0.06
  26   1    -0.05   0.02   0.02    -0.01  -0.01   0.01    -0.08   0.09   0.01
                     61                     62                     63
                        a                      a                      a 
 Frequencies --  1787.3372              2968.9948              2984.9839
 Red. masses --    13.3221                 1.9603                 1.4341
 Frc consts  --     0.0000                 0.0000                 0.0000
 IR Inten    --   756.4893                31.0618                41.8747
 Raman Activ --     0.0000                 0.0000                 0.0000
 Depolar     --     0.0000                 0.0000                 0.0000
 Atom AN      X      Y      Z        X      Y      Z        X      Y      Z
   1   6    -0.01  -0.00   0.02    -0.10   0.27   0.01    -0.01   0.01  -0.19
   2   7     0.01   0.01  -0.16    -0.00   0.00   0.00    -0.01  -0.00  -0.02
   3   6    -0.56  -0.23   0.52    -0.00   0.00  -0.00    -0.00  -0.00   0.01
   4   8     0.44   0.18  -0.32     0.00  -0.00   0.00     0.00   0.00  -0.00
   5   8     0.01   0.00  -0.01     0.00  -0.00   0.00    -0.00  -0.00  -0.00
   6   6     0.03   0.01  -0.00    -0.00   0.00  -0.00     0.00   0.00  -0.00
   7   6    -0.01  -0.01   0.00     0.00  -0.00  -0.00    -0.00  -0.00   0.00
   8   6     0.00   0.00  -0.00     0.00  -0.00   0.00     0.00  -0.00   0.00
   9   6    -0.00  -0.00   0.00     0.00  -0.00  -0.00    -0.00  -0.00   0.00
  10   6     0.00   0.00  -0.00     0.00   0.00  -0.00    -0.00  -0.00   0.00
  11   6    -0.01   0.00   0.00    -0.00   0.00   0.00    -0.00  -0.00   0.00
  12   6    -0.00  -0.00   0.00    -0.00  -0.00   0.00    -0.00  -0.00   0.00
  13   6     0.00   0.00  -0.00     0.00  -0.00   0.00    -0.00   0.00  -0.00
  14   6    -0.00   0.00   0.00    -0.00  -0.00   0.00    -0.00   0.00   0.00
  15   6     0.00  -0.00   0.00    -0.00  -0.00   0.00    -0.00  -0.00   0.00
  16   1     0.01   0.00   0.02    -0.02   0.04   0.00     0.02   0.01  -0.04
  17   1     0.04   0.00   0.01     0.18  -0.53  -0.43    -0.17   0.53   0.36
  18   1     0.03   0.02   0.01     0.20  -0.47   0.39     0.24  -0.56   0.39
  19   1    -0.00   0.00  -0.02     0.00  -0.00  -0.00    -0.01  -0.00   0.00
  20   1     0.00   0.00   0.00    -0.00   0.00   0.00     0.00   0.00  -0.00
  21   1    -0.00   0.00   0.00    -0.00   0.00  -0.00    -0.00   0.00  -0.00
  22   1     0.00   0.00   0.00    -0.00  -0.00   0.00     0.00   0.00  -0.00
  23   1     0.00  -0.00   0.00     0.00   0.00  -0.00     0.00   0.00  -0.00
  24   1    -0.00  -0.00   0.00     0.00   0.00  -0.00     0.00  -0.00   0.00
  25   1     0.00   0.00  -0.00    -0.00  -0.00   0.00     0.00  -0.00  -0.00
  26   1    -0.00   0.00  -0.00     0.00   0.00  -0.00     0.00   0.00  -0.00
                     64                     65                     66
                        a                      a                      a 
 Frequencies --  3038.0680              3075.0437              3081.3244
 Red. masses --     1.7303                 1.7718                 1.7735
 Frc consts  --     0.0000                 0.0000                 0.0000
 IR Inten    --     2.5313                 2.8551                 0.3752
 Raman Activ --     0.0000                 0.0000                 0.0000
 Depolar     --     0.0000                 0.0000                 0.0000
 Atom AN      X      Y      Z        X      Y      Z        X      Y      Z
   1   6    -0.18  -0.07   0.17     0.00  -0.00   0.00     0.00   0.00  -0.00
   2   7    -0.00  -0.00  -0.00    -0.00  -0.00  -0.00     0.00   0.00  -0.00
   3   6     0.00   0.00  -0.00     0.00   0.00   0.00     0.00  -0.00  -0.00
   4   8    -0.00  -0.00   0.00    -0.00  -0.00   0.00    -0.00  -0.00   0.00
   5   8    -0.00  -0.00   0.00    -0.00   0.00  -0.00     0.00   0.00  -0.00
   6   6    -0.00  -0.00  -0.00    -0.00  -0.00   0.00     0.00  -0.00  -0.00
   7   6    -0.00   0.00  -0.00    -0.00   0.00   0.00     0.03  -0.02  -0.01
   8   6     0.00  -0.00   0.00     0.00  -0.02   0.01    -0.00   0.12  -0.04
   9   6    -0.00  -0.00   0.00     0.04   0.02  -0.03    -0.16  -0.07   0.10
  10   6     0.00  -0.00   0.00    -0.00  -0.01   0.00    -0.01   0.00   0.00
  11   6     0.00  -0.00   0.00    -0.00   0.00  -0.00     0.00  -0.00   0.00
  12   6     0.00   0.00  -0.00    -0.01  -0.00   0.00    -0.02  -0.01   0.01
  13   6    -0.00   0.00  -0.00     0.00   0.04  -0.01    -0.00   0.06  -0.02
  14   6    -0.00   0.00   0.00     0.11  -0.08  -0.02     0.06  -0.04  -0.01
  15   6    -0.00  -0.00   0.00    -0.16  -0.09   0.10     0.00   0.00  -0.00
  16   1     0.70   0.27  -0.61    -0.00  -0.00   0.00    -0.00  -0.00   0.00
  17   1    -0.02  -0.02   0.02     0.00  -0.00  -0.00     0.00  -0.00  -0.00
  18   1    -0.02   0.00   0.01    -0.00   0.00  -0.00    -0.00   0.00  -0.00
  19   1    -0.01  -0.01   0.01     0.00   0.00   0.00    -0.00  -0.00   0.00
  20   1     0.00  -0.00  -0.00     0.01  -0.01  -0.00    -0.12   0.09   0.03
  21   1     0.00   0.00  -0.00    -0.00   0.07  -0.02     0.01  -0.46   0.14
  22   1     0.00   0.00  -0.00    -0.15  -0.07   0.09     0.58   0.28  -0.35
  23   1    -0.00  -0.00   0.00     0.03   0.01  -0.02     0.08   0.04  -0.05
  24   1     0.00  -0.00   0.00     0.00  -0.16   0.05     0.01  -0.23   0.07
  25   1     0.00  -0.00  -0.00    -0.42   0.30   0.09    -0.22   0.16   0.05
  26   1     0.00   0.00  -0.00     0.60   0.30  -0.36    -0.01  -0.00   0.00
                     67                     68                     69
                        a                      a                      a 
 Frequencies --  3083.8489              3090.4764              3091.2712
 Red. masses --     1.7952                 1.8376                 1.8481
 Frc consts  --     0.0000                 0.0000                 0.0000
 IR Inten    --    18.9878                14.9402                69.7618
 Raman Activ --     0.0000                 0.0000                 0.0000
 Depolar     --     0.0000                 0.0000                 0.0000
 Atom AN      X      Y      Z        X      Y      Z        X      Y      Z
   1   6     0.00  -0.00   0.00    -0.00   0.00   0.00     0.00   0.00   0.00
   2   7     0.00   0.00  -0.00    -0.00  -0.00   0.00    -0.00  -0.00   0.00
   3   6    -0.00  -0.00   0.00    -0.00   0.00  -0.00     0.00   0.00  -0.00
   4   8     0.00   0.00  -0.00     0.00  -0.00   0.00    -0.00  -0.00   0.00
   5   8    -0.00  -0.00   0.00     0.00  -0.00   0.00     0.00   0.00  -0.00
   6   6     0.00  -0.00  -0.00    -0.00  -0.00   0.00    -0.00  -0.00   0.00
   7   6     0.02  -0.01  -0.01    -0.11   0.08   0.03    -0.10   0.07   0.02
   8   6    -0.00   0.06  -0.02     0.00  -0.11   0.03     0.00  -0.07   0.02
   9   6    -0.05  -0.02   0.03    -0.08  -0.04   0.05    -0.08  -0.04   0.05
  10   6    -0.00  -0.00   0.00    -0.00   0.00   0.00    -0.00  -0.00   0.00
  11   6     0.00   0.00  -0.00     0.00  -0.00  -0.00    -0.00   0.00   0.00
  12   6     0.07   0.03  -0.04     0.08   0.04  -0.05    -0.09  -0.04   0.06
  13   6     0.01  -0.17   0.05     0.00  -0.06   0.02    -0.00   0.05  -0.02
  14   6    -0.07   0.05   0.02     0.09  -0.07  -0.02    -0.11   0.08   0.02
  15   6    -0.10  -0.05   0.06     0.04   0.02  -0.03    -0.07  -0.04   0.05
  16   1     0.00   0.00  -0.00    -0.00   0.00  -0.00    -0.00  -0.00   0.00
  17   1     0.00   0.00   0.00     0.00  -0.00  -0.00     0.00  -0.00  -0.00
  18   1    -0.00   0.00  -0.00     0.00  -0.00   0.00    -0.00   0.00  -0.00
  19   1    -0.00  -0.00   0.00     0.00   0.00  -0.00     0.00   0.00  -0.00
  20   1    -0.08   0.05   0.02     0.40  -0.29  -0.09     0.37  -0.26  -0.08
  21   1     0.01  -0.21   0.06    -0.01   0.39  -0.12    -0.01   0.25  -0.07
  22   1     0.17   0.08  -0.10     0.27   0.13  -0.16     0.26   0.13  -0.16
  23   1    -0.27  -0.13   0.16    -0.29  -0.14   0.18     0.34   0.16  -0.21
  24   1    -0.02   0.62  -0.19    -0.01   0.21  -0.06     0.01  -0.17   0.05
  25   1     0.24  -0.17  -0.05    -0.32   0.23   0.07     0.38  -0.27  -0.08
  26   1     0.35   0.17  -0.21    -0.14  -0.07   0.08     0.25   0.12  -0.15
                     70                     71                     72
                        a                      a                      a 
 Frequencies --  3098.9437              3099.9750              3445.5123
 Red. masses --     1.9029                 1.9022                 1.8332
 Frc consts  --     0.0000                 0.0000                 0.0000
 IR Inten    --    57.2336                 7.7106                 4.9984
 Raman Activ --     0.0000                 0.0000                 0.0000
 Depolar     --     0.0000                 0.0000                 0.0000
 Atom AN      X      Y      Z        X      Y      Z        X      Y      Z
   1   6     0.00  -0.00   0.00     0.00  -0.00   0.00    -0.00  -0.00   0.00
   2   7    -0.00   0.00   0.00     0.00   0.00  -0.00    -0.21  -0.08   0.12
   3   6     0.00  -0.00  -0.00     0.00  -0.00   0.00    -0.01  -0.00   0.01
   4   8    -0.00   0.00  -0.00    -0.00  -0.00   0.00     0.00   0.00  -0.00
   5   8     0.00   0.00  -0.00    -0.00  -0.00   0.00    -0.00  -0.00  -0.00
   6   6     0.00   0.00  -0.00     0.01   0.00  -0.00     0.00   0.00  -0.00
   7   6     0.07  -0.05  -0.01     0.14  -0.10  -0.03     0.00  -0.00   0.00
   8   6     0.00  -0.08   0.02     0.01  -0.17   0.05     0.00  -0.00  -0.00
   9   6    -0.03  -0.01   0.02    -0.07  -0.03   0.04    -0.00  -0.00   0.00
  10   6     0.00   0.00  -0.00    -0.00   0.00   0.00    -0.00   0.00  -0.00
  11   6    -0.00   0.00   0.00     0.00  -0.00  -0.00    -0.00   0.00  -0.00
  12   6    -0.15  -0.07   0.09     0.06   0.03  -0.04     0.00   0.00  -0.00
  13   6     0.01  -0.15   0.05    -0.00   0.07  -0.02    -0.00   0.00  -0.00
  14   6     0.06  -0.05  -0.01    -0.04   0.03   0.01    -0.00  -0.00   0.00
  15   6     0.02   0.01  -0.01    -0.02  -0.01   0.01    -0.00   0.00   0.00
  16   1     0.00   0.00  -0.00    -0.00  -0.00   0.00     0.01   0.00  -0.01
  17   1    -0.00   0.00   0.00     0.00  -0.00  -0.00    -0.00   0.00   0.00
  18   1    -0.00   0.00  -0.00    -0.00   0.00  -0.00     0.00  -0.00   0.00
  19   1     0.00  -0.00  -0.00    -0.00  -0.00   0.00     0.79   0.29  -0.47
  20   1    -0.23   0.16   0.05    -0.47   0.34   0.11    -0.00   0.00   0.00
  21   1    -0.01   0.25  -0.08    -0.02   0.55  -0.17    -0.00  -0.00   0.00
  22   1     0.08   0.04  -0.05     0.21   0.10  -0.13    -0.00   0.00   0.00
  23   1     0.50   0.24  -0.31    -0.21  -0.10   0.13    -0.00  -0.00   0.00
  24   1    -0.01   0.50  -0.15     0.01  -0.24   0.07    -0.00  -0.00   0.00
  25   1    -0.21   0.15   0.05     0.12  -0.09  -0.03    -0.00  -0.00   0.00
  26   1    -0.07  -0.03   0.04     0.07   0.03  -0.04    -0.00  -0.00   0.00
