16
 energy: -19.861368769989 gnorm: 0.025323447150 xtb: 6.7.1 (edcfbbe)
C            1.15070020486671       -1.35126889906833       -0.50844251480244
C            0.69627985233885       -0.21369073559255        0.42493198354440
C            1.65418037284336        0.96948680868849        0.37189426544678
C           -0.72132910231831        0.18871541682394        0.04132049959051
O           -0.96737417602346        1.24446195599226       -0.50481001542922
C           -1.83240723347746       -0.79908536341224        0.34953599748221
H            0.47024735016449       -2.20746553854880       -0.48256104301859
H            1.20779845922287       -0.98940193929877       -1.54018172698754
H            2.14481101172149       -1.70142164777615       -0.21578516190850
H            0.64877499690743       -0.61615596641993        1.44789577655007
H            1.31817131584618        1.77815510882282        1.02571520950836
H            1.70779007419568        1.37099027060064       -0.64344815523152
H            2.65767625387346        0.66191978028925        0.68050808641670
H           -1.48198436758208       -1.70299034672543        0.85173503810707
H           -2.34001521968428       -1.06993359252364       -0.58094462497323
H           -2.57064284735759       -0.29652111088719        0.98186221364864
16
 energy: -19.862046514059 gnorm: 0.006832165362 xtb: 6.7.1 (edcfbbe)
C            1.15168242788025       -1.34556959202338       -0.50895458456807
C            0.68637447074436       -0.22364707713049        0.42843219849931
C            1.64497279066526        0.95765420410751        0.36968387079363
C           -0.72027747161505        0.19301309829444        0.02929691183395
O           -0.96006487666016        1.24522848884354       -0.51034053851588
C           -1.82145246448900       -0.79280722921409        0.34946704705323
H            0.47122711684441       -2.19436066213368       -0.47793330621882
H            1.20415609064913       -0.98184334369470       -1.53458844149591
H            2.14267087063418       -1.68876419937317       -0.21484543169799
H            0.64315650521110       -0.61819191107274        1.45200895749319
H            1.30591225573431        1.75714010975414        1.02601353678072
H            1.69382231941653        1.35510715113559       -0.64277171068430
H            2.64471812635337        0.65345050134915        0.67605364482358
H           -1.45975225308423       -1.68637985573619        0.85108469464565
H           -2.32771064351280       -1.06914465959928       -0.57482774581060
H           -2.55675831923430       -0.29509082254228        0.98144672501204
16
 energy: -19.862109322493 gnorm: 0.001670136665 xtb: 6.7.1 (edcfbbe)
C            1.14700076494781       -1.34638717989426       -0.50876009612476
C            0.68368941379352       -0.22555070630377        0.42827920967195
C            1.64425556370361        0.95625423842084        0.37198692794397
C           -0.72047187810547        0.19861131663262        0.02874519840951
O           -0.95500741085444        1.24507790470113       -0.51898664409709
C           -1.81635989643705       -0.79127533343891        0.34890185942770
H            0.46968530191680       -2.19581456959669       -0.47786053063762
H            1.19604787044121       -0.97923522890090       -1.53111422444254
H            2.13845550189466       -1.68469354374887       -0.21723618451937
H            0.63994298282531       -0.61659619508461        1.45124025715946
H            1.30573617978493        1.75204936383785        1.03091107528163
H            1.68747165721441        1.35234900310773       -0.63927958398809
H            2.64306966307049        0.65099503051572        0.67405317763225
H           -1.44663461018552       -1.67758756016156        0.85387567513784
H           -2.31962193842454       -1.07516873393551       -0.57329649701661
H           -2.55458222004839       -0.29723360518643        0.97776620810548
16
 energy: -19.862122760420 gnorm: 0.001403818716 xtb: 6.7.1 (edcfbbe)
C            1.14516551116451       -1.34543421774259       -0.50950246706766
C            0.68250706931052       -0.22567362749373        0.42886294690971
C            1.64573949405180        0.95612912373897        0.37486064934091
C           -0.72041028308761        0.19782766648849        0.02099383195491
O           -0.95174893258248        1.24322399647153       -0.52988246699847
C           -1.81573555539209       -0.79062312057132        0.34980674513428
H            0.47025934683768       -2.19671481382018       -0.47718825245023
H            1.19013762230553       -0.97751762899779       -1.53174002003125
H            2.13800748554303       -1.68127826101862       -0.22048672119559
H            0.63499653999687       -0.61658890971800        1.45117136946637
H            1.30837759015782        1.74880640022630        1.03775420684302
H            1.68544040089487        1.35513371061408       -0.63517457521629
H            2.64460649380977        0.64841504040669        0.67334821246218
H           -1.44067718521016       -1.67166333399770        0.85967764667072
H           -2.31887835183800       -1.08243169603738       -0.56995834305569
H           -2.55511030042473       -0.29581612758437        0.97668306517677
16
 energy: -19.862133092960 gnorm: 0.001127995515 xtb: 6.7.1 (edcfbbe)
C            1.14487539542503       -1.34416442534962       -0.51042535394782
C            0.68207591069639       -0.22528822643517        0.42960940654930
C            1.64660974192422        0.95600858391122        0.37714032560123
C           -0.72091494498713        0.19815616246953        0.01964540391371
O           -0.94965248693421        1.23916216042999       -0.54145388811436
C           -1.81631848876676       -0.79012580144431        0.35066506967941
H            0.47200228061715       -2.19740924645557       -0.47482237054876
H            1.18421034635525       -0.97684036723169       -1.53366288900835
H            2.14006960656093       -1.67831910675805       -0.22595884420506
H            0.63291530814525       -0.61682451196388        1.45157036545453
H            1.31274098161763        1.74544865983386        1.04599308540979
H            1.68289725202551        1.36058558742720       -0.63111156374851
H            2.64613755984030        0.64471483041603        0.67048538534502
H           -1.44001145083869       -1.66666863861499        0.86781663231414
H           -2.31634234014552       -1.09008204338169       -0.56857265274218
H           -2.55861772599800       -0.29255941588848        0.97230771599163
16
 energy: -19.862143480109 gnorm: 0.000936712556 xtb: 6.7.1 (edcfbbe)
C            1.14558546365096       -1.34327322382700       -0.51213476421863
C            0.68237555704917       -0.22552864750533        0.42927110769425
C            1.64596644481935        0.95594692455401        0.38089780927679
C           -0.72019216947777        0.19574941760259        0.01531945132188
O           -0.94711082182083        1.23123395930807       -0.55672660973715
C           -1.81723706809594       -0.78851676677651        0.35261939602085
H            0.47618112084573       -2.19948002137104       -0.47231441021326
H            1.17816218530072       -0.97655748698280       -1.53606912777406
H            2.14390882636394       -1.67323542500891       -0.23279691413014
H            0.63222301746492       -0.61930170116571        1.45041766126848
H            1.31763041041100        1.74095623770504        1.05814007639826
H            1.67739303993631        1.36869893521882       -0.62439581498492
H            2.64709310908389        0.64123037069223        0.66594241436505
H           -1.44370437252302       -1.66032978307101        0.88001324084566
H           -2.31395977524575       -1.09764703446664       -0.56544001561405
H           -2.56163802222534       -0.28415155394144        0.96648232742468
16
 energy: -19.862150860875 gnorm: 0.000593474621 xtb: 6.7.1 (edcfbbe)
C            1.14742312220179       -1.34197970453399       -0.51457941900663
C            0.68232769895284       -0.22712062166630        0.42932822980917
C            1.64470857711170        0.95467639088298        0.38473410534011
C           -0.71878538567866        0.19254796266185        0.01025922067928
O           -0.94348282933676        1.22135902957965       -0.57439090622839
C           -1.81812112281186       -0.78584257786853        0.35548799886263
H            0.48218050678544       -2.20093501654276       -0.47110667599236
H            1.17371421492300       -0.97545074179536       -1.53849259106725
H            2.14835093537038       -1.66681283084898       -0.23955928342959
H            0.63097224141039       -0.62386198045076        1.44925576857737
H            1.32112036042181        1.73292997083872        1.07188825803939
H            1.66849404010006        1.37724816214516       -0.61670110647601
H            2.64840865512699        0.63876259095990        0.65941328917336
H           -1.44912168008653       -1.65186829145608        0.89556946482847
H           -2.31092646023322       -1.10552914632180       -0.56093931836017
H           -2.56458592872003       -0.27232899461933        0.95905879319431
16
 energy: -19.862152530114 gnorm: 0.000232739192 xtb: 6.7.1 (edcfbbe)
C            1.14861821012729       -1.34244418205086       -0.51564664558242
C            0.68268425797397       -0.22826200423796        0.42888149022749
C            1.64377090595760        0.95473531878546        0.38612565932511
C           -0.71782769420383        0.19100922120293        0.00841809105517
O           -0.94171265303627        1.21792740309936       -0.57960000096202
C           -1.81870603131606       -0.78443096452350        0.35686157489238
H            0.48428670944865       -2.20206465668020       -0.47288578969153
H            1.17454491424845       -0.97477594763321       -1.53902183652839
H            2.14983898031123       -1.66602367435490       -0.24063900363594
H            0.63100512505344       -0.62619914602890        1.44822537017709
H            1.32120364075522        1.73054575837447        1.07634775282202
H            1.66425075980554        1.37994748268454       -0.61406445313394
H            2.64844702506010        0.63923827819777        0.65703630748826
H           -1.45167084474894       -1.64838047129016        0.90125172076647
H           -2.31051907106516       -1.10765375188807       -0.55876380229988
H           -2.56553728883390       -0.26737446269241        0.95669939302383
16
 energy: -19.862153165691 gnorm: 0.000136869904 xtb: 6.7.1 (edcfbbe)
C            1.14947624610469       -1.34233373458167       -0.51627110349737
C            0.68265694269606       -0.22888508702630        0.42872546977618
C            1.64339227878971        0.95454989709025        0.38647411640000
C           -0.71761861763752        0.19029474200256        0.00760097627187
O           -0.94103136122092        1.21643069593621       -0.58199126549234
C           -1.81912299596814       -0.78384440252305        0.35776891468662
H            0.48468173141537       -2.20162390585671       -0.47486496032366
H            1.17682274139462       -0.97392020432506       -1.53931453629316
H            2.15015802616411       -1.66649436857825       -0.24017162803488
H            0.63094095538536       -0.62736016757784        1.44782781411604
H            1.32095168626859        1.72899909750929        1.07820168629398
H            1.66215638431534        1.38114620159585       -0.61311345119198
H            2.64853930998602        0.63935924223705        0.65574975583192
H           -1.45285384066831       -1.64659493490690        0.90453507394302
H           -2.31027519002148       -1.10904105653245       -0.55750623601839
H           -2.56619735146615       -0.26488781349861        0.95557520147584
16
 energy: -19.862153800753 gnorm: 0.000179256689 xtb: 6.7.1 (edcfbbe)
C            1.15021533560605       -1.34224155210354       -0.51699094024799
C            0.68262598080702       -0.22942883800314        0.42832988681423
C            1.64296902040830        0.95451908643366        0.38677015567066
C           -0.71755085135735        0.18967216488568        0.00679562159880
O           -0.94052733236171        1.21488046798883       -0.58460519690152
C           -1.81944297627502       -0.78334167215652        0.35890237432693
H            0.48394199999784       -2.20052912135922       -0.47853633240208
H            1.18088894591827       -0.97245913741626       -1.53943358431488
H            2.14962458896515       -1.66833202288097       -0.23859582897255
H            0.63077523264995       -0.62837121185109        1.44719894277164
H            1.32082866215736        1.72764365766751        1.08008293650675
H            1.66021009502922        1.38259812494164       -0.61217004233475
H            2.64851601192808        0.63940097514625        0.65441748398649
H           -1.45361019133944       -1.64443323193390        0.90856113934339
H           -2.30975445810526       -1.11129223954591       -0.55586199603533
H           -2.56703311849112       -0.26249124884865        0.95436120813391
16
 energy: -19.862154227677 gnorm: 0.000133028571 xtb: 6.7.1 (edcfbbe)
C            1.15089828874886       -1.34195958787516       -0.51781616558654
C            0.68258584685716       -0.22970288702487        0.42778178762866
C            1.64262000560416        0.95452618306956        0.38717742290645
C           -0.71763282092428        0.18898606779820        0.00573145739082
O           -0.94036349947830        1.21295644800989       -0.58791580508447
C           -1.81971839791571       -0.78295413329811        0.36024178570976
H            0.48227670840176       -2.19865926891484       -0.48322901734348
H            1.18602533209670       -0.97041278723819       -1.53953414805489
H            2.14855647541098       -1.67114487260465       -0.23653208323522
H            0.63048593615753       -0.62909572460514        1.44645318458585
H            1.32112822054530        1.72635846582843        1.08225907949126
H            1.65855410337136        1.38435458413496       -0.61104865772925
H            2.64856111672519        0.63911567904257        0.65308330718028
H           -1.45419759309898       -1.64192380395779        0.91344943374114
H           -2.30895132919901       -1.11453245639729       -0.55380465012765
H           -2.56815144776537       -0.26011770500322        0.95292889647099
16
 energy: -19.862154305243 gnorm: 0.000057493497 xtb: 6.7.1 (edcfbbe)
C            1.15073088945523       -1.34185213967855       -0.51791142028584
C            0.68257076169175       -0.22958781507611        0.42772888456676
C            1.64260273505147        0.95457831791730        0.38719826419213
C           -0.71770176978262        0.18901079071489        0.00564971777012
O           -0.94049573519482        1.21271206820417       -0.58841130994600
C           -1.81958066001641       -0.78304517844421        0.36041360695013
H            0.48142059930931       -2.19804861041330       -0.48423795922401
H            1.18698002767254       -0.96991297499538       -1.53943651859445
H            2.14790321952442       -1.67195577813328       -0.23600091203761
H            0.63039454886832       -0.62899941232343        1.44639861779777
H            1.32137372168733        1.72640628672507        1.08241927848899
H            1.65870211662473        1.38459922864889       -0.61095819746048
H            2.64850505357472        0.63894232944578        0.65303052292625
H           -1.45390082660731       -1.64157483470781        0.91418152007936
H           -2.30852052070787       -1.11532316398084       -0.55351155517153
H           -2.56830721561345       -0.26015491293882        0.95267328789210
