      -----------------------------------------------------------      
     |                   =====================                   |     
     |                           x T B                           |     
     |                   =====================                   |     
     |                         S. Grimme                         |     
     |          Mulliken Center for Theoretical Chemistry        |     
     |                    University of Bonn                     |     
      -----------------------------------------------------------      

   * xtb version 6.7.1 (edcfbbe) compiled by 'albert@albert-system' on 2024-07-22

   xtb is free software: you can redistribute it and/or modify it under
   the terms of the GNU Lesser General Public License as published by
   the Free Software Foundation, either version 3 of the License, or
   (at your option) any later version.
   
   xtb is distributed in the hope that it will be useful,
   but WITHOUT ANY WARRANTY; without even the implied warranty of
   MERCHANTABILITY or FITNESS FOR A PARTICULAR PURPOSE.  See the
   GNU Lesser General Public License for more details.
   
   Cite this work as:
   * C. Bannwarth, E. Caldeweyher, S. Ehlert, A. Hansen, P. Pracht,
     J. Seibert, S. Spicher, S. Grimme, WIREs Comput. Mol. Sci., 2020, 11,
     e01493. DOI: 10.1002/wcms.1493
   
   for GFN2-xTB:
   * C. Bannwarth, S. Ehlert and S. Grimme., J. Chem. Theory Comput., 2019,
     15, 1652-1671. DOI: 10.1021/acs.jctc.8b01176
   for GFN1-xTB:
   * S. Grimme, C. Bannwarth, P. Shushkov, J. Chem. Theory Comput., 2017,
     13, 1989-2009. DOI: 10.1021/acs.jctc.7b00118
   for GFN0-xTB:
   * P. Pracht, E. Caldeweyher, S. Ehlert, S. Grimme, ChemRxiv, 2019, preprint.
     DOI: 10.26434/chemrxiv.8326202.v1
   for GFN-FF:
   * S. Spicher and S. Grimme, Angew. Chem. Int. Ed., 2020, 59, 15665-15673.
     DOI: 10.1002/anie.202004239
   
   for ALPB and GBSA implicit solvation:
   * S. Ehlert, M. Stahn, S. Spicher, S. Grimme, J. Chem. Theory Comput.,
     2021, 17, 4250-4261. DOI: 10.1021/acs.jctc.1c00471
   
   for ddCOSMO and CPCM-X implicit solvation:
   * M. Stahn, S. Ehlert, S. Grimme, J. Phys. Chem. A,
     2023, XX, XXXX-XXXX. DOI: 10.1021/acs.jpca.3c04382
   
   for DFT-D4:
   * E. Caldeweyher, C. Bannwarth and S. Grimme, J. Chem. Phys., 2017,
     147, 034112. DOI: 10.1063/1.4993215
   * E. Caldeweyher, S. Ehlert, A. Hansen, H. Neugebauer, S. Spicher,
     C. Bannwarth and S. Grimme, J. Chem. Phys., 2019, 150, 154122.
     DOI: 10.1063/1.5090222
   * E. Caldeweyher, J.-M. Mewes, S. Ehlert and S. Grimme, Phys. Chem. Chem. Phys.
     2020, 22, 8499-8512. DOI: 10.1039/D0CP00502A
   
   for sTDA-xTB:
   * S. Grimme and C. Bannwarth, J. Chem. Phys., 2016, 145, 054103.
     DOI: 10.1063/1.4959605
   
   in the mass-spec context:
   * V. Asgeirsson, C. Bauer and S. Grimme, Chem. Sci., 2017, 8, 4879.
     DOI: 10.1039/c7sc00601b
   * J. Koopman and S. Grimme, ACS Omega 2019, 4, 12, 15120-15133.
     DOI: 10.1021/acsomega.9b02011
   
   for metadynamics refer to:
   * S. Grimme, J. Chem. Theory Comput., 2019, 155, 2847-2862
     DOI: 10.1021/acs.jctc.9b00143
   
   for SPH calculations refer to:
   * S. Spicher and S. Grimme, J. Chem. Theory Comput., 2021, 17, 1701-1714
     DOI: 10.1021/acs.jctc.0c01306
   
   for ONIOM refer to:
   * C. Plett, A. Katbashev, S. Ehlert, S. Grimme, M. Bursch,
     Phys. Chem. Chem. Phys., 2023, 25, 17860-17868. DOI: 10.1039/D3CP02178E
   
   for DIPRO refer to:
   * J. Kohn, N. Gildemeister, S. Grimme, D. Fazzi, A. Hansen,
     J. Chem. Phys., 2023, just accepted.
   
   for PTB refer to:
   * S. Grimme, M. Mueller, A. Hansen, J. Chem. Phys., 2023, 158, 124111.
     DOI: 10.1063/5.0137838
   
   with help from (in alphabetical order)
   P. Atkinson, C. Bannwarth, F. Bohle, G. Brandenburg, E. Caldeweyher
   M. Checinski, S. Dohm, S. Ehlert, S. Ehrlich, I. Gerasimov, C. Hölzer
   A. Katbashev, J. Kohn, J. Koopman, C. Lavigne, S. Lehtola, F. März, M. Müller,
   F. Musil, H. Neugebauer, J. Pisarek, C. Plett, P. Pracht, F. Pultar,
   J. Seibert, P. Shushkov, S. Spicher, M. Stahn, M. Steiner, T. Strunk,
   J. Stückrath, T. Rose, and J. Unsleber
   
 * started run on 2025/04/16 at 09:48:54.859     
   ID    Z sym.   atoms
    1    6 C      1, 2, 4-6, 8, 10, 12-14
    2    1 H      3, 7, 9, 15-31
    3    8 O      11

           -------------------------------------------------
          |                Calculation Setup                |
           -------------------------------------------------

          program call               : /software/projects/pawsey0265/mwang1/xtb/bin/xtb xtb_rrho.coord --gfn2 --bhess vtight --chrg 0 --enso --norestart -I rrho-xcontrol-inp --parallel 1
          hostname                   : nid002820
          coordinate file            : xtb_rrho.coord
          omp threads                :                     1


           -------------------------------------------------
          |                 G F N 2 - x T B                 |
           -------------------------------------------------

        Reference                      10.1021/acs.jctc.8b01176
      * Hamiltonian:
        H0-scaling (s, p, d)           1.850000    2.230000    2.230000
        zeta-weighting                 0.500000
      * Dispersion:
        s8                             2.700000
        a1                             0.520000
        a2                             5.000000
        s9                             5.000000
      * Repulsion:
        kExp                           1.500000    1.000000
        rExp                           1.000000
      * Coulomb:
        alpha                          2.000000
        third order                    shell-resolved
        anisotropic                    true
        a3                             3.000000
        a5                             4.000000
        cn-shift                       1.200000
        cn-exp                         4.000000
        max-rad                        5.000000


          ...................................................
          :                      SETUP                      :
          :.................................................:
          :  # basis functions                  64          :
          :  # atomic orbitals                  64          :
          :  # shells                           42          :
          :  # electrons                        66          :
          :  max. iterations                   250          :
          :  Hamiltonian                  GFN2-xTB          :
          :  restarted?                      false          :
          :  GBSA solvation                  false          :
          :  PC potential                    false          :
          :  electronic temp.          300.0000000     K    :
          :  accuracy                    1.0000000          :
          :  -> integral cutoff          0.2500000E+02      :
          :  -> integral neglect         0.1000000E-07      :
          :  -> SCF convergence          0.1000000E-05 Eh   :
          :  -> wf. convergence          0.1000000E-03 e    :
          :  Broyden damping             0.4000000          :
          :  net charge                          0          :
          :  unpaired electrons                  0          :
          ...................................................

 iter      E             dE          RMSdq      gap      omega  full diag
   1    -36.0889105 -0.360889E+02  0.274E+00   11.29       0.0  T
   2    -36.1586483 -0.697378E-01  0.152E+00   11.05       1.0  T
   3    -36.1599522 -0.130389E-02  0.722E-01   11.13       1.0  T
   4    -36.1602844 -0.332250E-03  0.140E-01   11.13       1.0  T
   5    -36.1604699 -0.185407E-03  0.616E-02   11.14       1.0  T
   6    -36.1604713 -0.147282E-05  0.104E-02   11.14       1.7  T
   7    -36.1604722 -0.874359E-06  0.388E-03   11.15       4.6  T
   8    -36.1604722 -0.406337E-07  0.130E-03   11.15      13.8  T
   9    -36.1604722 -0.694673E-08  0.494E-04   11.15      36.3  T
  10    -36.1604722 -0.554920E-09  0.130E-04   11.15     138.2  T

   *** convergence criteria satisfied after 10 iterations ***

         #    Occupation            Energy/Eh            Energy/eV
      -------------------------------------------------------------
         1        2.0000           -0.6766235             -18.4119
       ...           ...                  ...                  ...
        27        2.0000           -0.4409365             -11.9985
        28        2.0000           -0.4301837             -11.7059
        29        2.0000           -0.4235843             -11.5263
        30        2.0000           -0.4185812             -11.3902
        31        2.0000           -0.4177297             -11.3670
        32        2.0000           -0.4126188             -11.2279
        33        2.0000           -0.3938892             -10.7183 (HOMO)
        34                          0.0157171               0.4277 (LUMO)
        35                          0.0314558               0.8560
        36                          0.0599248               1.6306
        37                          0.0775637               2.1106
        38                          0.0832293               2.2648
       ...                                ...                  ...
        64                          0.3180953               8.6558
      -------------------------------------------------------------
                  HL-Gap            0.4096063 Eh           11.1460 eV
             Fermi-level           -0.1890861 Eh           -5.1453 eV

 SCC (total)                   0 d,  0 h,  0 min,  0.069 sec
 SCC setup                      ...        0 min,  0.000 sec (  0.400%)
 Dispersion                     ...        0 min,  0.000 sec (  0.383%)
 classical contributions        ...        0 min,  0.000 sec (  0.094%)
 integral evaluation            ...        0 min,  0.003 sec (  4.560%)
 iterations                     ...        0 min,  0.051 sec ( 73.524%)
 molecular gradient             ...        0 min,  0.014 sec ( 20.714%)
 printout                       ...        0 min,  0.000 sec (  0.265%)

         :::::::::::::::::::::::::::::::::::::::::::::::::::::
         ::                     SUMMARY                     ::
         :::::::::::::::::::::::::::::::::::::::::::::::::::::
         :: total energy             -35.704677067730 Eh    ::
         :: gradient norm              0.029822957179 Eh/a0 ::
         :: HOMO-LUMO gap             11.145953471192 eV    ::
         ::.................................................::
         :: SCC energy               -36.160278715365 Eh    ::
         :: -> isotropic ES            0.030496077451 Eh    ::
         :: -> anisotropic ES          0.008566313350 Eh    ::
         :: -> anisotropic XC          0.015516306061 Eh    ::
         :: -> dispersion             -0.024529225820 Eh    ::
         :: repulsion energy           0.455601647635 Eh    ::
         :: add. restraining           0.000000000000 Eh    ::
         :: total charge               0.000000000000 e     ::
         :::::::::::::::::::::::::::::::::::::::::::::::::::::

metadynamics with 1 initial structures loaded
           -------------------------------------------------
          |           Optimal kpush determination           |
           -------------------------------------------------
      ----------------------------------------------------------- 
     |                   =====================                   |
     |                        A N C O P T                        |
     |                   =====================                   |
     |               Approximate Normal Coordinate               |
     |                Rational Function Optimizer                |
      ----------------------------------------------------------- 
target rmsd / Å         0.100000
unbiased initial rmsd   0.026705
 
iter. min.        max.        rmsd       kpush
final kpush:  0.000000
           -------------------------------------------------
          |            Biased Numerical Hessian             |
           -------------------------------------------------
kpush                :   0.00000
alpha                :   1.00000
step length          :   0.00500
SCC accuracy         :   0.30000
Hessian scale factor :   1.00000
frozen atoms in %    :   0.00000    0
RMS gradient         :   0.00003
estimated CPU  time      0.08 min
estimated wall time      0.08 min

writing file <hessian>.

 projected vibrational frequencies (cm⁻¹)
eigval :       -0.00     0.00     0.00     0.00     0.00     0.00
eigval :       68.44    79.54   150.30   179.81   210.87   219.78
eigval :      228.42   262.26   285.66   298.28   324.07   349.19
eigval :      383.04   394.54   426.92   452.38   459.64   505.05
eigval :      532.70   570.10   813.75   867.51   887.84   926.33
eigval :      948.44   950.89   957.03   983.13   987.57  1013.82
eigval :     1037.61  1059.00  1080.07  1084.77  1103.13  1127.47
eigval :     1131.94  1155.15  1165.59  1187.58  1196.01  1218.46
eigval :     1239.33  1244.87  1261.08  1287.78  1295.73  1310.77
eigval :     1325.24  1343.25  1348.00  1349.82  1359.78  1368.21
eigval :     1370.37  1410.07  1414.81  1426.19  1485.06  1489.36
eigval :     1497.10  1500.41  1502.94  1503.73  1505.15  1516.35
eigval :     1520.52  2812.66  2889.84  2919.90  2938.59  2958.98
eigval :     2969.09  2976.58  2982.58  2994.21  3000.04  3020.70
eigval :     3025.12  3027.68  3030.00  3032.18  3036.10  3039.06
eigval :     3050.09  3051.59  3558.02
           -------------------------------------------------
          |                Property Printout                |
           -------------------------------------------------

    * Orbital Energies and Occupations

         #    Occupation            Energy/Eh            Energy/eV
      -------------------------------------------------------------
         1        2.0000           -0.6791956             -18.4819
       ...           ...                  ...                  ...
        21        2.0000           -0.4731296             -12.8745
        22        2.0000           -0.4635322             -12.6134
        23        2.0000           -0.4592783             -12.4976
        24        2.0000           -0.4519083             -12.2971
        25        2.0000           -0.4457278             -12.1289
        26        2.0000           -0.4423646             -12.0374
        27        2.0000           -0.4413399             -12.0095
        28        2.0000           -0.4299412             -11.6993
        29        2.0000           -0.4237659             -11.5313
        30        2.0000           -0.4201618             -11.4332
        31        2.0000           -0.4167862             -11.3413
        32        2.0000           -0.4113311             -11.1929
        33        2.0000           -0.3923439             -10.6762 (HOMO)
        34                          0.0296765               0.8075 (LUMO)
        35                          0.0407949               1.1101
        36                          0.0644601               1.7540
        37                          0.0856811               2.3315
        38                          0.0870367               2.3684
        39                          0.0993034               2.7022
        40                          0.1103225               3.0020
        41                          0.1203354               3.2745
        42                          0.1272916               3.4638
        43                          0.1429040               3.8886
        44                          0.1514380               4.1208
       ...                                ...                  ...
        64                          0.3325407               9.0489
      -------------------------------------------------------------
                  HL-Gap            0.4220204 Eh           11.4838 eV
             Fermi-level           -0.1813337 Eh           -4.9343 eV

     #   Z          covCN         q      C6AA      α(0)
     1   6 C        3.756    -0.107    22.607     6.779
     2   6 C        3.854    -0.016    20.829     6.491
     3   1 H        0.924     0.027     2.631     2.537
     4   6 C        3.809    -0.064    21.715     6.633
     5   6 C        3.807    -0.063    21.697     6.631
     6   6 C        3.853    -0.043    21.297     6.564
     7   1 H        0.924     0.043     2.409     2.427
     8   6 C        3.730     0.119    18.729     6.178
     9   1 H        0.923     0.002     3.030     2.722
    10   6 C        3.811    -0.068    21.793     6.645
    11   8 O        1.656    -0.452    21.892     6.316
    12   6 C        3.848    -0.012    20.750     6.479
    13   6 C        3.757    -0.110    22.665     6.788
    14   6 C        3.756    -0.107    22.591     6.777
    15   1 H        0.925     0.037     2.495     2.470
    16   1 H        0.925     0.035     2.519     2.482
    17   1 H        0.925     0.036     2.498     2.472
    18   1 H        0.924     0.035     2.517     2.481
    19   1 H        0.924     0.031     2.576     2.510
    20   1 H        0.925     0.039     2.460     2.453
    21   1 H        0.924     0.027     2.628     2.535
    22   1 H        0.924     0.046     2.367     2.406
    23   1 H        0.924     0.044     2.400     2.423
    24   1 H        0.805     0.288     0.758     1.368
    25   1 H        0.923     0.017     2.786     2.610
    26   1 H        0.925     0.029     2.598     2.521
    27   1 H        0.925     0.036     2.497     2.471
    28   1 H        0.925     0.046     2.374     2.409
    29   1 H        0.925     0.036     2.508     2.477
    30   1 H        0.925     0.035     2.521     2.483
    31   1 H        0.925     0.035     2.516     2.480

 Mol. C6AA /au·bohr⁶  :       6724.655459
 Mol. C8AA /au·bohr⁸  :     142761.853991
 Mol. α(0) /au        :        121.017267


Wiberg/Mayer (AO) data.
largest (>0.10) Wiberg bond orders for each atom

 ---------------------------------------------------------------------------
     #   Z sym  total        # sym  WBO       # sym  WBO       # sym  WBO
 ---------------------------------------------------------------------------
     1   6 C    3.996 --     2 C    1.008    17 H    0.987    16 H    0.987
                            15 H    0.986
     2   6 C    3.996 --     1 C    1.008     4 C    0.998    10 C    0.998
                             3 H    0.968
     3   1 H    0.999 --     2 C    0.968
     4   6 C    3.997 --     5 C    1.006     2 C    0.998    19 H    0.976
                            18 H    0.976
     5   6 C    3.998 --     4 C    1.006     6 C    0.997    21 H    0.976
                            20 H    0.974
     6   6 C    3.993 --     5 C    0.997    12 C    0.981     8 C    0.974
                             7 H    0.966
     7   1 H    0.998 --     6 C    0.966
     8   6 C    3.953 --    10 C    0.992    11 O    0.985     6 C    0.974
                             9 H    0.960
     9   1 H    1.000 --     8 C    0.960
    10   6 C    3.995 --     2 C    0.998     8 C    0.992    23 H    0.974
                            22 H    0.974
    11   8 O    1.958 --     8 C    0.985    24 H    0.895
    12   6 C    3.995 --    14 C    1.009    13 C    1.009     6 C    0.981
                            25 H    0.967
    13   6 C    3.995 --    12 C    1.009    26 H    0.987    27 H    0.986
                            28 H    0.981
    14   6 C    3.996 --    12 C    1.009    31 H    0.986    30 H    0.986
                            29 H    0.985
    15   1 H    0.998 --     1 C    0.986
    16   1 H    0.998 --     1 C    0.987
    17   1 H    0.999 --     1 C    0.987
    18   1 H    0.999 --     4 C    0.976
    19   1 H    0.999 --     4 C    0.976
    20   1 H    0.998 --     5 C    0.974
    21   1 H    0.999 --     5 C    0.976
    22   1 H    0.998 --    10 C    0.974
    23   1 H    0.998 --    10 C    0.974
    24   1 H    0.917 --    11 O    0.895
    25   1 H    1.000 --    12 C    0.967
    26   1 H    0.999 --    13 C    0.987
    27   1 H    0.999 --    13 C    0.986
    28   1 H    0.998 --    13 C    0.981
    29   1 H    0.998 --    14 C    0.985
    30   1 H    0.999 --    14 C    0.986
    31   1 H    0.999 --    14 C    0.986
 ---------------------------------------------------------------------------

Topologies differ in total number of bonds
Writing topology from bond orders to xtbtopo.mol

molecular dipole:
                 x           y           z       tot (Debye)
 q only:       -0.153      -0.380       0.252
   full:       -0.324      -0.417       0.442       1.751
molecular quadrupole (traceless):
                xx          xy          yy          xz          yz          zz
 q only:        3.246      -1.804      -2.099      -0.367       2.006      -1.147
  q+dip:        2.350      -2.090      -3.093      -0.390       4.800       0.744
   full:        3.258      -2.478      -2.957      -0.497       3.968      -0.301

           -------------------------------------------------
          |                Geometry Summary                 |
           -------------------------------------------------

      molecular mass/u    :      156.2655789
   center of mass at/Å    :        0.0000280       0.0000241      -0.0000560
  moments of inertia/u·Å² :        0.2730859E+03   0.7234048E+03   0.9218135E+03
rotational constants/cm⁻¹ :        0.6173014E-01   0.2330318E-01   0.1828746E-01

 * 29 selected distances

     #   Z          #   Z                                           value/Å
     1   6 C        2   6 C                                       1.5256913
     2   6 C        3   1 H                                       1.0963852
     2   6 C        4   6 C                                       1.5271217
     4   6 C        5   6 C                                       1.5266067
     5   6 C        6   6 C                                       1.5317068
     6   6 C        7   1 H                                       1.0950361
     8   6 C        9   1 H                                       1.1044047
     2   6 C       10   6 C                                       1.5253980
     8   6 C       10   6 C                                       1.5277759
     8   6 C       11   8 O                                       1.4134695
    12   6 C       13   6 C                                       1.5323119 (max)
    12   6 C       14   6 C                                       1.5292131
     1   6 C       15   1 H                                       1.0874198
     1   6 C       16   1 H                                       1.0878346
     1   6 C       17   1 H                                       1.0878407
     4   6 C       18   1 H                                       1.0925394
     4   6 C       19   1 H                                       1.0924253
     5   6 C       20   1 H                                       1.0896822
     5   6 C       21   1 H                                       1.0928536
    10   6 C       22   1 H                                       1.0913103
    10   6 C       23   1 H                                       1.0911358
    11   8 O       24   1 H                                       0.9625749 (min)
    12   6 C       25   1 H                                       1.0985793
    13   6 C       26   1 H                                       1.0885282
    13   6 C       27   1 H                                       1.0884530
    13   6 C       28   1 H                                       1.0865007
    14   6 C       29   1 H                                       1.0884220
    14   6 C       30   1 H                                       1.0862097
    14   6 C       31   1 H                                       1.0874994

 * 4 distinct bonds (by element types)

   Z      Z             #   av. dist./Å        max./Å        min./Å
   1 H    6 C          19     1.0912137     1.1044047     1.0862097
   6 C    6 C           8     1.5282282     1.5323119     1.5253980
   1 H    8 O           1     0.9625749     0.9625749     0.9625749
   6 C    8 O           1     1.4134695     1.4134695     1.4134695

           -------------------------------------------------
          |               Frequency Printout                |
           -------------------------------------------------
 projected vibrational frequencies (cm⁻¹)
eigval :       -0.00     0.00     0.00     0.00     0.00     0.00
eigval :       68.44    79.54   150.30   179.81   210.87   219.78
eigval :      228.42   262.26   285.66   298.28   324.07   349.19
eigval :      383.04   394.54   426.92   452.38   459.64   505.05
eigval :      532.70   570.10   813.75   867.51   887.84   926.33
eigval :      948.44   950.89   957.03   983.13   987.57  1013.82
eigval :     1037.61  1059.00  1080.07  1084.77  1103.13  1127.47
eigval :     1131.94  1155.15  1165.59  1187.58  1196.01  1218.46
eigval :     1239.33  1244.87  1261.08  1287.78  1295.73  1310.77
eigval :     1325.24  1343.25  1348.00  1349.82  1359.78  1368.21
eigval :     1370.37  1410.07  1414.81  1426.19  1485.06  1489.36
eigval :     1497.10  1500.41  1502.94  1503.73  1505.15  1516.35
eigval :     1520.52  2812.66  2889.84  2919.90  2938.59  2958.98
eigval :     2969.09  2976.58  2982.58  2994.21  3000.04  3020.70
eigval :     3025.12  3027.68  3030.00  3032.18  3036.10  3039.06
eigval :     3050.09  3051.59  3558.02
 reduced masses (amu)
   1: 10.86   2: 10.19   3: 11.19   4: 11.14   5: 10.36   6:  9.79   7:  8.57   8:  9.41
   9:  9.44  10:  8.56  11:  4.54  12:  4.48  13:  3.41  14: 10.43  15:  7.47  16:  4.02
  17:  7.64  18:  6.88  19:  6.07  20:  9.34  21:  7.96  22:  8.24  23:  8.14  24:  8.18
  25: 10.12  26:  8.69  27:  6.60  28:  6.28  29:  6.97  30:  6.55  31:  3.15  32:  5.88
  33:  5.38  34:  4.47  35:  4.40  36:  6.07  37:  5.77  38:  6.89  39:  8.65  40:  5.60
  41:  7.04  42:  7.30  43:  9.43  44:  6.61  45:  7.63  46:  6.85  47:  7.20  48:  3.98
  49:  4.41  50:  4.38  51:  3.40  52:  3.79  53:  3.59  54:  3.52  55:  4.30  56:  4.79
  57:  4.59  58:  3.64  59:  4.58  60:  5.56  61:  5.21  62:  3.17  63:  3.15  64:  3.01
  65:  1.88  66:  1.90  67:  1.89  68:  1.61  69:  1.58  70:  1.59  71:  1.60  72:  1.58
  73:  1.58  74:  1.71  75:  1.74  76:  1.74  77:  1.76  78:  1.86  79:  1.92  80:  1.52
  81:  1.96  82:  1.50  83:  1.67  84:  1.88  85:  1.87  86:  1.71  87:  1.94  88:  1.88
  89:  1.62  90:  1.32  91:  1.60  92:  1.60  93:  1.87
 IR intensities (km·mol⁻¹)
   1:  0.03   2:  0.14   3:  0.05   4:  0.01   5:  0.02   6:  0.31   7:  1.02   8:  1.81
   9:  1.09  10:  2.79  11:  3.07  12:  3.75  13:  5.27  14:  8.33  15:  4.63  16:  0.12
  17:  1.97  18: 29.19  19: 93.28  20:  1.87  21: 22.88  22:  1.72  23:  2.77  24:  0.38
  25: 11.16  26:  0.49  27:  0.83  28:  1.69  29:  7.00  30:  4.79  31:  5.12  32:  2.44
  33:  2.10  34:  3.27  35:  1.84  36:  5.49  37:  1.03  38:  1.30  39: 71.17  40: 13.35
  41:  1.64  42:  0.12  43: 13.94  44: 11.53  45:  8.07  46: 17.49  47:  6.45  48: 14.35
  49:  5.91  50: 20.16  51:  6.12  52: 20.62  53:  1.12  54:  0.47  55:  2.17  56: 14.63
  57:  6.80  58:  5.78  59: 14.97  60: 12.94  61:  2.45  62:  2.83  63:  1.64  64:  2.37
  65:  0.18  66:  1.69  67:  0.44  68:  1.11  69:  2.49  70:  2.28  71:  0.70  72:  1.66
  73:  2.65  74: 72.54  75: 54.06  76: 39.30  77: 21.12  78: 10.41  79: 83.82  80: 34.32
  81: 79.20  82: 30.25  83: 51.25  84:  8.17  85: 58.98  86: 44.14  87: 53.54  88: 47.35
  89: 71.99  90: 30.81  91: 27.33  92: 28.29  93: 10.01
 Raman intensities (Ä⁴*amu⁻¹)
   1:  0.00   2:  0.00   3:  0.00   4:  0.00   5:  0.00   6:  0.00   7:  0.00   8:  0.00
   9:  0.00  10:  0.00  11:  0.00  12:  0.00  13:  0.00  14:  0.00  15:  0.00  16:  0.00
  17:  0.00  18:  0.00  19:  0.00  20:  0.00  21:  0.00  22:  0.00  23:  0.00  24:  0.00
  25:  0.00  26:  0.00  27:  0.00  28:  0.00  29:  0.00  30:  0.00  31:  0.00  32:  0.00
  33:  0.00  34:  0.00  35:  0.00  36:  0.00  37:  0.00  38:  0.00  39:  0.00  40:  0.00
  41:  0.00  42:  0.00  43:  0.00  44:  0.00  45:  0.00  46:  0.00  47:  0.00  48:  0.00
  49:  0.00  50:  0.00  51:  0.00  52:  0.00  53:  0.00  54:  0.00  55:  0.00  56:  0.00
  57:  0.00  58:  0.00  59:  0.00  60:  0.00  61:  0.00  62:  0.00  63:  0.00  64:  0.00
  65:  0.00  66:  0.00  67:  0.00  68:  0.00  69:  0.00  70:  0.00  71:  0.00  72:  0.00
  73:  0.00  74:  0.00  75:  0.00  76:  0.00  77:  0.00  78:  0.00  79:  0.00  80:  0.00
  81:  0.00  82:  0.00  83:  0.00  84:  0.00  85:  0.00  86:  0.00  87:  0.00  88:  0.00
  89:  0.00  90:  0.00  91:  0.00  92:  0.00  93:  0.00
 output can be read by thermo (or use thermo option).
 writing <g98.out> molden fake output.
 recommended (thermochemical) frequency scaling factor: 1.0
           -------------------------------------------------
          |             Thermodynamic Functions             |
           -------------------------------------------------

Molecule has no symmetry elements
It seems to be the C1 point group
c1  symmetry found (for desy threshold:  0.10E+00) used in thermo

          ...................................................
          :                      SETUP                      :
          :.................................................:
          :  # frequencies                          87      :
          :  # imaginary freq.                       0      :
          :  linear?                             false      :
          :  only rotor calc.                    false      :
          :  symmetry                               c1      :
          :  rotational number                       1      :
          :  scaling factor                  1.0000000      :
          :  rotor cutoff                    0.0000000 cm⁻¹ :
          :  imag. cutoff                 -100.0000000 cm⁻¹ :
          :.................................................:

    mode    ω/cm⁻¹     T·S(HO)/kcal·mol⁻¹    T·S(FR)/kcal·mol⁻¹   T·S(vib)
   ------------------------------------------------------------------------
       1     68.44    -1.25155 (100.00%)    -0.96343 (  0.00%)    -1.25155
       2     79.54    -1.16347 (100.00%)    -0.91894 (  0.00%)    -1.16347
       3    150.30    -0.79560 (100.00%)    -0.73046 (  0.00%)    -0.79560
       4    179.81    -0.69482 (100.00%)    -0.67736 (  0.00%)    -0.69482
       5    210.87    -0.60708 (100.00%)    -0.63016 (  0.00%)    -0.60708
       6    219.78    -0.58463 (100.00%)    -0.61789 (  0.00%)    -0.58463
       7    228.42    -0.56391 (100.00%)    -0.60648 (  0.00%)    -0.56391
       8    262.26    -0.49096 (100.00%)    -0.56555 (  0.00%)    -0.49096
       9    285.66    -0.44709 (100.00%)    -0.54024 (  0.00%)    -0.44709
      10    298.28    -0.42532 (100.00%)    -0.52743 (  0.00%)    -0.42532
   ------------------------------------------------------------------------

   temp. (K)  partition function   enthalpy   heat capacity  entropy
                                   cal/mol     cal/K/mol   cal/K/mol   J/K/mol
 298.15  VIB  0.159E+04             5953.172     42.601     34.615
         ROT  0.103E+07              888.752      2.981     30.496
         INT  0.164E+10             6841.925     45.582     65.112
         TR   0.189E+28             1481.254      4.968     41.030
         TOT                        8323.1787    50.5497   106.1417   444.0970

       T/K    H(0)-H(T)+PV         H(T)/Eh          T*S/Eh         G(T)/Eh
   ------------------------------------------------------------------------
    298.15    0.132638E-01    0.296789E+00    0.504314E-01    0.246357E+00
   ------------------------------------------------------------------------

         :::::::::::::::::::::::::::::::::::::::::::::::::::::
         ::                  THERMODYNAMIC                  ::
         :::::::::::::::::::::::::::::::::::::::::::::::::::::
         :: total free energy         -35.459671925150 Eh   ::
         ::.................................................::
         :: total energy              -35.706029183566 Eh   ::
         :: zero point energy           0.283524795380 Eh   ::
         :: G(RRHO) w/o ZPVE           -0.037167536963 Eh   ::
         :: G(RRHO) contrib.            0.246357258416 Eh   ::
         :::::::::::::::::::::::::::::::::::::::::::::::::::::

optimized geometry written to: xtbopt.coord


           -------------------------------------------------
          | TOTAL ENERGY              -35.706029183566 Eh   |
          | TOTAL ENTHALPY            -35.409240558578 Eh   |
          | TOTAL FREE ENERGY         -35.459671925150 Eh   |
          | GRADIENT NORM               0.000028180639 Eh/α |
          | HOMO-LUMO GAP              11.483758462676 eV   |
           -------------------------------------------------

------------------------------------------------------------------------
 * finished run on 2025/04/16 at 09:49:00.153     
------------------------------------------------------------------------
 total:
 * wall-time:     0 d,  0 h,  0 min,  5.292 sec
 *  cpu-time:     0 d,  0 h,  0 min,  5.245 sec
 * ratio c/w:     0.991 speedup
 SCF:
 * wall-time:     0 d,  0 h,  0 min,  0.069 sec
 *  cpu-time:     0 d,  0 h,  0 min,  0.039 sec
 * ratio c/w:     0.557 speedup
 analytical hessian:
 * wall-time:     0 d,  0 h,  0 min,  4.807 sec
 *  cpu-time:     0 d,  0 h,  0 min,  4.805 sec
 * ratio c/w:     1.000 speedup

