 Entering Gaussian System
 *********************************************
 Gaussian 98:
 frequency output generated by the xtb code
 *********************************************
                         Standard orientation:
 --------------------------------------------------------------------
  Center     Atomic     Atomic              Coordinates (Angstroms)
  Number     Number      Type              X           Y           Z
 --------------------------------------------------------------------
    1          6             0        2.395959   -0.656990   -0.102903
    2          6             0        1.081046   -0.121626    0.448863
    3          1             0        1.106298   -0.170119    1.550420
    4          6             0        0.762898    1.309677   -0.000227
    5          6             0       -0.761330    1.311234   -0.001835
    6          6             0       -1.083458   -0.120045   -0.448793
    7          1             0       -1.116468   -0.169022   -1.550012
    8          8             0        0.000069   -0.927415   -0.004232
    9          6             0       -2.395352   -0.653612    0.112194
   10          1             0        3.223250   -0.048465    0.253287
   11          1             0        2.540959   -1.683176    0.222596
   12          1             0        2.378417   -0.639020   -1.189879
   13          1             0        1.193646    2.054993    0.664679
   14          1             0        1.143549    1.472224   -1.010076
   15          1             0       -1.141455    1.476463    1.007784
   16          1             0       -1.190506    2.056513   -0.667803
   17          1             0       -2.544303   -1.679455   -0.212623
   18          1             0       -3.224221   -0.043673   -0.237882
   19          1             0       -2.370124   -0.636056    1.199041
 --------------------------------------------------------------------
     1 basis functions        1 primitive gaussians
     1 alpha electrons        1 beta electrons
 
 Harmonic frequencies (cm**-1), IR intensities (km*mol⁻¹),
 Raman scattering activities (A**4/amu), Raman depolarization ratios,
 reduced masses (AMU), force constants (mDyne/A) and normal coordinates:
                      1                      2                      3
                        a                      a                      a 
 Frequencies --     6.7193               156.4953               191.3809
 Red. masses --    11.2997                 6.6184                 1.6684
 Frc consts  --     0.0000                 0.0000                 0.0000
 IR Inten    --     3.9400                 0.0443                 0.3615
 Raman Activ --     0.0000                 0.0000                 0.0000
 Depolar     --     0.0000                 0.0000                 0.0000
 Atom AN      X      Y      Z        X      Y      Z        X      Y      Z
   1   6     0.08  -0.00   0.38    -0.05   0.10  -0.20     0.03   0.11  -0.01
   2   6    -0.12  -0.05  -0.06    -0.02  -0.10   0.10    -0.02  -0.06   0.04
   3   1    -0.15  -0.03  -0.01     0.02  -0.12   0.02    -0.01  -0.03   0.01
   4   6    -0.01  -0.03  -0.05     0.00   0.01   0.42    -0.00  -0.04   0.08
   5   6    -0.01   0.03  -0.06    -0.00   0.01  -0.42     0.01  -0.04  -0.08
   6   6    -0.11   0.04  -0.06     0.02  -0.11  -0.10     0.02  -0.05  -0.04
   7   1    -0.15   0.03  -0.01    -0.02  -0.12  -0.02     0.00  -0.02  -0.01
   8   8     0.08   0.00  -0.65    -0.00  -0.07   0.00    -0.00  -0.07  -0.00
   9   6     0.08   0.00   0.38     0.05   0.11   0.19    -0.03   0.11   0.01
  10   1    -0.01  -0.01   0.21    -0.01  -0.01  -0.01    -0.05   0.30  -0.31
  11   1    -0.02  -0.01   0.10    -0.00  -0.01  -0.18     0.26   0.16   0.29
  12   1     0.14   0.03   0.11    -0.04   0.15  -0.06    -0.16  -0.30  -0.00
  13   1     0.01  -0.02  -0.01    -0.12  -0.05   0.27    -0.02  -0.02   0.05
  14   1     0.00  -0.02  -0.01     0.17   0.12   0.20     0.03   0.00   0.04
  15   1     0.00   0.02  -0.02    -0.17   0.12  -0.20    -0.03   0.00  -0.04
  16   1     0.01   0.01  -0.02     0.12  -0.05  -0.27     0.02  -0.02  -0.05
  17   1    -0.01   0.01   0.10     0.01  -0.01   0.18    -0.25   0.15  -0.27
  18   1    -0.01   0.01   0.21     0.01  -0.01   0.01     0.05   0.29   0.30
  19   1     0.14  -0.03   0.11     0.04   0.15   0.05     0.15  -0.29   0.00
                      4                      5                      6
                        a                      a                      a 
 Frequencies --   198.6456               253.1528               362.8914
 Red. masses --     1.8557                 8.0521                 8.5561
 Frc consts  --     0.0000                 0.0000                 0.0000
 IR Inten    --     0.0559                 0.9926                 1.7599
 Raman Activ --     0.0000                 0.0000                 0.0000
 Depolar     --     0.0000                 0.0000                 0.0000
 Atom AN      X      Y      Z        X      Y      Z        X      Y      Z
   1   6     0.00   0.00   0.01     0.28   0.37   0.02    -0.05  -0.27   0.01
   2   6    -0.03  -0.07  -0.00     0.02  -0.15  -0.05     0.13   0.24  -0.05
   3   1    -0.03  -0.04  -0.00     0.00  -0.04  -0.02     0.03   0.08  -0.01
   4   6     0.03  -0.03   0.08    -0.02  -0.18  -0.09    -0.19   0.24   0.08
   5   6     0.03   0.04   0.08     0.02  -0.18   0.09    -0.19  -0.24   0.08
   6   6    -0.03   0.07  -0.00    -0.02  -0.15   0.05     0.13  -0.24  -0.05
   7   1    -0.03   0.04  -0.00    -0.01  -0.04   0.02     0.03  -0.08  -0.01
   8   8    -0.02   0.00  -0.18    -0.00  -0.24  -0.00     0.34   0.00  -0.13
   9   6     0.01  -0.01   0.01    -0.27   0.37  -0.02    -0.05   0.27   0.01
  10   1    -0.05   0.25  -0.30    -0.02   0.16   0.14     0.08  -0.17  -0.07
  11   1     0.22   0.13   0.30     0.17   0.09  -0.09    -0.16  -0.07   0.09
  12   1    -0.15  -0.34   0.00     0.17   0.23   0.01    -0.05  -0.18   0.00
  13   1     0.02  -0.03   0.04     0.03  -0.04  -0.06    -0.14   0.07   0.07
  14   1     0.01  -0.00   0.03    -0.04  -0.08  -0.04    -0.05   0.16   0.04
  15   1     0.01   0.00   0.03     0.04  -0.08   0.05    -0.05  -0.16   0.04
  16   1     0.02   0.03   0.04    -0.03  -0.04   0.06    -0.14  -0.07   0.07
  17   1     0.23  -0.13   0.31    -0.17   0.09   0.09    -0.16   0.07   0.09
  18   1    -0.05  -0.26  -0.31     0.01   0.16  -0.14     0.08   0.17  -0.07
  19   1    -0.16   0.35   0.00    -0.17   0.23  -0.01    -0.05   0.18   0.00
                      7                      8                      9
                        a                      a                      a 
 Frequencies --   430.1836               480.6008               568.3918
 Red. masses --     8.2517                 9.2163                 8.2965
 Frc consts  --     0.0000                 0.0000                 0.0000
 IR Inten    --     0.0179                 3.1609                 0.5792
 Raman Activ --     0.0000                 0.0000                 0.0000
 Depolar     --     0.0000                 0.0000                 0.0000
 Atom AN      X      Y      Z        X      Y      Z        X      Y      Z
   1   6     0.38  -0.17   0.03     0.26  -0.10   0.04    -0.19   0.12   0.05
   2   6     0.22   0.01  -0.28     0.02  -0.09  -0.33    -0.11   0.16  -0.13
   3   1     0.09  -0.01  -0.08     0.06  -0.02  -0.09    -0.06   0.08  -0.03
   4   6     0.04   0.12   0.08    -0.15   0.04   0.04     0.38   0.25  -0.04
   5   6    -0.04   0.12  -0.09    -0.15  -0.04   0.04     0.38  -0.24  -0.04
   6   6    -0.22   0.01   0.28     0.01   0.09  -0.33    -0.11  -0.16  -0.12
   7   1    -0.09  -0.01   0.08     0.06   0.02  -0.09    -0.06  -0.08  -0.03
   8   8     0.00   0.10  -0.00    -0.37  -0.00   0.29    -0.15  -0.01   0.04
   9   6    -0.38  -0.17  -0.02     0.26   0.10   0.04    -0.19  -0.12   0.05
  10   1     0.08  -0.03   0.06    -0.01   0.03   0.11    -0.07   0.05   0.03
  11   1     0.07  -0.02   0.11     0.08   0.00   0.11    -0.06   0.04   0.03
  12   1     0.23  -0.13   0.01     0.26  -0.09   0.01    -0.02   0.03   0.01
  13   1    -0.05  -0.03   0.14    -0.07  -0.06   0.12    -0.02  -0.01   0.17
  14   1     0.06   0.18   0.07    -0.03   0.16   0.04     0.24   0.24   0.07
  15   1    -0.06   0.18  -0.07    -0.03  -0.16   0.04     0.24  -0.23   0.07
  16   1     0.05  -0.03  -0.14    -0.07   0.06   0.11    -0.02   0.01   0.17
  17   1    -0.07  -0.02  -0.11     0.08  -0.00   0.11    -0.06  -0.04   0.03
  18   1    -0.08  -0.03  -0.05    -0.01  -0.03   0.11    -0.07  -0.04   0.03
  19   1    -0.23  -0.13  -0.00     0.25   0.09   0.01    -0.02  -0.03   0.01
                     10                     11                     12
                        a                      a                      a 
 Frequencies --   609.3762               853.8122               855.1321
 Red. masses --    10.3910                 5.1745                10.5977
 Frc consts  --     0.0000                 0.0000                 0.0000
 IR Inten    --     0.5506                 0.6071                 7.9580
 Raman Activ --     0.0000                 0.0000                 0.0000
 Depolar     --     0.0000                 0.0000                 0.0000
 Atom AN      X      Y      Z        X      Y      Z        X      Y      Z
   1   6     0.21  -0.06  -0.04    -0.13   0.12  -0.03     0.22  -0.05   0.02
   2   6     0.25   0.04   0.34     0.02   0.18  -0.21     0.06   0.01   0.23
   3   1     0.09  -0.06   0.09     0.06   0.00  -0.06    -0.07   0.03   0.06
   4   6     0.04  -0.18   0.07     0.11  -0.02   0.24     0.01   0.34  -0.04
   5   6    -0.04  -0.19  -0.07     0.11   0.06   0.24    -0.02   0.33   0.01
   6   6    -0.26   0.04  -0.34     0.01  -0.18  -0.23    -0.07   0.03  -0.20
   7   1    -0.09  -0.06  -0.09     0.07   0.00  -0.07     0.06   0.03  -0.05
   8   8    -0.00   0.47   0.00     0.02  -0.03   0.04     0.00  -0.57  -0.00
   9   6    -0.22  -0.06   0.05    -0.15  -0.13  -0.03    -0.21  -0.04  -0.02
  10   1     0.11  -0.05  -0.08    -0.02  -0.02   0.06     0.17  -0.09  -0.14
  11   1     0.07  -0.03  -0.07    -0.19   0.06   0.14     0.06  -0.05  -0.11
  12   1    -0.05   0.02  -0.01     0.12  -0.10  -0.01    -0.15   0.04   0.01
  13   1    -0.03   0.08  -0.11     0.31   0.01  -0.15     0.04   0.12  -0.06
  14   1    -0.01  -0.19  -0.01    -0.24  -0.16  -0.07    -0.01   0.04  -0.02
  15   1     0.01  -0.20   0.01    -0.24   0.17  -0.07     0.03   0.02   0.03
  16   1     0.03   0.09   0.11     0.30  -0.00  -0.14    -0.07   0.12   0.07
  17   1    -0.07  -0.03   0.07    -0.20  -0.06   0.16    -0.04  -0.04   0.09
  18   1    -0.11  -0.05   0.08    -0.04   0.01   0.07    -0.17  -0.09   0.13
  19   1     0.05   0.02   0.01     0.14   0.10  -0.01     0.13   0.03  -0.01
                     13                     14                     15
                        a                      a                      a 
 Frequencies --   910.6327               923.7630               954.5677
 Red. masses --     8.8434                 6.8899                 3.6864
 Frc consts  --     0.0000                 0.0000                 0.0000
 IR Inten    --    14.0247                 2.4747                 0.4089
 Raman Activ --     0.0000                 0.0000                 0.0000
 Depolar     --     0.0000                 0.0000                 0.0000
 Atom AN      X      Y      Z        X      Y      Z        X      Y      Z
   1   6     0.16  -0.08  -0.01     0.02   0.23   0.03     0.03  -0.07   0.14
   2   6     0.02   0.06   0.12     0.16   0.23  -0.04     0.05   0.00  -0.01
   3   1    -0.08  -0.07   0.02     0.03   0.09  -0.02    -0.13   0.21   0.01
   4   6     0.10   0.36   0.08    -0.10  -0.27   0.01     0.08  -0.14  -0.23
   5   6     0.10  -0.36   0.09     0.10  -0.27  -0.01    -0.08  -0.14   0.23
   6   6     0.02  -0.06   0.12    -0.16   0.23   0.04    -0.05   0.00   0.01
   7   1    -0.08   0.08   0.02    -0.03   0.09   0.02     0.14   0.21  -0.01
   8   8    -0.46  -0.00  -0.14     0.00  -0.26  -0.00     0.00   0.15   0.00
   9   6     0.16   0.08  -0.02    -0.02   0.23  -0.03    -0.04  -0.07  -0.14
  10   1     0.06  -0.01  -0.05     0.21  -0.16  -0.09     0.03   0.02  -0.10
  11   1     0.11  -0.03  -0.07    -0.32   0.05   0.11     0.17  -0.06  -0.17
  12   1    -0.02   0.03  -0.00    -0.06  -0.09   0.01    -0.25   0.15   0.04
  13   1     0.02   0.29  -0.19    -0.14  -0.06   0.06    -0.05  -0.21   0.18
  14   1    -0.12  -0.08  -0.07     0.01   0.02   0.03     0.06   0.28   0.01
  15   1    -0.12   0.09  -0.07    -0.01   0.02  -0.03    -0.06   0.28  -0.01
  16   1     0.02  -0.29  -0.19     0.14  -0.06  -0.06     0.05  -0.21  -0.18
  17   1     0.11   0.03  -0.07     0.32   0.05  -0.11    -0.16  -0.06   0.17
  18   1     0.05   0.01  -0.05    -0.21  -0.16   0.09    -0.04   0.02   0.10
  19   1    -0.02  -0.03  -0.00     0.06  -0.09  -0.01     0.25   0.15  -0.04
                     16                     17                     18
                        a                      a                      a 
 Frequencies --   974.5912              1006.1056              1048.2951
 Red. masses --     6.2656                 2.3152                 4.9408
 Frc consts  --     0.0000                 0.0000                 0.0000
 IR Inten    --    12.0327                11.7638                 6.9270
 Raman Activ --     0.0000                 0.0000                 0.0000
 Depolar     --     0.0000                 0.0000                 0.0000
 Atom AN      X      Y      Z        X      Y      Z        X      Y      Z
   1   6     0.21   0.18   0.04     0.05  -0.10   0.15    -0.05  -0.11  -0.01
   2   6     0.03   0.17   0.03    -0.02   0.03  -0.13     0.06   0.03   0.02
   3   1    -0.10   0.00  -0.00    -0.16   0.24  -0.02     0.04   0.06   0.01
   4   6    -0.02  -0.18  -0.01     0.01  -0.01   0.03    -0.39  -0.01  -0.05
   5   6    -0.02   0.18  -0.01     0.01   0.01   0.03     0.39  -0.01   0.05
   6   6     0.03  -0.17   0.02    -0.02  -0.03  -0.14    -0.06   0.03  -0.02
   7   1    -0.10   0.00  -0.00    -0.16  -0.24  -0.02    -0.04   0.06  -0.01
   8   8    -0.36   0.00  -0.08     0.04   0.00   0.07     0.00  -0.07   0.00
   9   6     0.21  -0.19   0.04     0.06   0.10   0.15     0.05  -0.11   0.01
  10   1     0.31  -0.20  -0.17     0.03   0.03  -0.10    -0.12   0.08   0.05
  11   1    -0.23   0.01   0.03     0.18  -0.06  -0.17     0.13  -0.02  -0.03
  12   1    -0.13  -0.06   0.01    -0.24   0.15   0.04     0.03   0.05  -0.00
  13   1     0.01  -0.12   0.07     0.24  -0.17   0.04    -0.45   0.22  -0.04
  14   1     0.09  -0.01   0.04    -0.27   0.17  -0.07    -0.12   0.08  -0.00
  15   1     0.08   0.01   0.04    -0.27  -0.17  -0.07     0.12   0.08   0.00
  16   1     0.01   0.12   0.07     0.24   0.17   0.04     0.45   0.22   0.04
  17   1    -0.23  -0.01   0.03     0.18   0.06  -0.17    -0.13  -0.02   0.03
  18   1     0.31   0.20  -0.18     0.03  -0.03  -0.10     0.12   0.08  -0.05
  19   1    -0.13   0.06   0.01    -0.24  -0.15   0.04    -0.03   0.04   0.00
                     19                     20                     21
                        a                      a                      a 
 Frequencies --  1088.3603              1110.5814              1141.4091
 Red. masses --     9.4945                10.0142                 9.0515
 Frc consts  --     0.0000                 0.0000                 0.0000
 IR Inten    --    18.7154                66.9056                63.5327
 Raman Activ --     0.0000                 0.0000                 0.0000
 Depolar     --     0.0000                 0.0000                 0.0000
 Atom AN      X      Y      Z        X      Y      Z        X      Y      Z
   1   6    -0.25  -0.01   0.05    -0.23   0.07   0.19    -0.02  -0.17  -0.11
   2   6     0.40   0.06   0.05     0.49  -0.08  -0.08     0.14   0.41   0.14
   3   1     0.21   0.03   0.00     0.15  -0.13  -0.03     0.01   0.15   0.03
   4   6     0.32   0.00  -0.04    -0.02  -0.05  -0.05    -0.04  -0.19   0.03
   5   6    -0.32   0.00   0.04    -0.03   0.05  -0.05    -0.03   0.20   0.03
   6   6    -0.42   0.06  -0.04     0.49   0.08  -0.08     0.13  -0.42   0.14
   7   1    -0.21   0.02  -0.00     0.15   0.13  -0.04     0.00  -0.15   0.03
   8   8     0.00  -0.25   0.00    -0.27  -0.00  -0.10    -0.26   0.00  -0.19
   9   6     0.25  -0.01  -0.05    -0.23  -0.07   0.19    -0.02   0.18  -0.11
  10   1    -0.18   0.11   0.11    -0.07   0.05   0.01    -0.16   0.11   0.08
  11   1     0.04   0.02   0.03    -0.03   0.01  -0.00     0.18  -0.01  -0.01
  12   1     0.01   0.05   0.01    -0.16   0.08   0.05     0.15   0.04  -0.03
  13   1    -0.02   0.08  -0.02    -0.08   0.02  -0.01     0.01  -0.11   0.06
  14   1     0.09   0.04  -0.00    -0.07   0.09  -0.02     0.07  -0.05   0.04
  15   1    -0.09   0.05   0.00    -0.08  -0.09  -0.02     0.07   0.05   0.04
  16   1     0.02   0.08   0.02    -0.08  -0.02  -0.01     0.01   0.11   0.06
  17   1    -0.04   0.02  -0.03    -0.03  -0.01   0.00     0.18   0.01  -0.01
  18   1     0.18   0.11  -0.11    -0.06  -0.05   0.01    -0.16  -0.11   0.09
  19   1    -0.01   0.05  -0.02    -0.16  -0.08   0.05     0.15  -0.04  -0.03
                     22                     23                     24
                        a                      a                      a 
 Frequencies --  1145.8751              1163.4138              1188.9709
 Red. masses --     7.2769                 7.2848                 5.2006
 Frc consts  --     0.0000                 0.0000                 0.0000
 IR Inten    --     2.5668                14.7682                 2.6186
 Raman Activ --     0.0000                 0.0000                 0.0000
 Depolar     --     0.0000                 0.0000                 0.0000
 Atom AN      X      Y      Z        X      Y      Z        X      Y      Z
   1   6     0.06  -0.05  -0.26     0.07  -0.14  -0.03    -0.04  -0.09  -0.00
   2   6    -0.16   0.12   0.35    -0.14   0.31  -0.17     0.13   0.14   0.07
   3   1     0.00   0.17   0.09    -0.18   0.25  -0.03     0.15   0.17   0.02
   4   6     0.05  -0.05  -0.20     0.17  -0.16   0.22    -0.30  -0.00   0.18
   5   6    -0.05  -0.04   0.20    -0.17  -0.15  -0.22     0.31  -0.01  -0.20
   6   6     0.16   0.12  -0.35     0.14   0.30   0.17    -0.13   0.16  -0.03
   7   1    -0.00   0.17  -0.09     0.18   0.25   0.03    -0.14   0.17  -0.01
   8   8    -0.00  -0.09  -0.00     0.00  -0.15  -0.00    -0.01  -0.09  -0.01
   9   6    -0.06  -0.05   0.26    -0.06  -0.13   0.03     0.04  -0.09  -0.02
  10   1    -0.07   0.01   0.10    -0.05   0.06  -0.01    -0.08   0.06   0.03
  11   1     0.01   0.03   0.09     0.15  -0.03  -0.08     0.09  -0.01  -0.01
  12   1     0.30  -0.11  -0.07     0.02   0.05  -0.01     0.02   0.05   0.00
  13   1    -0.02  -0.12   0.10    -0.04   0.13  -0.08     0.35  -0.26   0.06
  14   1     0.12   0.10   0.01     0.09  -0.23   0.04    -0.25  -0.00  -0.02
  15   1    -0.12   0.11  -0.01    -0.09  -0.22  -0.04     0.22  -0.04   0.01
  16   1     0.02  -0.12  -0.10     0.04   0.13   0.08    -0.33  -0.24  -0.05
  17   1    -0.00   0.03  -0.09    -0.14  -0.03   0.08    -0.10  -0.01   0.02
  18   1     0.06   0.01  -0.10     0.04   0.06   0.01     0.08   0.06  -0.03
  19   1    -0.29  -0.11   0.07    -0.02   0.05   0.01    -0.00   0.06  -0.01
                     25                     26                     27
                        a                      a                      a 
 Frequencies --  1189.6367              1264.9006              1289.2917
 Red. masses --     5.5684                 3.7361                 4.2837
 Frc consts  --     0.0000                 0.0000                 0.0000
 IR Inten    --    18.9361                 0.1303                 9.7630
 Raman Activ --     0.0000                 0.0000                 0.0000
 Depolar     --     0.0000                 0.0000                 0.0000
 Atom AN      X      Y      Z        X      Y      Z        X      Y      Z
   1   6     0.00   0.08  -0.15    -0.01  -0.04   0.06    -0.01  -0.07   0.07
   2   6     0.02  -0.15   0.32    -0.01   0.13   0.02     0.00   0.22  -0.04
   3   1     0.06   0.04   0.08     0.05  -0.40  -0.02     0.09  -0.29  -0.03
   4   6     0.04   0.10  -0.17    -0.18   0.24  -0.11    -0.20   0.06  -0.20
   5   6     0.00  -0.10  -0.15    -0.18  -0.23  -0.11     0.20   0.06   0.20
   6   6     0.04   0.13   0.33    -0.01  -0.13   0.02    -0.00   0.23   0.04
   7   1     0.08  -0.06   0.08     0.05   0.40  -0.02    -0.09  -0.29   0.03
   8   8    -0.11   0.00  -0.13     0.04   0.00   0.05    -0.00  -0.07  -0.00
   9   6    -0.00  -0.07  -0.14    -0.01   0.04   0.06     0.01  -0.07  -0.07
  10   1     0.00  -0.04   0.07     0.00   0.01  -0.02    -0.01   0.02  -0.03
  11   1    -0.11   0.05   0.11     0.07  -0.02  -0.04     0.10  -0.03  -0.06
  12   1     0.16  -0.10  -0.04    -0.02   0.03   0.01    -0.03   0.04   0.02
  13   1     0.14  -0.14   0.06     0.33  -0.24   0.07     0.01  -0.14   0.09
  14   1    -0.22   0.31  -0.09     0.16  -0.09   0.02     0.38  -0.24   0.07
  15   1    -0.25  -0.31  -0.09     0.16   0.09   0.02    -0.38  -0.24  -0.07
  16   1     0.18   0.18   0.07     0.33   0.24   0.07    -0.01  -0.14  -0.09
  17   1    -0.10  -0.05   0.11     0.07   0.02  -0.04    -0.10  -0.03   0.06
  18   1    -0.01   0.03   0.07     0.00  -0.01  -0.02     0.01   0.02   0.03
  19   1     0.16   0.09  -0.04    -0.02  -0.03   0.01     0.03   0.04  -0.02
                     28                     29                     30
                        a                      a                      a 
 Frequencies --  1305.9186              1308.5617              1333.1697
 Red. masses --     2.9928                 2.9566                 4.6997
 Frc consts  --     0.0000                 0.0000                 0.0000
 IR Inten    --     5.4524                17.4126                20.1469
 Raman Activ --     0.0000                 0.0000                 0.0000
 Depolar     --     0.0000                 0.0000                 0.0000
 Atom AN      X      Y      Z        X      Y      Z        X      Y      Z
   1   6     0.01   0.03   0.07     0.02   0.06   0.07     0.03  -0.04   0.10
   2   6    -0.06  -0.12  -0.01    -0.13  -0.23  -0.04    -0.26   0.19   0.01
   3   1     0.45   0.36   0.01     0.42   0.40   0.01     0.41  -0.23  -0.02
   4   6    -0.09   0.14   0.04    -0.04   0.08  -0.01     0.14  -0.16  -0.03
   5   6    -0.10  -0.14   0.04     0.04   0.08   0.01     0.15   0.16  -0.02
   6   6    -0.06   0.13  -0.01     0.13  -0.23   0.04    -0.27  -0.19   0.01
   7   1     0.45  -0.37   0.01    -0.41   0.39  -0.01     0.43   0.23  -0.02
   8   8    -0.12  -0.00  -0.18    -0.00   0.05  -0.00     0.03   0.00  -0.05
   9   6     0.01  -0.03   0.08    -0.02   0.06  -0.07     0.04   0.04   0.10
  10   1     0.05  -0.03  -0.03     0.06  -0.05  -0.03     0.06  -0.01  -0.08
  11   1     0.01  -0.01  -0.04    -0.01  -0.01  -0.04     0.08  -0.03  -0.07
  12   1    -0.04  -0.00   0.02    -0.05  -0.02   0.02    -0.02   0.03   0.02
  13   1     0.13  -0.04  -0.00    -0.03   0.04  -0.02    -0.13   0.04   0.00
  14   1     0.17  -0.15   0.05     0.21  -0.15   0.05    -0.18   0.15  -0.06
  15   1     0.17   0.15   0.05    -0.21  -0.15  -0.05    -0.19  -0.16  -0.06
  16   1     0.13   0.04  -0.00     0.03   0.04   0.02    -0.13  -0.05   0.00
  17   1     0.01   0.01  -0.04     0.02  -0.01   0.04     0.08   0.03  -0.08
  18   1     0.05   0.03  -0.03    -0.06  -0.04   0.03     0.06   0.01  -0.09
  19   1    -0.04   0.00   0.02     0.05  -0.02  -0.02    -0.02  -0.03   0.02
                     31                     32                     33
                        a                      a                      a 
 Frequencies --  1340.6111              1396.4299              1396.5911
 Red. masses --     5.0580                 3.4455                 3.2939
 Frc consts  --     0.0000                 0.0000                 0.0000
 IR Inten    --     8.4861                 0.5720                13.3996
 Raman Activ --     0.0000                 0.0000                 0.0000
 Depolar     --     0.0000                 0.0000                 0.0000
 Atom AN      X      Y      Z        X      Y      Z        X      Y      Z
   1   6    -0.03   0.04  -0.10    -0.27   0.10   0.08    -0.30   0.11   0.09
   2   6     0.30  -0.21  -0.01     0.07  -0.04  -0.01     0.05  -0.03  -0.01
   3   1    -0.41   0.22   0.02    -0.08   0.03   0.00    -0.07   0.03  -0.00
   4   6    -0.17   0.11  -0.01    -0.01   0.01   0.01    -0.00  -0.00   0.00
   5   6     0.17   0.10   0.01     0.01   0.01  -0.01     0.00   0.00   0.00
   6   6    -0.29  -0.20   0.02    -0.08  -0.04   0.01     0.04   0.03  -0.01
   7   1     0.39   0.21  -0.02     0.09   0.03  -0.00    -0.06  -0.02   0.00
   8   8    -0.00   0.08   0.00    -0.00   0.02  -0.00     0.01   0.00   0.01
   9   6     0.03   0.04   0.09     0.30   0.12  -0.09    -0.27  -0.10   0.08
  10   1    -0.07   0.03   0.09     0.22  -0.23  -0.15     0.24  -0.26  -0.17
  11   1    -0.10   0.03   0.07     0.31   0.02  -0.12     0.35   0.02  -0.13
  12   1    -0.01  -0.03  -0.02     0.31  -0.10  -0.00     0.35  -0.12  -0.00
  13   1     0.06  -0.02  -0.01     0.01   0.00  -0.00    -0.02   0.00   0.01
  14   1     0.21  -0.17   0.06    -0.00  -0.01   0.00    -0.01  -0.01  -0.00
  15   1    -0.21  -0.16  -0.06     0.00  -0.01  -0.00    -0.01   0.01  -0.00
  16   1    -0.05  -0.02   0.01    -0.00   0.00   0.00    -0.02  -0.00   0.01
  17   1     0.10   0.03  -0.07    -0.34   0.02   0.13     0.31  -0.02  -0.12
  18   1     0.07   0.03  -0.09    -0.24  -0.26   0.17     0.22   0.23  -0.16
  19   1     0.01  -0.03   0.02    -0.35  -0.12   0.00     0.31   0.10  -0.00
                     34                     35                     36
                        a                      a                      a 
 Frequencies --  1473.6352              1477.0068              1478.2739
 Red. masses --     1.8996                 1.6059                 1.6171
 Frc consts  --     0.0000                 0.0000                 0.0000
 IR Inten    --     0.7960                 0.5874                 1.2673
 Raman Activ --     0.0000                 0.0000                 0.0000
 Depolar     --     0.0000                 0.0000                 0.0000
 Atom AN      X      Y      Z        X      Y      Z        X      Y      Z
   1   6    -0.01   0.03  -0.06    -0.01  -0.10   0.12    -0.02  -0.09   0.09
   2   6    -0.02   0.02  -0.01     0.02  -0.05   0.02     0.00  -0.03   0.02
   3   1     0.01  -0.02  -0.00    -0.02   0.03   0.01    -0.02   0.01   0.01
   4   6    -0.11  -0.14   0.06     0.01   0.03  -0.01    -0.06  -0.06   0.02
   5   6    -0.11   0.14   0.05    -0.02   0.04   0.01    -0.06   0.06   0.02
   6   6    -0.02  -0.02  -0.01    -0.02  -0.05  -0.02     0.00   0.03   0.02
   7   1     0.01   0.02  -0.00     0.02   0.03  -0.01    -0.02  -0.01   0.01
   8   8     0.00  -0.00  -0.00     0.00   0.01  -0.00     0.01  -0.00  -0.00
   9   6    -0.01  -0.03  -0.06     0.01  -0.09  -0.11    -0.02   0.10   0.10
  10   1     0.03  -0.15   0.19    -0.02   0.28  -0.43    -0.01   0.22  -0.37
  11   1     0.15   0.05   0.08    -0.28  -0.07  -0.06    -0.22  -0.05  -0.02
  12   1    -0.14  -0.04  -0.00     0.31   0.20   0.01     0.27   0.20   0.01
  13   1     0.20   0.17  -0.33    -0.02  -0.02   0.04     0.11   0.09  -0.17
  14   1     0.21   0.34   0.14    -0.02  -0.04  -0.02     0.11   0.17   0.07
  15   1     0.21  -0.33   0.14     0.03  -0.06   0.02     0.11  -0.17   0.07
  16   1     0.20  -0.17  -0.33     0.04  -0.03  -0.06     0.11  -0.08  -0.16
  17   1     0.15  -0.05   0.07     0.27  -0.07   0.06    -0.24   0.05  -0.02
  18   1     0.03   0.15   0.18     0.03   0.27   0.41    -0.01  -0.24  -0.40
  19   1    -0.13   0.04  -0.00    -0.30   0.18  -0.00     0.29  -0.21   0.00
                     37                     38                     39
                        a                      a                      a 
 Frequencies --  1487.2947              1495.6945              1496.2911
 Red. masses --     2.0194                 1.5854                 1.6650
 Frc consts  --     0.0000                 0.0000                 0.0000
 IR Inten    --     2.6209                 3.8544                 1.3034
 Raman Activ --     0.0000                 0.0000                 0.0000
 Depolar     --     0.0000                 0.0000                 0.0000
 Atom AN      X      Y      Z        X      Y      Z        X      Y      Z
   1   6     0.02   0.06   0.02    -0.05  -0.12  -0.10     0.04   0.09   0.09
   2   6     0.03  -0.00   0.00    -0.02  -0.03  -0.02     0.01   0.03   0.02
   3   1    -0.02   0.02   0.00     0.02   0.01  -0.00    -0.01  -0.02   0.00
   4   6     0.14   0.14  -0.04     0.02   0.03  -0.01    -0.05  -0.06   0.02
   5   6    -0.14   0.15   0.04     0.01  -0.02  -0.01     0.06  -0.07  -0.02
   6   6    -0.03  -0.00  -0.00    -0.02   0.02  -0.02    -0.02   0.04  -0.02
   7   1     0.02   0.02  -0.00     0.02  -0.00  -0.00     0.01  -0.02  -0.00
   8   8     0.00  -0.01  -0.00     0.01   0.00   0.00     0.00  -0.01   0.00
   9   6    -0.02   0.06  -0.02    -0.05   0.10  -0.09    -0.05   0.11  -0.10
  10   1    -0.04   0.02   0.08     0.13  -0.17  -0.06    -0.11   0.14   0.04
  11   1    -0.01  -0.04  -0.15     0.12   0.16   0.48    -0.10  -0.13  -0.38
  12   1    -0.04  -0.19  -0.00    -0.02   0.47  -0.00     0.02  -0.37   0.00
  13   1    -0.22  -0.16   0.34    -0.04  -0.03   0.06     0.09   0.05  -0.13
  14   1    -0.25  -0.32  -0.15    -0.03  -0.07  -0.03     0.08   0.14   0.06
  15   1     0.25  -0.33   0.15    -0.02   0.05  -0.02    -0.08   0.15  -0.06
  16   1     0.22  -0.16  -0.34    -0.03   0.02   0.04    -0.10   0.06   0.14
  17   1     0.01  -0.05   0.16     0.10  -0.14   0.40     0.12  -0.15   0.45
  18   1     0.05   0.02  -0.08     0.11   0.14  -0.05     0.13   0.17  -0.04
  19   1     0.04  -0.19   0.00    -0.02  -0.40  -0.00    -0.03  -0.44  -0.00
                     40                     41                     42
                        a                      a                      a 
 Frequencies --  2826.2540              2828.6122              2977.8995
 Red. masses --     1.7200                 1.7368                 1.7993
 Frc consts  --     0.0000                 0.0000                 0.0000
 IR Inten    --    14.5250               136.9317                 0.6190
 Raman Activ --     0.0000                 0.0000                 0.0000
 Depolar     --     0.0000                 0.0000                 0.0000
 Atom AN      X      Y      Z        X      Y      Z        X      Y      Z
   1   6     0.00  -0.00   0.00    -0.00   0.00  -0.00    -0.00  -0.00   0.01
   2   6     0.00   0.02  -0.23    -0.00  -0.01   0.12     0.00   0.00  -0.01
   3   1     0.02  -0.04   0.86    -0.01   0.02  -0.44     0.00   0.00   0.02
   4   6     0.00   0.00   0.00    -0.00  -0.00  -0.01     0.05   0.00  -0.18
   5   6    -0.00   0.00   0.00    -0.00   0.00  -0.01    -0.05   0.00   0.18
   6   6     0.00   0.01   0.11    -0.00   0.02   0.23    -0.00   0.00   0.01
   7   1    -0.01  -0.02  -0.44    -0.02  -0.04  -0.86    -0.00   0.00  -0.02
   8   8    -0.01  -0.01  -0.00     0.02  -0.00   0.01     0.00  -0.00   0.00
   9   6    -0.00  -0.00   0.00    -0.00  -0.00  -0.00     0.00  -0.00  -0.01
  10   1    -0.01  -0.01  -0.00     0.00   0.00   0.00     0.01   0.00   0.00
  11   1    -0.00   0.01  -0.00     0.00  -0.01   0.00    -0.00   0.01  -0.00
  12   1     0.00  -0.00  -0.03    -0.00   0.00   0.02    -0.00   0.00  -0.02
  13   1    -0.01  -0.01  -0.01     0.01   0.01   0.01     0.06   0.09   0.05
  14   1     0.01   0.01  -0.02    -0.01  -0.00   0.02    -0.23  -0.10   0.62
  15   1    -0.00   0.00   0.01    -0.01   0.01   0.03     0.23  -0.10  -0.62
  16   1     0.00  -0.00   0.00     0.01  -0.02   0.01    -0.06   0.09  -0.05
  17   1     0.00   0.00   0.00     0.00   0.01   0.00     0.00   0.01   0.00
  18   1     0.00  -0.00   0.00     0.01  -0.01   0.00    -0.01   0.00  -0.00
  19   1    -0.00  -0.00   0.01    -0.00  -0.00   0.03     0.00   0.00   0.02
                     43                     44                     45
                        a                      a                      a 
 Frequencies --  2989.9250              3019.2626              3021.8175
 Red. masses --     1.7710                 1.7569                 1.6741
 Frc consts  --     0.0000                 0.0000                 0.0000
 IR Inten    --    68.3499                31.0713                36.2892
 Raman Activ --     0.0000                 0.0000                 0.0000
 Depolar     --     0.0000                 0.0000                 0.0000
 Atom AN      X      Y      Z        X      Y      Z        X      Y      Z
   1   6     0.00   0.01  -0.01    -0.01  -0.01  -0.01     0.01   0.02   0.00
   2   6    -0.00  -0.00   0.01     0.00   0.00   0.01    -0.00  -0.00  -0.00
   3   1    -0.00   0.00  -0.03    -0.00   0.00  -0.02     0.00  -0.00   0.01
   4   6    -0.06  -0.03   0.17     0.07   0.12   0.12    -0.08  -0.13  -0.08
   5   6    -0.06   0.03   0.17     0.07  -0.12   0.12     0.08  -0.13   0.08
   6   6    -0.00   0.00   0.01     0.00  -0.00   0.01     0.00  -0.00   0.00
   7   1    -0.00  -0.00  -0.03    -0.00  -0.00  -0.02    -0.00  -0.00  -0.01
   8   8     0.00   0.00  -0.00     0.00   0.00  -0.00    -0.00   0.00   0.00
   9   6     0.00  -0.01  -0.01    -0.01   0.01  -0.01    -0.01   0.02  -0.00
  10   1    -0.01  -0.01  -0.01     0.04   0.03   0.02    -0.05  -0.04  -0.02
  11   1     0.00  -0.02   0.00    -0.00  -0.00  -0.00     0.01  -0.02   0.01
  12   1     0.00  -0.00   0.04    -0.00  -0.00   0.02     0.00   0.00   0.00
  13   1    -0.01  -0.00   0.03    -0.26  -0.46  -0.42     0.26   0.45   0.42
  14   1     0.23   0.09  -0.64     0.01   0.02   0.01     0.03   0.00  -0.13
  15   1     0.23  -0.10  -0.63     0.01  -0.02   0.01    -0.03   0.00   0.13
  16   1    -0.01   0.00   0.03    -0.26   0.46  -0.43    -0.25   0.45  -0.42
  17   1     0.00   0.02   0.00    -0.00   0.00  -0.00    -0.01  -0.02  -0.01
  18   1    -0.01   0.01  -0.01     0.04  -0.03   0.02     0.05  -0.04   0.02
  19   1     0.00   0.00   0.04     0.00   0.00   0.02    -0.00   0.00  -0.00
                     46                     47                     48
                        a                      a                      a 
 Frequencies --  3037.3604              3037.6671              3039.5052
 Red. masses --     1.5372                 1.5207                 1.9580
 Frc consts  --     0.0000                 0.0000                 0.0000
 IR Inten    --    43.7848                13.5580                 8.7593
 Raman Activ --     0.0000                 0.0000                 0.0000
 Depolar     --     0.0000                 0.0000                 0.0000
 Atom AN      X      Y      Z        X      Y      Z        X      Y      Z
   1   6    -0.10  -0.09   0.04     0.11   0.10  -0.08    -0.08  -0.03  -0.14
   2   6    -0.00  -0.00   0.00     0.00   0.00  -0.00    -0.00  -0.00  -0.01
   3   1    -0.00   0.00  -0.01     0.00  -0.00   0.01     0.00  -0.00   0.01
   4   6    -0.01  -0.01   0.00     0.01   0.01   0.00    -0.00  -0.01  -0.00
   5   6    -0.01   0.01   0.00    -0.01   0.01  -0.00     0.00  -0.01   0.01
   6   6    -0.00   0.00   0.00    -0.00   0.00   0.00     0.00  -0.00   0.01
   7   1    -0.00  -0.00  -0.01    -0.00  -0.00  -0.01    -0.00  -0.00  -0.02
   8   8    -0.00  -0.00   0.00     0.00  -0.00  -0.00     0.00   0.00  -0.00
   9   6    -0.12   0.11   0.06    -0.08   0.08   0.07     0.11  -0.05   0.21
  10   1     0.39   0.29   0.18    -0.44  -0.33  -0.21     0.27   0.20   0.10
  11   1    -0.02   0.02  -0.01     0.02  -0.03   0.01    -0.00  -0.08   0.00
  12   1    -0.02  -0.01  -0.31     0.03   0.00   0.48     0.00  -0.01   0.37
  13   1     0.01   0.02   0.02    -0.02  -0.04  -0.04     0.01   0.02   0.02
  14   1     0.01   0.00  -0.03    -0.01  -0.00   0.03     0.00  -0.00  -0.00
  15   1     0.01  -0.01  -0.03     0.01  -0.00  -0.03     0.00  -0.00  -0.01
  16   1     0.02  -0.03   0.03     0.02  -0.03   0.03    -0.02   0.04  -0.03
  17   1    -0.02  -0.03  -0.01    -0.01  -0.03  -0.00     0.00  -0.11  -0.00
  18   1     0.48  -0.36   0.22     0.33  -0.24   0.16    -0.39   0.30  -0.15
  19   1    -0.03   0.01  -0.42    -0.03   0.00  -0.41    -0.01  -0.02  -0.61
                     49                     50                     51
                        a                      a                      a 
 Frequencies --  3039.8864              3052.4540              3053.1826
 Red. masses --     1.9512                 1.6657                 1.6710
 Frc consts  --     0.0000                 0.0000                 0.0000
 IR Inten    --    78.4579                 3.3551                40.5755
 Raman Activ --     0.0000                 0.0000                 0.0000
 Depolar     --     0.0000                 0.0000                 0.0000
 Atom AN      X      Y      Z        X      Y      Z        X      Y      Z
   1   6     0.10   0.04   0.22    -0.02   0.16  -0.03    -0.02   0.18  -0.03
   2   6     0.00   0.00   0.02    -0.00   0.01  -0.00    -0.00   0.01  -0.00
   3   1    -0.00   0.00  -0.03     0.00  -0.00   0.01    -0.00  -0.00   0.00
   4   6     0.00   0.01   0.02     0.00   0.00  -0.00     0.00   0.00   0.00
   5   6     0.00  -0.01   0.01     0.00  -0.00  -0.00    -0.00   0.00  -0.00
   6   6     0.00  -0.00   0.01    -0.00  -0.01  -0.00     0.00   0.01   0.00
   7   1    -0.00  -0.00  -0.02     0.00   0.00   0.01     0.00  -0.00  -0.00
   8   8     0.00  -0.00  -0.00    -0.00   0.00  -0.00    -0.00  -0.00  -0.00
   9   6     0.06  -0.02   0.14    -0.02  -0.18  -0.03     0.02   0.16   0.02
  10   1    -0.33  -0.25  -0.12    -0.01   0.02  -0.01    -0.02   0.01  -0.01
  11   1     0.00   0.10   0.00     0.08  -0.61   0.20     0.09  -0.66   0.22
  12   1    -0.01   0.02  -0.67    -0.00   0.02  -0.09    -0.00   0.03  -0.11
  13   1    -0.02  -0.04  -0.03    -0.00  -0.00  -0.00    -0.01  -0.02  -0.02
  14   1     0.01   0.01  -0.02    -0.00  -0.00   0.01    -0.00  -0.00   0.01
  15   1     0.01  -0.01  -0.02    -0.00   0.00   0.01     0.00  -0.00  -0.01
  16   1    -0.02   0.03  -0.02    -0.00   0.00  -0.00     0.01  -0.02   0.02
  17   1     0.00  -0.06   0.00     0.09   0.66   0.22    -0.08  -0.61  -0.20
  18   1    -0.20   0.15  -0.07    -0.01  -0.02  -0.01     0.02   0.01   0.01
  19   1    -0.01  -0.01  -0.44    -0.00  -0.03  -0.10     0.00   0.02   0.10
