8
 energy: -10.906717826407 gnorm: 0.009411296733 xtb: 6.7.1 (edcfbbe)
C           -2.25110543239745       -0.42247453308028        0.00008641912530
C           -1.19062125610876        0.67739045696574       -0.00024994100251
Br           0.66262861664575       -0.03913351008192        0.00229578376173
H           -2.89099014579567       -0.34298461460648       -0.88246107500245
H           -1.80416273286023       -1.41756350468227       -0.00654647080226
H           -2.88287579779497       -0.35099481895525        0.88909442954567
H           -1.23376011356010        1.30800980961479        0.88602688452034
H           -1.23218046573244        1.30606343640551       -0.88798587130655
8
 energy: -10.906845067799 gnorm: 0.005724072566 xtb: 6.7.1 (edcfbbe)
C           -2.24121530423271       -0.41871073164281        0.00006660698345
C           -1.19176885283113        0.68303688493298       -0.00042296857463
Br           0.63278724547783       -0.06712918866913        0.00338357096289
H           -2.87858683115364       -0.33988051422370       -0.87886557253830
H           -1.78511313323301       -1.40631772536130       -0.00769285093708
H           -2.86876031764655       -0.34911170940401        0.88678521996639
H           -1.24630710204283        1.30964938290979        0.88722207211851
H           -1.24410303194184        1.30677632303803       -0.89021591914195
8
 energy: -10.906898339017 gnorm: 0.004027956932 xtb: 6.7.1 (edcfbbe)
C           -2.24653684331244       -0.41929908593847        0.00005070100742
C           -1.18359259153911        0.66777512592730       -0.00063723539696
Br           0.64705941781380       -0.03231724231332        0.00497514544163
H           -2.88274750358605       -0.33122179439750       -0.87491430524891
H           -1.80308972834941       -1.40992419479694       -0.00949115857679
H           -2.87053152463807       -0.34259633811556        0.88478280849633
H           -1.24346279958910        1.29510659068868        0.88547132089973
H           -1.24016575440351        1.29078966052566       -0.88997711778319
8
 energy: -10.906948758766 gnorm: 0.000916041475 xtb: 6.7.1 (edcfbbe)
C           -2.24544558762622       -0.42032280523678        0.00011176166558
C           -1.18459139023745        0.67402932881236       -0.00078298373754
Br           0.64416555754859       -0.04346690844652        0.00596544099913
H           -2.88440443857055       -0.33533414077882       -0.87558095812083
H           -1.79997540616398       -1.41183846936710       -0.01065614354045
H           -2.87067311232604       -0.34817083738126        0.88677073008320
H           -1.24312326513252        1.30437215054250        0.88417225683519
H           -1.23901968509570        1.29904440343547       -0.88973994534502
8
 energy: -10.906952199085 gnorm: 0.000267411038 xtb: 6.7.1 (edcfbbe)
C           -2.24528397632236       -0.42038516928307        0.00015571197180
C           -1.18402701159005        0.67433965614319       -0.00128150781646
Br           0.64166480237772       -0.04561982430949        0.00929935883516
H           -2.88644141716975       -0.33307287583397       -0.87395930587307
H           -1.79788889326898       -1.41122860313492       -0.01438296707882
H           -2.86760517518649       -0.35028044227911        0.88926818310766
H           -1.24490832525319        1.30645135170367        0.88263155856840
H           -1.23857733119078        1.29810862857357       -0.89147087287540
8
 energy: -10.906957814912 gnorm: 0.000904862203 xtb: 6.7.1 (edcfbbe)
C           -2.24533816819119       -0.42072523733793        0.00036586170079
C           -1.18305104810401        0.67418906135006       -0.00201717809577
Br           0.64075136606089       -0.04569669334720        0.01584684446407
H           -2.89150174567866       -0.32810660217474       -0.86965000344898
H           -1.79774338218706       -1.41151532418519       -0.02228769220936
H           -2.86226877798892       -0.35493666039365        0.89366644419784
H           -1.24791947973353        1.31027985044908        0.87915037912503
H           -1.23599609178140        1.29482432721942       -0.89481449689435
8
 energy: -10.906969036261 gnorm: 0.001273693313 xtb: 6.7.1 (edcfbbe)
C           -2.24528312796433       -0.42071693344528        0.00039401169349
C           -1.18297618307877        0.67437943999845       -0.00389718121698
Br           0.63974766244634       -0.04659001642049        0.02578187943942
H           -2.89835102109208       -0.32233577622872       -0.86405997939523
H           -1.79695730047064       -1.41105301338795       -0.03244923945751
H           -2.85488405694540       -0.36080221412969        0.89934641330007
H           -1.25039887838402        1.31400779234206        0.87459529094490
H           -1.23396442211497        1.29142344285148       -0.89945103646890
8
 energy: -10.906991859080 gnorm: 0.002002380305 xtb: 6.7.1 (edcfbbe)
C           -2.24514394012480       -0.42084011594022        0.00090282906721
C           -1.18243211914995        0.67448701689602       -0.00426081941518
Br           0.63826546235396       -0.04749159679459        0.03580645677015
H           -2.90687452660344       -0.31363563151329       -0.85625982177645
H           -1.79634441044512       -1.41074451824736       -0.04642406758286
H           -2.84549061598243       -0.36954663787739        0.90690191990017
H           -1.25723153574818        1.32158018762294        0.86875210068769
H           -1.22781564190392        1.28450401743374       -0.90515843881146
8
 energy: -10.907021245298 gnorm: 0.002598524179 xtb: 6.7.1 (edcfbbe)
C           -2.24506176942174       -0.42086786546178        0.00071993859134
C           -1.18217441586323        0.67456675455765       -0.00814843092056
Br           0.63722612423287       -0.04808428574204        0.05163763665732
H           -2.91671228605769       -0.30605539543146       -0.84821212080458
H           -1.79599092088464       -1.41026874543542       -0.06043736368103
H           -2.83491929627047       -0.37729621475162        0.91446182418954
H           -1.25847801507931        1.32526582930324        0.86197062180968
H           -1.22695674825965        1.28105264454128       -0.91173194700245
8
 energy: -10.907066138010 gnorm: 0.002402411904 xtb: 6.7.1 (edcfbbe)
C           -2.24496621973070       -0.42062035693891        0.00096011643614
C           -1.18279538630276        0.67446531719000       -0.01100670121489
Br           0.63763939523450       -0.04722755159462        0.06623091427112
H           -2.92613386598669       -0.29773689280680       -0.83910712951211
H           -1.79724994729760       -1.40944986739081       -0.07495756427323
H           -2.82475253788333       -0.38618709005461        0.92138990770636
H           -1.26064153389489        1.32966011241528        0.85499458264162
H           -1.22416723174241        1.27540905076031       -0.91824396721575
8
 energy: -10.907126118934 gnorm: 0.003094893731 xtb: 6.7.1 (edcfbbe)
C           -2.24485784504957       -0.42060671441190        0.00116026643162
C           -1.18271126654100        0.67440391058323       -0.01382468177744
Br           0.63716926606120       -0.04719277001186        0.08262110403976
H           -2.93749440152935       -0.28772765668728       -0.82877108421803
H           -1.79779219878842       -1.40883692609891       -0.09230690469618
H           -2.81239906342638       -0.39650620767329        0.93020772933909
H           -1.26494733339573        1.33605706637706        0.84696271417603
H           -1.22003448493463        1.26872201950280       -0.92578898445558
8
 energy: -10.907208268178 gnorm: 0.003961126614 xtb: 6.7.1 (edcfbbe)
C           -2.24460526939576       -0.42056428040216        0.00141866461970
C           -1.18262422155731        0.67445527496906       -0.01696668778914
Br           0.63565818149593       -0.04738806582332        0.10119163787233
H           -2.95013299003248       -0.27644147599844       -0.81660669098524
H           -1.79834702399780       -1.40776598544240       -0.11212858603208
H           -2.79801922352831       -0.40851207992442        0.93995234242963
H           -1.26995384645213        1.34347970689871        0.83777827333494
H           -1.21504293413602        1.26104962730282       -0.93437879461087
8
 energy: -10.907314960448 gnorm: 0.004982680130 xtb: 6.7.1 (edcfbbe)
C           -2.24424744107465       -0.42047392438061        0.00168655428835
C           -1.18243865505739        0.67443778203223       -0.02035207572769
Br           0.63382161831786       -0.04765608366109        0.12154164367772
H           -2.96380476754407       -0.26404333585687       -0.80285428299460
H           -1.79918678395855       -1.40626812510701       -0.13396395500337
H           -2.78187616245173       -0.42174692062174        0.95032947071629
H           -1.27576285457989        1.35162582427589        0.82756653508440
H           -1.20957228125547        1.25243750489905       -0.94369373120183
8
 energy: -10.907445347565 gnorm: 0.006007447908 xtb: 6.7.1 (edcfbbe)
C           -2.24380983433142       -0.42036240295221        0.00197404001369
C           -1.18233884177288        0.67442861646418       -0.02380740252724
Br           0.63148419071318       -0.04780150739554        0.14268326439943
H           -2.97778615659529       -0.25123253548910       -0.78798553770821
H           -1.80043797459617       -1.40433420185327       -0.15678114593804
H           -2.76472885008251       -0.43575642647323        0.96067838956727
H           -1.28184880525762        1.36010983082999        0.81680522355952
H           -1.20360105568116        1.24326134844902       -0.95330667252714
8
 energy: -10.907595859340 gnorm: 0.006918250404 xtb: 6.7.1 (edcfbbe)
C           -2.24330157052656       -0.42021268799915        0.00225714691254
C           -1.18224989462258        0.67434780260327       -0.02713236433822
Br           0.62897406168428       -0.04779397806780        0.16357001055884
H           -2.99137716577303       -0.23856099072693       -0.77260549330540
H           -1.80218153930454       -1.40199166675451       -0.17951521204118
H           -2.74730406486883       -0.44982861182228        0.97042221819396
H           -1.28814354594980        1.36850981129366        0.80595194697438
H           -1.19748360824282        1.23384304305360       -0.96268809411565
8
 energy: -10.907761545182 gnorm: 0.007613788870 xtb: 6.7.1 (edcfbbe)
C           -2.24277157424052       -0.42005193583515        0.00253958019902
C           -1.18224754497130        0.67423769821981       -0.03018505249315
Br           0.62629521676751       -0.04757770028308        0.18339720411356
H           -3.00406978755645       -0.22651885892259       -0.75725695240060
H           -1.80436211413391       -1.39931490370160       -0.20133287288657
H           -2.73027914290769       -0.46352202893649        0.97919199546598
H           -1.29433846219833        1.37654961300992        0.79541366125523
H           -1.19129391836318        1.22451083802904       -0.97150740441420
8
 energy: -10.907937208557 gnorm: 0.008114249696 xtb: 6.7.1 (edcfbbe)
C           -2.24224520282966       -0.41988587693882        0.00280870735467
C           -1.18227869364202        0.67407509300387       -0.03293288595232
Br           0.62364912430517       -0.04718594357830        0.20190946087569
H           -3.01575420417993       -0.21521901089337       -0.74223306555575
H           -1.80689936411902       -1.39640119585467       -0.22194035178807
H           -2.71391898788074       -0.47659001026258        0.98695610940783
H           -1.30042134463267        1.38412074796892        0.78533427278493
H           -1.18519865462499        1.21539891813481       -0.97964208828771
8
 energy: -10.908118160174 gnorm: 0.008431614045 xtb: 6.7.1 (edcfbbe)
C           -2.24174329116319       -0.41972781896075        0.00306821730389
C           -1.18236817154661        0.67389593894650       -0.03538499719518
Br           0.62102630239037       -0.04662903118857        0.21903377827490
H           -3.02641265688544       -0.20473054281455       -0.72770033295921
H           -1.80969867353859       -1.39332909012935       -0.24121664129943
H           -2.69838785127180       -0.48896976181391        0.99375233256696
H           -1.30626154704574        1.39118778544071        0.77579408534955
H           -1.17922143854288        1.20661524209976       -0.98708628320222
8
 energy: -10.908300473175 gnorm: 0.008627709117 xtb: 6.7.1 (edcfbbe)
C           -2.24126958922672       -0.41957768689512        0.00331004777806
C           -1.18247673140489        0.67369356489423       -0.03758942119346
Br           0.61850745639213       -0.04594943483981        0.23491786416311
H           -3.03617900918493       -0.19496825407128       -0.71369156035452
H           -1.81268722982589       -1.39016452689727       -0.25926590369625
H           -2.68364725379840       -0.50067125561512        0.99972717543554
H           -1.31188373130452        1.39778002320296        0.76675591314721
H           -1.17343123925064        1.19817029180125       -0.99390395644042
8
 energy: -10.909897972966 gnorm: 0.025130882868 xtb: 6.7.1 (edcfbbe)
C           -2.23489648287911       -0.41716510805313        0.00647219021221
C           -1.18584707488436        0.67009287421541       -0.05732338331660
Br           0.58693749680915       -0.03227076751373        0.40962733758921
H           -3.14177137083062       -0.08421295953548       -0.53881896023690
H           -1.85971541326289       -1.34460349492720       -0.46810804227918
H           -2.50732519761534       -0.63983377153248        1.05583655251458
H           -1.38489273610703        1.47547567570172        0.66033124647347
H           -1.09555654883366        1.09083027322474       -1.06775678211753
8
 energy: -10.904962155189 gnorm: 0.064430548022 xtb: 6.7.1 (edcfbbe)
C           -2.22750438024618       -0.41141450644564        0.00904142769841
C           -1.20019423534136        0.66219351929342       -0.02611094012981
Br           0.56643829457396        0.00157885027337        0.38628349113821
H           -3.11798303167996       -0.07955689856256       -0.43510753020046
H           -1.93840572845102       -1.28410836386020       -0.50461919723959
H           -2.44310668406682       -0.68588465186863        0.99016598103491
H           -1.44442250873036        1.49875107464542        0.63174390756948
H           -1.01788905366213        1.01675369810466       -1.05113698103187
8
 energy: -10.910956492819 gnorm: 0.013086515518 xtb: 6.7.1 (edcfbbe)
C           -2.22985812504935       -0.41620632759411        0.00599325326840
C           -1.18000444222715        0.66168496399452       -0.07520015355962
Br           0.57347602059686       -0.00952680759757        0.48689001189430
H           -3.15488674745050       -0.05544503469709       -0.42328035599139
H           -1.92941524554548       -1.29868137144699       -0.54287902487285
H           -2.41653252268541       -0.70322189054837        1.03011031974085
H           -1.39871010735654        1.47885597305908        0.61232027550177
H           -1.08713615788631        1.06085321641038       -1.09369416714218
8
 energy: -10.911409483392 gnorm: 0.002880524499 xtb: 6.7.1 (edcfbbe)
C           -2.23588681448871       -0.41897063848659        0.00711061351597
C           -1.18530104839170        0.66730665538455       -0.06788142595411
Br           0.57321824489054       -0.00519742028406        0.47693460579220
H           -3.17132842733592       -0.04820339342331       -0.41352007941172
H           -1.92670128750900       -1.29686203261872       -0.56060814090026
H           -2.41133071299785       -0.72023927235423        1.03965112345145
H           -1.41036042811796        1.49832311520655        0.59955787884378
H           -1.05537685365326        1.04215570815565       -1.08098441649805
8
 energy: -10.911469912364 gnorm: 0.002170815458 xtb: 6.7.1 (edcfbbe)
C           -2.23499643249578       -0.41866793393227        0.00620664639709
C           -1.18601039372872        0.66867769595479       -0.07103475292167
Br           0.56735605281892       -0.00426207149619        0.49180202065269
H           -3.17561231765684       -0.04399928409128       -0.39841376433039
H           -1.93208578944405       -1.29065781045251       -0.57258771459868
H           -2.39719004859344       -0.72854911750931        1.03801263844993
H           -1.41232110065185        1.50150156852366        0.59360621171253
H           -1.05220729785212        1.03426967458296       -1.08733112652222
8
 energy: -10.911528444223 gnorm: 0.001121847502 xtb: 6.7.1 (edcfbbe)
C           -2.23501037734872       -0.41853129219892        0.00549236918711
C           -1.18536446785965        0.66777097552263       -0.07317220753399
Br           0.56433354448665        0.00185238578653        0.51130291502662
H           -3.18154730804137       -0.03598784351498       -0.37535392196329
H           -1.94352032802302       -1.28118254913691       -0.59071409992549
H           -2.37924243346045       -0.74249850795035        1.03469110649012
H           -1.41792586570914        1.50597532579642        0.58187038450519
H           -1.04479009164816        1.02091422727543       -1.09385638694700
8
 energy: -10.911557527886 gnorm: 0.000915328704 xtb: 6.7.1 (edcfbbe)
C           -2.23431194594218       -0.41907428266596        0.00585908145851
C           -1.18537651072156        0.66794722009575       -0.07601559810599
Br           0.55718695378627        0.00486401975212        0.53103969582694
H           -3.18670328442404       -0.02848891192842       -0.34989762991390
H           -1.95529668024830       -1.27170856516518       -0.60995518614548
H           -2.35950459105233       -0.75951326319447        1.03202554567366
H           -1.42476174544278        1.51398135960964        0.56639228026539
H           -1.03429952355895        1.01030514507636       -1.09918803021986
8
 energy: -10.911558620941 gnorm: 0.000627195762 xtb: 6.7.1 (edcfbbe)
C           -2.23583711070923       -0.41936465711823        0.00531456319555
C           -1.18397718773864        0.66486807612795       -0.07694345225841
Br           0.55917480911945        0.01379651125740        0.53844660932612
H           -3.18972590214988       -0.02507838067740       -0.34163729000512
H           -1.96372543514077       -1.26957508254570       -0.61673181483447
H           -2.35451987745408       -0.76507525312214        1.03015822384291
H           -1.42409953406147        1.51360133458755        0.56171424049753
H           -1.03035708946924        1.00514017307041       -1.10006092092483
8
 energy: -10.911561422682 gnorm: 0.000153691765 xtb: 6.7.1 (edcfbbe)
C           -2.23474537486540       -0.41898808153937        0.00557862337265
C           -1.18415205813427        0.66620745202898       -0.07688630718420
Br           0.55697315611506        0.00953810988349        0.53802574664601
H           -3.18873198131462       -0.02566424981156       -0.34172217388407
H           -1.96189761162581       -1.26915330953900       -0.61623968966031
H           -2.35334036789449       -0.76487378227964        1.03039126364770
H           -1.42607418845849        1.51502166217198        0.56121579937096
H           -1.03109890142585        1.00622492066497       -1.10010310346948
8
 energy: -10.911561464309 gnorm: 0.000100741461 xtb: 6.7.1 (edcfbbe)
C           -2.23479483893849       -0.41905106035452        0.00562671651121
C           -1.18436458334767        0.66645093698859       -0.07704336403500
Br           0.55646008974118        0.00956717021652        0.53791019413672
H           -3.18888232449318       -0.02580220837653       -0.34174120312575
H           -1.96169047553902       -1.26926313456326       -0.61619952435347
H           -2.35339171895545       -0.76499231606970        1.03052257901293
H           -1.42573543623646        1.51508512129556        0.56149198307481
H           -1.03066803983478        1.00631821244318       -1.10030722238218
