14
 energy: -2731.933787893160 gnorm: 0.021371550552 xtb: 6.7.1 (edcfbbe)
C           -1.59657714030749        1.68883962494837        0.36601411486219
C           -1.59084052510494        0.23364460500353        0.82473431776546
C           -2.24482887039474       -0.67061884619717       -0.21579189429562
C           -0.18185631128059       -0.23648130620479        1.16126461171459
Br           1.02162952785271       -0.18745282738307       -0.37786796886744
H           -1.04227016726186        1.79671326949617       -0.56409956424997
H           -2.61608009515925        2.02617871109785        0.19630766158699
H           -1.14220590180614        2.33322141103391        1.11642155949472
H           -2.15949741275693        0.15881759067038        1.76164597438063
H           -3.27187460724985       -0.36055561155977       -0.39185121917364
H           -2.25210239809797       -1.70580850855589        0.12060901625345
H           -1.70555276725578       -0.61690468227337       -1.15940046361376
H           -0.17970200897963       -1.27089013806316        1.50377980896636
H            0.27929974542377        0.39987144017719        1.91605141214905
14
 energy: -2731.934681363899 gnorm: 0.007815344213 xtb: 6.7.1 (edcfbbe)
C           -1.60671591246380        1.69899595096570        0.36770315612726
C           -1.58200477116288        0.23559232006407        0.80674593717964
C           -2.25875490535117       -0.67418822940204       -0.21754747712947
C           -0.17679134837474       -0.23804528639376        1.16217633213888
Br           1.09361899951591       -0.21374948488685       -0.35353463090076
H           -1.05734808631072        1.81729726199565       -0.56911017810215
H           -2.63311300151202        2.03595230866850        0.20573132929616
H           -1.14597995807189        2.34851527599060        1.11720102764330
H           -2.13930254925274        0.15531015630836        1.75294668788174
H           -3.29237529251633       -0.36357750358102       -0.38599660441648
H           -2.26272670529684       -1.71598309419904        0.11488361764540
H           -1.72780549758106       -0.62307546323598       -1.17092032152822
H           -0.17608009418580       -1.27287564552457        1.50778207241896
H            0.28292097244743        0.39840615283359        1.91975734539105
14
 energy: -2731.934778630894 gnorm: 0.002638319608 xtb: 6.7.1 (edcfbbe)
C           -1.60507416711007        1.69959798661836        0.36494437672083
C           -1.57699868708733        0.23524851342562        0.80253547618342
C           -2.25712805212453       -0.67421839364563       -0.22059551552882
C           -0.17882373929675       -0.24035388066738        1.17380037383913
Br           1.08953850120654       -0.21291932863547       -0.35624584650309
H           -1.05983568636513        1.82796936032404       -0.57568149476446
H           -2.63524635018527        2.03474859845533        0.20928765964312
H           -1.14397155060316        2.35106596312591        1.11504372865129
H           -2.12954526846704        0.15254300268952        1.75322411077707
H           -3.29383103526317       -0.36309966615938       -0.38242543331636
H           -2.26165914009182       -1.71798527633722        0.11125590661219
H           -1.73388031754418       -0.62685746959616       -1.18105421305826
H           -0.17815734151621       -1.27652059638820        1.51570449889281
H            0.28215477445927        0.39935584592235        1.92802453225013
14
 energy: -2731.934795496433 gnorm: 0.001365194267 xtb: 6.7.1 (edcfbbe)
C           -1.60459988832102        1.69883679646808        0.36495002041159
C           -1.57858994553531        0.23536186806428        0.80381599497571
C           -2.25625989255700       -0.67383497429026       -0.22044091646771
C           -0.18123448048984       -0.23936714441271        1.17252560980268
Br           1.09692434763669       -0.21620202223587       -0.35341837351333
H           -1.06170842504334        1.82845595973762       -0.57682545311256
H           -2.63516241998256        2.03349913773589        0.21188694727066
H           -1.14256156916613        2.35028570193467        1.11431629386569
H           -2.13255542402747        0.15314388212354        1.75405863368830
H           -3.29337312388171       -0.36334535010085       -0.37978400514768
H           -2.25981068006122       -1.71775809652748        0.11052291513526
H           -1.73536669174105       -0.62563553071662       -1.18210318949416
H           -0.17937981227908       -1.27560917418396        1.51323855296910
H            0.28122003404095        0.40074355879605        1.92507517201469
14
 energy: -2731.934800397721 gnorm: 0.000325031293 xtb: 6.7.1 (edcfbbe)
C           -1.60416519110434        1.69844437554383        0.36512727636907
C           -1.57787698372187        0.23526298665779        0.80336458563248
C           -2.25561086180371       -0.67376879412065       -0.22032096940345
C           -0.18218323111675       -0.23936863304043        1.17368512462135
Br           1.09492646671363       -0.21615978377729       -0.35401642976688
H           -1.06309000710197        1.82647206822584       -0.57718690506382
H           -2.63435179523569        2.03368288836253        0.21379083488315
H           -1.14050862979951        2.34939604378192        1.11340491025295
H           -2.13531036937376        0.15444087781939        1.75155393002822
H           -3.29291068677355       -0.36474979212314       -0.37843350326787
H           -2.25728901428331       -1.71767363175767        0.10953657529905
H           -1.73535955623615       -0.62304825955608       -1.18149880604665
H           -0.17979588948609       -1.27551496812975        1.51381830668074
H            0.28106777731565        0.40115916712966        1.92499320024903
14
 energy: -2731.934800397721 gnorm: 0.000325031293 xtb: 6.7.1 (edcfbbe)
C           -1.60416519110434        1.69844437554383        0.36512727636907
C           -1.57787698372187        0.23526298665779        0.80336458563248
C           -2.25561086180371       -0.67376879412065       -0.22032096940345
C           -0.18218323111675       -0.23936863304043        1.17368512462135
Br           1.09492646671363       -0.21615978377729       -0.35401642976688
H           -1.06309000710197        1.82647206822584       -0.57718690506382
H           -2.63435179523569        2.03368288836253        0.21379083488315
H           -1.14050862979951        2.34939604378192        1.11340491025295
H           -2.13531036937376        0.15444087781939        1.75155393002822
H           -3.29291068677355       -0.36474979212314       -0.37843350326787
H           -2.25728901428331       -1.71767363175767        0.10953657529905
H           -1.73535955623615       -0.62304825955608       -1.18149880604665
H           -0.17979588948609       -1.27551496812975        1.51381830668074
H            0.28106777731565        0.40115916712966        1.92499320024903
