      -----------------------------------------------------------      
     |                   =====================                   |     
     |                           x T B                           |     
     |                   =====================                   |     
     |                         S. Grimme                         |     
     |          Mulliken Center for Theoretical Chemistry        |     
     |                    University of Bonn                     |     
      -----------------------------------------------------------      

   * xtb version 6.7.1 (edcfbbe) compiled by 'albert@albert-system' on 2024-07-22

   xtb is free software: you can redistribute it and/or modify it under
   the terms of the GNU Lesser General Public License as published by
   the Free Software Foundation, either version 3 of the License, or
   (at your option) any later version.
   
   xtb is distributed in the hope that it will be useful,
   but WITHOUT ANY WARRANTY; without even the implied warranty of
   MERCHANTABILITY or FITNESS FOR A PARTICULAR PURPOSE.  See the
   GNU Lesser General Public License for more details.
   
   Cite this work as:
   * C. Bannwarth, E. Caldeweyher, S. Ehlert, A. Hansen, P. Pracht,
     J. Seibert, S. Spicher, S. Grimme, WIREs Comput. Mol. Sci., 2020, 11,
     e01493. DOI: 10.1002/wcms.1493
   
   for GFN2-xTB:
   * C. Bannwarth, S. Ehlert and S. Grimme., J. Chem. Theory Comput., 2019,
     15, 1652-1671. DOI: 10.1021/acs.jctc.8b01176
   for GFN1-xTB:
   * S. Grimme, C. Bannwarth, P. Shushkov, J. Chem. Theory Comput., 2017,
     13, 1989-2009. DOI: 10.1021/acs.jctc.7b00118
   for GFN0-xTB:
   * P. Pracht, E. Caldeweyher, S. Ehlert, S. Grimme, ChemRxiv, 2019, preprint.
     DOI: 10.26434/chemrxiv.8326202.v1
   for GFN-FF:
   * S. Spicher and S. Grimme, Angew. Chem. Int. Ed., 2020, 59, 15665-15673.
     DOI: 10.1002/anie.202004239
   
   for ALPB and GBSA implicit solvation:
   * S. Ehlert, M. Stahn, S. Spicher, S. Grimme, J. Chem. Theory Comput.,
     2021, 17, 4250-4261. DOI: 10.1021/acs.jctc.1c00471
   
   for ddCOSMO and CPCM-X implicit solvation:
   * M. Stahn, S. Ehlert, S. Grimme, J. Phys. Chem. A,
     2023, XX, XXXX-XXXX. DOI: 10.1021/acs.jpca.3c04382
   
   for DFT-D4:
   * E. Caldeweyher, C. Bannwarth and S. Grimme, J. Chem. Phys., 2017,
     147, 034112. DOI: 10.1063/1.4993215
   * E. Caldeweyher, S. Ehlert, A. Hansen, H. Neugebauer, S. Spicher,
     C. Bannwarth and S. Grimme, J. Chem. Phys., 2019, 150, 154122.
     DOI: 10.1063/1.5090222
   * E. Caldeweyher, J.-M. Mewes, S. Ehlert and S. Grimme, Phys. Chem. Chem. Phys.
     2020, 22, 8499-8512. DOI: 10.1039/D0CP00502A
   
   for sTDA-xTB:
   * S. Grimme and C. Bannwarth, J. Chem. Phys., 2016, 145, 054103.
     DOI: 10.1063/1.4959605
   
   in the mass-spec context:
   * V. Asgeirsson, C. Bauer and S. Grimme, Chem. Sci., 2017, 8, 4879.
     DOI: 10.1039/c7sc00601b
   * J. Koopman and S. Grimme, ACS Omega 2019, 4, 12, 15120-15133.
     DOI: 10.1021/acsomega.9b02011
   
   for metadynamics refer to:
   * S. Grimme, J. Chem. Theory Comput., 2019, 155, 2847-2862
     DOI: 10.1021/acs.jctc.9b00143
   
   for SPH calculations refer to:
   * S. Spicher and S. Grimme, J. Chem. Theory Comput., 2021, 17, 1701-1714
     DOI: 10.1021/acs.jctc.0c01306
   
   for ONIOM refer to:
   * C. Plett, A. Katbashev, S. Ehlert, S. Grimme, M. Bursch,
     Phys. Chem. Chem. Phys., 2023, 25, 17860-17868. DOI: 10.1039/D3CP02178E
   
   for DIPRO refer to:
   * J. Kohn, N. Gildemeister, S. Grimme, D. Fazzi, A. Hansen,
     J. Chem. Phys., 2023, just accepted.
   
   for PTB refer to:
   * S. Grimme, M. Mueller, A. Hansen, J. Chem. Phys., 2023, 158, 124111.
     DOI: 10.1063/5.0137838
   
   with help from (in alphabetical order)
   P. Atkinson, C. Bannwarth, F. Bohle, G. Brandenburg, E. Caldeweyher
   M. Checinski, S. Dohm, S. Ehlert, S. Ehrlich, I. Gerasimov, C. Hölzer
   A. Katbashev, J. Kohn, J. Koopman, C. Lavigne, S. Lehtola, F. März, M. Müller,
   F. Musil, H. Neugebauer, J. Pisarek, C. Plett, P. Pracht, F. Pultar,
   J. Seibert, P. Shushkov, S. Spicher, M. Stahn, M. Steiner, T. Strunk,
   J. Stückrath, T. Rose, and J. Unsleber
   
 * started run on 2025/04/15 at 20:08:51.664     
   ID    Z sym.   atoms
    1    6 C      1-4
    2    8 O      5
    3    1 H      6-13

           -------------------------------------------------
          |                Calculation Setup                |
           -------------------------------------------------

          program call               : /software/projects/pawsey0265/mwang1/xtb/bin/xtb xtb_opt.coord --opt normal --orca -I xtb_opt-xcontrol-inp
          hostname                   : nid002793
          coordinate file            : xtb_opt.coord
          omp threads                :                    16

           -------------------------------------------------
          |                   Orca driver                   |
           -------------------------------------------------
orca executable           : /software/projects/pawsey0265/mwang1/orca_avx2/orca
orca input file           : xtb_opt.inp
orca input line           : 
orca parallel             : true
orca number of threads    : 16
                         * ORCA takes the control...
  ------------------------------------------------------------------------

                                 *****************
                                 * O   R   C   A *
                                 *****************

                                            #,                                       
                                            ###                                      
                                            ####                                     
                                            #####                                    
                                            ######                                   
                                           ########,                                 
                                     ,,################,,,,,                         
                               ,,#################################,,                 
                          ,,##########################################,,             
                       ,#########################################, ''#####,          
                    ,#############################################,,   '####,        
                  ,##################################################,,,,####,       
                ,###########''''           ''''###############################       
              ,#####''   ,,,,##########,,,,          '''####'''          '####       
            ,##' ,,,,###########################,,,                        '##       
           ' ,,###''''                  '''############,,,                           
         ,,##''                                '''############,,,,        ,,,,,,###''
      ,#''                                            '''#######################'''  
     '                                                          ''''####''''         
             ,#######,   #######,   ,#######,      ##                                
            ,#'     '#,  ##    ##  ,#'     '#,    #''#        ,####,   ,####,        
            ##       ##  ##   ,#'  ##            #'  '#       #'       #'  '#        
            ##       ##  #######   ##           ,######,      #####,   #    #        
            '#,     ,#'  ##    ##  '#,     ,#' ,#      #,     #,   #   #,  ,#        
             '#######'   ##     ##  '#######'  #'      '#     '####' # '####'        



                #########################################################
                #                        -***-                          #
                #          Department of theory and spectroscopy        #
                #                                                       #
                #                      Frank Neese                      #
                #                                                       #
                #     Directorship, Architecture, Infrastructure        #
                #                    SHARK, DRIVERS                     #
                #        Core code/Algorithms in most modules           #
                #                                                       #
                #        Max Planck Institute fuer Kohlenforschung      #
                #                Kaiser Wilhelm Platz 1                 #
                #                 D-45470 Muelheim/Ruhr                 #
                #                      Germany                          #
                #                                                       #
                #                  All rights reserved                  #
                #                        -***-                          #
                #########################################################


                         Program Version 6.0.1  -  RELEASE   -


 With contributions from (in alphabetic order):
[Max-Planck-Institut fuer Kohlenforschung]                               
  Daniel Aravena         : Magnetic Suceptibility                        
  Michael Atanasov       : Ab Initio Ligand Field Theory (pilot matlab implementation)
  Alexander A. Auer      : GIAO ZORA, VPT2 properties, NMR spectrum      
  Ute Becker             : All parallelization in ORCA, NUMFREQ, NUMCALC 
  Giovanni Bistoni       : ED, misc. LED, open-shell LED, HFLD           
  Martin Brehm           : Molecular dynamics                            
  Dmytro Bykov           : pre 5.0 version of the SCF Hessian            
  Marcos Casanova-Páez   : Triplet and SCS-CIS(D). UHF-(DLPNO)-IP/EA/STEOM-CCSD. UHF-CVS-IP/STEOM-CCSD   
  Vijay G. Chilkuri      : MRCI spin determinant printing, contributions to CSF-ICE 
  Pauline Colinet        : FMM embedding                                 
  Dipayan Datta          : RHF DLPNO-CCSD density                        
  Achintya Kumar Dutta   : EOM-CC, STEOM-CC                              
  Nicolas Foglia         : Exact transition moments, OPA infrastructure, MCD improvements    
  Dmitry Ganyushin       : Spin-Orbit,Spin-Spin,Magnetic field MRCI      
  Miquel Garcia-Rates    : C-PCM and meta-GGA Hessian, CCSD/C-PCM, Gaussian charge scheme 
  Tiago L. C. Gouveia    : GS-ROHF, GS-ROCIS                             
  Yang Guo               : DLPNO-NEVPT2, F12-NEVPT2, CIM, IAO-localization        
  Andreas Hansen         : Spin unrestricted coupled pair/coupled cluster methods 
  Ingolf Harden          : AUTO-CI MPn and infrastructure                
  Benjamin Helmich-Paris : MC-RPA, TRAH-(SCF,CASSCF), AVAS, COSX integrals, SCF dyn. polar. 
  Lee Huntington         : MR-EOM, pCC                                   
  Robert Izsak           : Overlap fitted RIJCOSX, COSX-SCS-MP3, EOM     
  Riya Kayal             : Wick's Theorem for AUTO-CI, AUTO-CI UHF-CCSDT 
  Emily Kempfer          : AUTO-CI, RHF CISDT and CCSDT                  
  Christian Kollmar      : KDIIS, OOCD, Brueckner-CCSD(T), CCSD density, CASPT2, CASPT2-K, improved NEVPT2 
  Axel Koslowski         : Symmetry handling                             
  Simone Kossmann        : meta-GGA functionals, TD-DFT gradient, OOMP2, (MP2 Hessian; deprecated post 5.0) 
  Lucas Lang             : DCDCAS                                        
  Marvin Lechner         : AUTO-CI (C++ implementation), FIC-MRCC        
  Spencer Leger          : CASSCF response                               
  Dagmar Lenk            : GEPOL surface, SMD, ORCA-2-JSON               
  Dimitrios Liakos       : Extrapolation schemes; Compound Job, initial MDCI parallelization 
  Dimitrios Manganas     : Further ROCIS development; embedding schemes. LFT, Crystal Embedding 
  Dimitrios Pantazis     : SARC Basis sets                               
  Anastasios Papadopoulos: AUTO-CI, single reference methods and gradients 
  Taras Petrenko         : pre 6.0 DFT Hessian and TD-DFT gradient, (ASA, deprecated), ECA, 1-Electron XAS/XES, NRVS 
  Peter Pinski           : DLPNO-MP2, DLPNO-MP2 Gradient                 
  Christoph Reimann      : Effective Core Potentials                     
  Marius Retegan         : Local ZFS, SOC                                
  Christoph Riplinger    : Optimizer, TS searches, QM/MM, DLPNO-CCSD(T), (RO)-DLPNO pert. Triples 
  Michael Roemelt        : Original ROCIS implementation                 
  Masaaki Saitow         : Open-shell DLPNO-CCSD energy and density      
  Barbara Sandhoefer     : DKH picture change effects                    
  Kantharuban Sivalingam : CASSCF convergence/infrastructure, NEVPT2 and variants, FIC-MRCI 
  Bernardo de Souza      : ESD, SOC TD-DFT                               
  Georgi L. Stoychev     : AutoAux, RI-MP2 NMR, DLPNO-MP2 response, X2C  
  Van Anh Tran           : RI-MP2 g-tensors                              
  Willem Van den Heuvel  : Paramagnetic NMR                              
  Zikuan Wang            : NOTCH, Electric field optimization            
  Frank Wennmohs         : Technical directorship and infrastructure     
  Hang Xu                : AUTO-CI-Response properties                   
                                                                         
[FACCTs GmbH]                                                            
  Markus Bursch, Miquel Garcia-Rates, Christoph Riplinger, Bernardo de Souza, Georgi L. Stoychev 
                                                                 
  APM, Basis sets (HGBS, AHGBS, def-TZVP (Ac-Lr), def2-XVPD (La-Lu)), CI-OPT, improved COSX, DLPNO-Multilevel,           
  DOCKER, DRACO, updates on ESD, GOAT, IRC, LR-CPCM, MBIS, meta-GGA TD-DFT gradient, ML-optimized integration grids, 
  MM, NACMEs, nearIR, NEB, NEB-TS, NL-DFT gradient (VV10), 2- and 3-layer-ONIOM, interface openCOSMO-RS, QMMM,   
  Crystal-QMMM, SF, symmetry and pop. for TD-DFT, r2SCAN hybrids, SOLVATOR                                   
                                                                         
[Other institutions]                                                     
  V. Asgeirsson          : NEB                                           
  Christoph Bannwarth    : sTDA-DFT, sTD-DFT, PBEh-3c, B97-3c, D3        
  Sebastian Ehlert       : rSCAN, r2SCAN, r2SCAN-3c, D4, dhf basis sets  
  Marvin Friede          : D4 for Fr, Ra, Ac-Lr                          
  Lars Goerigk           : TD-DFT with DH, B97 family of functionals     
  Stefan Grimme          : VdW corrections, initial TS optimization, DFT functionals, gCP, sTDA/sTD-DF 
  Waldemar Hujo          : DFT-NL                                        
  H. Jonsson             : NEB                                           
  Holger Kruse           : gCP                                           
  Marcel Mueller         : wB97X-3c, vDZP basis set                      
  Hagen Neugebauer       : wr2SCAN                                       
  Tobias Risthaus        : range-separated hybrid DFT                    
  Lukas Wittmann         : regularized MP2, r2SCAN double-hybrids, wr2SCAN        
                                                                         
We gratefully acknowledge several colleagues who have allowed us to      
interface, adapt or use parts of their codes:                            
  Ed Valeev, F. Pavosevic, A. Kumar             : LibInt (2-el integral package), F12 methods 
  Garnet Chan, S. Sharma, J. Yang, R. Olivares  : DMRG                   
  Ulf Ekstrom                                   : XCFun DFT Library      
  Mihaly Kallay                                 : mrcc  (arbitrary order and MRCC methods)
  Frank Weinhold                                : gennbo (NPA and NBO analysis)           
  Simon Mueller                                 : openCOSMO-RS                            
  Christopher J. Cramer and Donald G. Truhlar   : smd solvation model                     
  S Lehtola, MJT Oliveira, MAL Marques          : LibXC Library                           
  Liviu Ungur et al                             : ANISO software                          


 Your calculation uses the libint2 library for the computation of 2-el integrals
 For citations please refer to: http://libint.valeyev.net

 Your ORCA version has been built with support for libXC version: 6.2.2
 For citations please refer to: https://libxc.gitlab.io

 This ORCA versions uses:
   CBLAS   interface :  Fast vector & matrix operations
   LAPACKE interface :  Fast linear algebra routines
   SCALAPACK package :  Parallel linear algebra routines
   Shared memory     :  Shared parallel matrices
   BLAS/LAPACK       :  OpenBLAS 0.3.27  USE64BITINT DYNAMIC_ARCH NO_AFFINITY Zen SINGLE_THREADED
        Core in use  :  Zen
   Copyright (c) 2011-2014, The OpenBLAS Project




***************************************
The coordinates will be read from file: xtb_opt.xyz
***************************************


Your calculation utilizes the geometrical counterpoise correction gCP
Please cite in your paper:
H.Kruse, S. Grimme J.Chem.Phys., 136, (2012), 154101 
   

Your calculation utilizes the atom-pairwise dispersion correction
based on EEQ partial charges (D4)


================================================================================

----- Orbital basis set information -----
Your calculation utilizes the basis: def2-mTZVPP
   Stefan Grimme, Andreas Hansen, Sebastian Ehlert, and Jan-Michael Mewes 
   J. Chem. Phys. 154, 064103 (2021). DOI: 10.1063/5.0040021

----- AuxJ basis set information -----
Your calculation utilizes the auxiliary basis: def2/J
   F. Weigend, Phys. Chem. Chem. Phys. 8, 1057 (2006).

================================================================================
                                        WARNINGS
                       Please study these warnings very carefully!
================================================================================

WARNING: Old DensityContainer found on disk!
         Will remove this file - 
         If you want to keep old densities, please start your calculation with a different basename. 



WARNING: SCAN, rSCAN, or r2SCAN functional requested.
  ===> : libXC variant has now been activated.



================================================================================
                                       INPUT FILE
================================================================================
NAME = xtb_opt.inp
|  1> ! r2scan-3c def2/J RI DEFGRID2 scfconv7 ENGRAD tightSCF miniprint
|  2> * xyzfile 0 1 xtb_opt.xyz
|  3> 
|  4>                          ****END OF INPUT****
================================================================================

                     *******************************
                     * Energy+Gradient Calculation *
                     *******************************

---------------------------------
CARTESIAN COORDINATES (ANGSTROEM)
---------------------------------
  C      0.950944    1.283496   -0.048110
  C      0.459334   -0.129280   -0.334381
  C      1.400124   -1.215249    0.204680
  C     -0.940593   -0.361340    0.187712
  O     -1.667893    0.494466    0.630375
  H      0.245698    2.029157   -0.421522
  H      1.926133    1.453018   -0.513374
  H      1.052032    1.438430    1.030559
  H      0.373245   -0.278402   -1.424777
  H      2.389502   -1.121648   -0.251039
  H      1.022404   -2.219819   -0.012175
  H      1.516933   -1.120367    1.289274
  H     -1.284244   -1.422932    0.131231

----------------------------
CARTESIAN COORDINATES (A.U.)
----------------------------
  NO LB      ZA    FRAG     MASS         X           Y           Z
   0 C     6.0000    0    12.011    1.797024    2.425457   -0.090914
   1 C     6.0000    0    12.011    0.868015   -0.244304   -0.631889
   2 C     6.0000    0    12.011    2.645851   -2.296488    0.386788
   3 C     6.0000    0    12.011   -1.777463   -0.682834    0.354723
   4 O     8.0000    0    15.999   -3.151862    0.934406    1.191236
   5 H     1.0000    0     1.008    0.464302    3.834551   -0.796561
   6 H     1.0000    0     1.008    3.639863    2.745807   -0.970136
   7 H     1.0000    0     1.008    1.988052    2.718239    1.947474
   8 H     1.0000    0     1.008    0.705331   -0.526104   -2.692438
   9 H     1.0000    0     1.008    4.515505   -2.119607   -0.474395
  10 H     1.0000    0     1.008    1.932063   -4.194851   -0.023007
  11 H     1.0000    0     1.008    2.866588   -2.117186    2.436374
  12 H     1.0000    0     1.008   -2.426870   -2.688951    0.247991

------------------------------------------------------------------------------
                   ___                                                        
                  /   \      - P O W E R E D   B Y -                         
                 /     \                                                     
                 |  |  |   _    _      __       _____    __    __             
                 |  |  |  | |  | |    /  \     |  _  \  |  |  /  |          
                  \  \/   | |  | |   /    \    | | | |  |  | /  /          
                 / \  \   | |__| |  /  /\  \   | |_| |  |  |/  /          
                |  |  |   |  __  | /  /__\  \  |    /   |      \           
                |  |  |   | |  | | |   __   |  |    \   |  |\   \          
                \     /   | |  | | |  |  |  |  | |\  \  |  | \   \       
                 \___/    |_|  |_| |__|  |__|  |_| \__\ |__|  \__/        
                                                                              
                      - O R C A' S   B I G   F R I E N D -                    
                                      &                                       
                       - I N T E G R A L  F E E D E R -                       
                                                                              
 v1 FN, 2020, v2 2021, v3 2022-2024                                           
------------------------------------------------------------------------------


----------------------
SHARK INTEGRAL PACKAGE
----------------------

Number of atoms                             ...     13
Number of basis functions                   ...    140
Number of shells                            ...     70
Maximum angular momentum                    ...      2
Integral batch strategy                     ... SHARK/LIBINT Hybrid
RI-J (if used) integral strategy            ... SPLIT-RIJ (Revised 2003 algorithm where possible)
Printlevel                                  ...      1
Contraction scheme used                     ... SEGMENTED contraction
Prescreening option                         ... SCHWARTZ
   Thresh                                   ... 3.000e-11
   Tcut                                     ... 1.000e-12
   Tpresel                                  ... 1.000e-12 
Coulomb Range Separation                    ... NOT USED
Exchange Range Separation                   ... NOT USED
Multipole approximations                    ... NOT USED
Finite Nucleus Model                        ... NOT USED
CABS basis                                  ... NOT available
Auxiliary Coulomb fitting basis             ... AVAILABLE
   # of basis functions in Aux-J            ...    333
   # of shells in Aux-J                     ...    115
   Maximum angular momentum in Aux-J        ...      4
Auxiliary J/K fitting basis                 ... NOT available
Auxiliary Correlation fitting basis         ... NOT available
Auxiliary 'external' fitting basis          ... NOT available

Checking pre-screening integrals            ... done (  0.0 sec) Dimension = 70
Check shell pair data                       ... done (  0.0 sec)
Shell pair information
Shell pair cut-off parameter TPreSel        ...   1.0e-12
Total number of shell pairs                 ...      2485
Shell pairs after pre-screening             ...      2402
Total number of primitive shell pairs       ...      8780
Primitive shell pairs kept                  ...      6539
          la=0 lb=0:    817 shell pairs
          la=1 lb=0:    915 shell pairs
          la=1 lb=1:    271 shell pairs
          la=2 lb=0:    241 shell pairs
          la=2 lb=1:    137 shell pairs
          la=2 lb=2:     21 shell pairs

Calculating one electron integrals          ... done (  0.0 sec)
Calculating RI/J V-Matrix + Cholesky decomp.... done (  0.0 sec)
Calculating Nuclear repulsion               ... done (  0.0 sec) ENN=    176.990851357896 Eh

Diagonalization of the overlap matrix:
Smallest eigenvalue                        ... 2.647e-04
Time for diagonalization                   ...    0.002 sec
Threshold for overlap eigenvalues          ... 1.000e-07
Number of eigenvalues below threshold      ... 0
Time for construction of square roots      ...    0.003 sec
Total time needed                          ...    0.006 sec

-------------------
DFT GRID GENERATION
-------------------

General Integration Accuracy     IntAcc      ... 4.388
Radial Grid Type                 RadialGrid  ... OptM3 with GC (2021)
Angular Grid (max. ang.)         AngularGrid ... 4 (Lebedev-302)
Angular grid pruning method      GridPruning ... 4 (adaptive)
Weight generation scheme         WeightScheme... mBecke (2022)
Basis function cutoff            BFCut       ... 1.0000e-11
Integration weight cutoff        WCut        ... 1.0000e-14
Partially contracted basis set               ... off
Rotationally invariant grid construction     ... off
Angular grids for H and He will be reduced by one unit
Diffuse basis detected: some atoms will have their outermost
                        angular grid increased by 1.

Total number of grid points                  ...    56299
Total number of batches                      ...      887
Average number of points per batch           ...       63
Average number of grid points per atom       ...     4331
Initializing property integral containers    ... done (  0.0 sec)

SHARK setup successfully completed in   0.7 seconds

Maximum memory used throughout the entire STARTUP-calculation: 25.5 MB
Occupation numbers will be reassigned to an Aufbau configuration
             **** ENERGY FILE WAS UPDATED (xtb_opt.en.tmp) ****
Finished Guess after   0.1 sec
Maximum memory used throughout the entire GUESS-calculation: 10.2 MB
----------------------------------------D-I-I-S--------------------------------------------
Iteration    Energy (Eh)           Delta-E    RMSDP     MaxDP     DIISErr   Damp  Time(sec)
-------------------------------------------------------------------------------------------
               ***  Starting incremental Fock matrix formation  ***
                              *** Initializing SOSCF ***
---------------------------------------S-O-S-C-F--------------------------------------
Iteration    Energy (Eh)           Delta-E    RMSDP     MaxDP     MaxGrad    Time(sec)
--------------------------------------------------------------------------------------
    1    -232.3982534421420212     0.00e+00  3.51e-06  1.41e-04  1.67e-05     0.8
               *** Restarting incremental Fock matrix formation ***
    2    -232.3982534319619333     1.02e-08  8.69e-06  3.82e-04  4.84e-05     0.8
    3    -232.3982533017471894     1.30e-07  7.06e-06  3.21e-04  1.44e-04     0.7
    4    -232.3982534518263208    -1.50e-07  5.41e-07  1.13e-05  2.07e-06     0.6
                  *** Gradient check signals convergence ***

               *****************************************************
               *                     SUCCESS                       *
               *           SCF CONVERGED AFTER   4 CYCLES          *
               *****************************************************

             **** ENERGY FILE WAS UPDATED (xtb_opt.en.tmp) ****

----------------
TOTAL SCF ENERGY
----------------

Total Energy       :       -232.39825345182632 Eh           -6323.87798 eV

Components:
Nuclear Repulsion  :        176.99085135789593 Eh            4816.16591 eV
Electronic Energy  :       -409.38910480972220 Eh          -11140.04389 eV
One Electron Energy:       -664.33404045992700 Eh          -18077.44828 eV
Two Electron Energy:        254.94493565020477 Eh            6937.40439 eV

Virial components:
Potential Energy   :       -463.72480833172216 Eh          -12618.59355 eV
Kinetic Energy     :        231.32655487989584 Eh            6294.71558 eV
Virial Ratio       :          2.00463283851042

DFT components:
N(Alpha)           :       19.999991048495 electrons
N(Beta)            :       19.999991048495 electrons
N(Total)           :       39.999982096991 electrons
E(X)               :      -31.897772061488 Eh       
E(C)               :       -1.254961688788 Eh       
E(XC)              :      -33.152733750275 Eh       

---------------
SCF CONVERGENCE
---------------

  Last Energy change         ...    1.5008e-07  Tolerance :   1.0000e-07
  Last MAX-Density change    ...    1.1278e-05  Tolerance :   1.0000e-07
  Last RMS-Density change    ...    5.4143e-07  Tolerance :   5.0000e-09
  Last DIIS Error            ...    7.4372e-05  Tolerance :   1.0000e-07
  Last Orbital Gradient      ...    2.0682e-06  Tolerance :   1.0000e-04
  Last Orbital Rotation      ...    3.8226e-06  Tolerance :   1.0000e-04


----------------
ORBITAL ENERGIES
----------------

  NO   OCC          E(Eh)            E(eV) 
   0   2.0000     -18.951388      -515.6935 
   1   2.0000     -10.120373      -275.3894 
   2   2.0000     -10.055954      -273.6364 
   3   2.0000     -10.039962      -273.2012 
   4   2.0000     -10.026374      -272.8315 
   5   2.0000      -1.014666       -27.6105 
   6   2.0000      -0.779778       -21.2188 
   7   2.0000      -0.664364       -18.0783 
   8   2.0000      -0.618591       -16.8327 
   9   2.0000      -0.519785       -14.1441 
  10   2.0000      -0.460593       -12.5334 
  11   2.0000      -0.428773       -11.6675 
  12   2.0000      -0.418621       -11.3913 
  13   2.0000      -0.377208       -10.2644 
  14   2.0000      -0.363856        -9.9010 
  15   2.0000      -0.356945        -9.7130 
  16   2.0000      -0.343634        -9.3508 
  17   2.0000      -0.323386        -8.7998 
  18   2.0000      -0.315892        -8.5959 
  19   2.0000      -0.221876        -6.0375 
  20   0.0000      -0.059222        -1.6115 
  21   0.0000       0.085139         2.3167 
  22   0.0000       0.111070         3.0224 
  23   0.0000       0.117241         3.1903 
  24   0.0000       0.127736         3.4759 
  25   0.0000       0.135775         3.6946 
  26   0.0000       0.151453         4.1212 
  27   0.0000       0.161542         4.3958 
  28   0.0000       0.174703         4.7539 
  29   0.0000       0.177162         4.8208 
  30   0.0000       0.199020         5.4156 
*Only the first 10 virtual orbitals were printed.
Total SCF time: 0 days 0 hours 0 min 3 sec 
Finished LeanSCF after   6.4 sec

Maximum memory used throughout the entire LEANSCF-calculation: 15.1 MB


-------------------------------------------------------------------------------
                          DFT DISPERSION CORRECTION                            
                                                                               
                                DFTD4 V3.4.0                                   
-------------------------------------------------------------------------------
-------------------------   ----------------
Dispersion correction           -0.002774115
-------------------------   ----------------

------------------   -----------------
gCP correction             0.006057367
------------------   -----------------

-------------------------   --------------------
FINAL SINGLE POINT ENERGY      -232.394970199404
-------------------------   --------------------

------------------------------------------------------------------------------
                         ORCA SCF GRADIENT CALCULATION
------------------------------------------------------------------------------

Nuc. rep. gradient        (SHARK) ... done (  0.0 sec)
HCore & Overlap gradient  (SHARK) ... done (  0.1 sec)
Split-RIJ-J gradient      (SHARK) ... done (  0.5 sec)
XC gradient                       ... done (  2.3 sec)
Dispersion correction             ... done (  0.0 sec)

-------------------
DISPERSION GRADIENT
-------------------

   1   C   :    0.000020525    0.000045066   -0.000004489
   2   C   :    0.000004348   -0.000002608   -0.000010124
   3   C   :    0.000034458   -0.000040135    0.000003350
   4   C   :   -0.000038794   -0.000011796    0.000000970
   5   O   :   -0.000070833    0.000015504    0.000016062
   6   H   :    0.000000007    0.000025025   -0.000004275
   7   H   :    0.000017452    0.000023191   -0.000006863
   8   H   :    0.000007126    0.000021578    0.000005623
   9   H   :    0.000000319   -0.000001335   -0.000010240
  10   H   :    0.000023126   -0.000017248   -0.000001848
  11   H   :    0.000012293   -0.000026561   -0.000000146
  12   H   :    0.000017156   -0.000017880    0.000009731
  13   H   :   -0.000027184   -0.000012800    0.000002249

Difference to translation invariance:
           :    0.0000000000    0.0000000000   -0.0000000000

Difference to rotation invariance:
           :   -0.0000000000    0.0000000000    0.0000000000

Norm of the Dispersion gradient    ...    0.0001344188
RMS gradient                       ...    0.0000215242
MAX gradient                       ...    0.0000708332
gCP correction                   ... done

------------------
CARTESIAN GRADIENT
------------------

   1   C   :   -0.000007962    0.000014772    0.000053359
   2   C   :   -0.000051784   -0.000006646    0.000041586
   3   C   :   -0.000008205    0.000010102   -0.000011868
   4   C   :   -0.000203891    0.000185589    0.000673528
   5   O   :    0.000138410   -0.000433462   -0.000911390
   6   H   :   -0.000015389    0.000010005    0.000105916
   7   H   :   -0.000003427    0.000013953   -0.000014397
   8   H   :    0.000067033   -0.000048863    0.000031890
   9   H   :   -0.000023604    0.000023780   -0.000008775
  10   H   :    0.000001919    0.000009714   -0.000075906
  11   H   :   -0.000012921    0.000002153   -0.000103764
  12   H   :    0.000005782   -0.000064806   -0.000064250
  13   H   :    0.000114039    0.000283710    0.000284071

Difference to translation invariance:
           :   -0.0000000000    0.0000000000   -0.0000000000

Difference to rotation invariance:
           :   -0.0000221089   -0.0000389000    0.0000944347

Norm of the Cartesian gradient     ...    0.0013400176
RMS gradient                       ...    0.0002145745
MAX gradient                       ...    0.0009113904

-------
TIMINGS
-------

Total SCF gradient time     ....        2.956 sec

Densities                   ....       0.000 sec  (  0.0%)
One electron gradient       ....       0.084 sec  (  2.8%)
RI-J Coulomb gradient       ....       0.503 sec  ( 17.0%)
XC gradient                 ....       2.333 sec  ( 78.9%)

Maximum memory used throughout the entire SCFGRAD-calculation: 30.2 MB

------------------------------------------------------------------------------
                              ORCA PROPERTY CALCULATIONS
------------------------------------------------------------------------------

GBWName                                 ... xtb_opt.gbw
Number of atoms                         ...     13
Number of basis functions               ...    140
Max core memory                         ...   1024 MB

Electric properties:
Dipole moment                           ... YES
Quadrupole moment                       ...  NO
Static polarizability (Dipole/Dipole)   ...  NO
Static polarizability (Dipole/Quad.)    ...  NO
Static polarizability (Quad./Quad.)     ...  NO
Static polarizability (Velocity)        ...  NO

Atomic electric properties:
Dipole moment                           ...  NO
Quadrupole moment                       ...  NO
Static polarizability                   ...  NO

Choice of electric origin               ... Center of mass
Position of electric origin             ...     0.080542     0.041548     0.262887

General magnetic properties:
Magnetizability                         ...  NO

EPR properties:
g-Tensor (aka g-matrix)                 ...  NO
Zero-Field splitting spin-orbit         ...  NO
Zero-field splitting spin-spin          ...  NO
Hyperfine couplings                     ...  NO (   0 nuclei)
Quadrupole couplings                    ...  NO (   0 nuclei)
Contact density                         ...  NO (   0 nuclei)

NMR properties:
Chemical shifts                         ...  NO (   0 nuclei)
Spin-rotation constants                 ...  NO (   0 nuclei)
Spin-spin couplings                     ...  NO (   0 nuclei,    0 pairs)

Choice of magnetic origin               ... GIAO
Position of magnetic origin             ...     0.000000     0.000000     0.000000

Properties with geometric perturbations:
SCF Hessian                             ...  NO
IR spectrum                             ...  NO
VCD spectrum                            ...  NO
X-ray spectroscopy properties:
SCF XES/XAS/RIXS spectra                ...  NO


-------------
DIPOLE MOMENT
-------------

Method             : SCF
Type of density    : Electron Density
Multiplicity       :   1
Irrep              :   0
Energy             :  -232.3982534518263208 Eh
Relativity type    : 
Basis              : AO
                                X                 Y                 Z
Electronic contribution:     -5.620285473       0.739366870       0.767063499
Nuclear contribution   :      6.448807873      -1.323768789      -1.198042201
                        -----------------------------------------
Total Dipole Moment    :      0.828522400      -0.584401919      -0.430978702
                        -----------------------------------------
Magnitude (a.u.)       :      1.101688527
Magnitude (Debye)      :      2.800269695



--------------------
Rotational spectrum 
--------------------
 
Rotational constants in cm-1:             0.254926             0.135292             0.097829 
Rotational constants in MHz :          7642.503722          4055.959361          2932.850184 

Dipole components along the rotational axes: 
x,y,z [a.u.] :     1.015721     0.298263    -0.305070 
x,y,z [Debye]:     2.581758     0.758124    -0.775426 

 

Dipole moment calculation done in   0.9 sec 

Maximum memory used throughout the entire PROP-calculation: 8.4 MB

--------------------------------
SUGGESTED CITATIONS FOR THIS RUN
--------------------------------

Below you find a list of papers that are relevant to this ORCA run
We neither can nor want to force you to cite these papers, but we appreciate if you do
You receive ORCA, which is the product of decades of hard work by many enthusiastic individuals, for free
The only thing we kindly ask in return is that you cite our papers,
We deeply appreciate it, if you show your appreciation for ORCA by not just citing the generic ORCA reference.

Please note that relegating all ORCA citations to the supporting information does *not* help us.
SI sections are not indexed - citations you put there will not count into any citation statistics
But we need these citations in order to attract the funding resources that allow us to do what we are doing

Therefore, if you are a happy ORCA user, please consider citing a few of the papers listed below in the main body of your paper

In addition to the list printed below, the program has created the file xtb_opt.bibtex that contains the list in bibtex format
You can import this file easily into all common literature databanks and citation aid programs


List of essential papers. We consider these as the minimum necessary citations

  1. Neese,F.
     Software update: the ORCA program system, version 5.0
     WIRES Comput. Molec. Sci., 2022 12(1)e1606
     doi.org/10.1002/wcms.1606
  2. Grimme,S.; Hansen,A.; Ehlert,S.; Mewes,J.
     r2SCAN-3c: A 'Swiss army knife' composite electronic-structure method
     J. Chem. Phys., 2021 154 064103
     doi.org/10.1063/5.0040021

List of papers to cite with high priority. The work reported in these papers was absolutely
necessary for this run to complete.
Our perspective: the developers of density functionals and basis sets usually get cited in chemistry papers
Good! But without the algorithms to do something with them, the functionals or basis sets would not do anything.
Hence, in our opinion, the algorithm design and method developments papers are equally worthy of getting cited

  1. Neese,F.
     An improvement of the resolution of the identity approximation for the formation of the Coulomb matrix
     J. Comp. Chem., 2003 24(14)1740-1747
     doi.org/10.1002/jcc.10318
  2. Neese,F.
     The SHARK Integral Generation and Digestion System
     J. Comp. Chem., 2022  1-16
     doi.org/10.1002/jcc.26942
  3. Lehtola,S.; Steigemann,C.; Oliveira,M.; Marques,M.
     Recent developments in Libxc - A comprehensive library of functionals for density functional theory
     Software X, 2018 7 
     doi.org/10.1016/j.softx.2017.11.002
  4. Caldeweyher,E.; Bannwarth,C.; Grimme,S.
     Extension of the D3 dispersion coefficient model
     J. Chem. Phys., 2017 147 034112
     doi.org/10.1063/1.4993215
  5. Caldeweyher,E.; Ehlert,S.; Hansen,A.; Neugebauer,H.; Spicher,S.; Bannwarth,C.; Grimme,S.
     A generally applicable atomic-charge dependent London dispersion correction
     J. Chem. Phys., 2019 150 154122
     doi.org/10.1063/1.5090222
  6. Caldeweyher,E.; Mewes,J.; Ehlert,S.; Grimme,S.
     Extension and evaluation of the D4 London-dispersion model for periodic systems
     Phys. Chem. Chem. Phys., 2020 22(16)8499-8512
     doi.org/10.1039/D0CP00502A
  7. Wittmann,L.; Gordiy,I.; Friede,M.; Helmich-Paris,B.; Grimme,S.; Hansen,A.; Bursch,M.
     Extension of the D3 and D4 London Dispersion Corrections to the full Actinides Series
     Phys. Chem. Chem. Phys., 2024 26(32)21379-21394
     doi.org/https://doi.org/10.1039/D4CP01514B 

List of suggested additional citations. These are papers that are important in the 'surrounding' of 
of this run, or papers that preceded the highly important papers. If you like your results we are grateful for a citation.

  1. Neese,F.
     The ORCA program system
     WIRES Comput. Molec. Sci., 2012 2(1)73-78
     doi.org/10.1002/wcms.81
  2. Neese,F.
     Software update: the ORCA program system, version 4.0
     WIRES Comput. Molec. Sci., 2018 8(1)1-6
     doi.org/10.1002/wcms.1327
  3. Neese,F.; Wennmohs,F.; Becker,U.; Riplinger,C.
     The ORCA quantum chemistry program package
     J. Chem. Phys., 2020 152 Art. No. L224108
     doi.org/10.1063/5.0004608

List of optional additional citations

  1. Neese,F.
     Approximate second-order SCF convergence for spin unrestricted wavefunctions
     Chem. Phys. Lett., 2000 325(1-3)93-98
     doi.org/10.1016/s0009-2614(00)00662-x

Timings for individual modules:

Sum of individual times          ...       12.027 sec (=   0.200 min)
Startup calculation              ...        0.675 sec (=   0.011 min)   5.6 %
SCF iterations                   ...        6.455 sec (=   0.108 min)  53.7 %
Property calculations            ...        0.936 sec (=   0.016 min)   7.8 %
SCF Gradient evaluation          ...        3.961 sec (=   0.066 min)  32.9 %
                             ****ORCA TERMINATED NORMALLY****
TOTAL RUN TIME: 0 days 0 hours 0 minutes 15 seconds 659 msec
  ------------------------------------------------------------------------
          * successful ORCA run, taking over control again...

         :::::::::::::::::::::::::::::::::::::::::::::::::::::
         ::                  ORCA SUMMARY                   ::
         :::::::::::::::::::::::::::::::::::::::::::::::::::::
         :: total energy            -232.394970199404 Eh    ::
         :: gradient norm              0.001340017601 Eh/a0 ::
         :: HOMO-LUMO gap              0.000000000000 eV    ::
         :::::::::::::::::::::::::::::::::::::::::::::::::::::

      ----------------------------------------------------------- 
     |                       L-ANC optimizer                     |
      ----------------------------------------------------------- 
          low memory version by Sebastian Ehlert

          ...................................................
          :                      SETUP                      :
          :.................................................:
          :   energy convergence        0.5000000E-05 Eh    :
          :   grad. convergence         0.1000000E-02 Eh/a0 :
          :   optimization log               true           :
          :   writing optlog all                1     steps :
          :   Hessian reset                     8     steps :
          :   maximium step len.        1.0000000     a0    :
          :   LBFGS images                      8           :
          ...................................................
 * calculating model hessian...
Using Lindh-Hessian (1995)
 Shifting diagonal of input Hessian by   1.000000000000000E-002
 Lowest  eigenvalues of input Hessian
    0.000000    0.000000    0.000000    0.000000    0.000000    0.000000
    0.018369    0.019640    0.021144    0.022378    0.022942    0.028773
    0.059529    0.062133    0.065854    0.067914    0.073096    0.079789
 Highest eigenvalues
    1.101524    1.119229    1.161354    1.233153    1.345290    2.156197
 

........................................................................
.............................. CYCLE    1 ..............................
........................................................................
                         * ORCA takes the control...
  ------------------------------------------------------------------------

                                 *****************
                                 * O   R   C   A *
                                 *****************

                                            #,                                       
                                            ###                                      
                                            ####                                     
                                            #####                                    
                                            ######                                   
                                           ########,                                 
                                     ,,################,,,,,                         
                               ,,#################################,,                 
                          ,,##########################################,,             
                       ,#########################################, ''#####,          
                    ,#############################################,,   '####,        
                  ,##################################################,,,,####,       
                ,###########''''           ''''###############################       
              ,#####''   ,,,,##########,,,,          '''####'''          '####       
            ,##' ,,,,###########################,,,                        '##       
           ' ,,###''''                  '''############,,,                           
         ,,##''                                '''############,,,,        ,,,,,,###''
      ,#''                                            '''#######################'''  
     '                                                          ''''####''''         
             ,#######,   #######,   ,#######,      ##                                
            ,#'     '#,  ##    ##  ,#'     '#,    #''#        ,####,   ,####,        
            ##       ##  ##   ,#'  ##            #'  '#       #'       #'  '#        
            ##       ##  #######   ##           ,######,      #####,   #    #        
            '#,     ,#'  ##    ##  '#,     ,#' ,#      #,     #,   #   #,  ,#        
             '#######'   ##     ##  '#######'  #'      '#     '####' # '####'        



                #########################################################
                #                        -***-                          #
                #          Department of theory and spectroscopy        #
                #                                                       #
                #                      Frank Neese                      #
                #                                                       #
                #     Directorship, Architecture, Infrastructure        #
                #                    SHARK, DRIVERS                     #
                #        Core code/Algorithms in most modules           #
                #                                                       #
                #        Max Planck Institute fuer Kohlenforschung      #
                #                Kaiser Wilhelm Platz 1                 #
                #                 D-45470 Muelheim/Ruhr                 #
                #                      Germany                          #
                #                                                       #
                #                  All rights reserved                  #
                #                        -***-                          #
                #########################################################


                         Program Version 6.0.1  -  RELEASE   -


 With contributions from (in alphabetic order):
[Max-Planck-Institut fuer Kohlenforschung]                               
  Daniel Aravena         : Magnetic Suceptibility                        
  Michael Atanasov       : Ab Initio Ligand Field Theory (pilot matlab implementation)
  Alexander A. Auer      : GIAO ZORA, VPT2 properties, NMR spectrum      
  Ute Becker             : All parallelization in ORCA, NUMFREQ, NUMCALC 
  Giovanni Bistoni       : ED, misc. LED, open-shell LED, HFLD           
  Martin Brehm           : Molecular dynamics                            
  Dmytro Bykov           : pre 5.0 version of the SCF Hessian            
  Marcos Casanova-Páez   : Triplet and SCS-CIS(D). UHF-(DLPNO)-IP/EA/STEOM-CCSD. UHF-CVS-IP/STEOM-CCSD   
  Vijay G. Chilkuri      : MRCI spin determinant printing, contributions to CSF-ICE 
  Pauline Colinet        : FMM embedding                                 
  Dipayan Datta          : RHF DLPNO-CCSD density                        
  Achintya Kumar Dutta   : EOM-CC, STEOM-CC                              
  Nicolas Foglia         : Exact transition moments, OPA infrastructure, MCD improvements    
  Dmitry Ganyushin       : Spin-Orbit,Spin-Spin,Magnetic field MRCI      
  Miquel Garcia-Rates    : C-PCM and meta-GGA Hessian, CCSD/C-PCM, Gaussian charge scheme 
  Tiago L. C. Gouveia    : GS-ROHF, GS-ROCIS                             
  Yang Guo               : DLPNO-NEVPT2, F12-NEVPT2, CIM, IAO-localization        
  Andreas Hansen         : Spin unrestricted coupled pair/coupled cluster methods 
  Ingolf Harden          : AUTO-CI MPn and infrastructure                
  Benjamin Helmich-Paris : MC-RPA, TRAH-(SCF,CASSCF), AVAS, COSX integrals, SCF dyn. polar. 
  Lee Huntington         : MR-EOM, pCC                                   
  Robert Izsak           : Overlap fitted RIJCOSX, COSX-SCS-MP3, EOM     
  Riya Kayal             : Wick's Theorem for AUTO-CI, AUTO-CI UHF-CCSDT 
  Emily Kempfer          : AUTO-CI, RHF CISDT and CCSDT                  
  Christian Kollmar      : KDIIS, OOCD, Brueckner-CCSD(T), CCSD density, CASPT2, CASPT2-K, improved NEVPT2 
  Axel Koslowski         : Symmetry handling                             
  Simone Kossmann        : meta-GGA functionals, TD-DFT gradient, OOMP2, (MP2 Hessian; deprecated post 5.0) 
  Lucas Lang             : DCDCAS                                        
  Marvin Lechner         : AUTO-CI (C++ implementation), FIC-MRCC        
  Spencer Leger          : CASSCF response                               
  Dagmar Lenk            : GEPOL surface, SMD, ORCA-2-JSON               
  Dimitrios Liakos       : Extrapolation schemes; Compound Job, initial MDCI parallelization 
  Dimitrios Manganas     : Further ROCIS development; embedding schemes. LFT, Crystal Embedding 
  Dimitrios Pantazis     : SARC Basis sets                               
  Anastasios Papadopoulos: AUTO-CI, single reference methods and gradients 
  Taras Petrenko         : pre 6.0 DFT Hessian and TD-DFT gradient, (ASA, deprecated), ECA, 1-Electron XAS/XES, NRVS 
  Peter Pinski           : DLPNO-MP2, DLPNO-MP2 Gradient                 
  Christoph Reimann      : Effective Core Potentials                     
  Marius Retegan         : Local ZFS, SOC                                
  Christoph Riplinger    : Optimizer, TS searches, QM/MM, DLPNO-CCSD(T), (RO)-DLPNO pert. Triples 
  Michael Roemelt        : Original ROCIS implementation                 
  Masaaki Saitow         : Open-shell DLPNO-CCSD energy and density      
  Barbara Sandhoefer     : DKH picture change effects                    
  Kantharuban Sivalingam : CASSCF convergence/infrastructure, NEVPT2 and variants, FIC-MRCI 
  Bernardo de Souza      : ESD, SOC TD-DFT                               
  Georgi L. Stoychev     : AutoAux, RI-MP2 NMR, DLPNO-MP2 response, X2C  
  Van Anh Tran           : RI-MP2 g-tensors                              
  Willem Van den Heuvel  : Paramagnetic NMR                              
  Zikuan Wang            : NOTCH, Electric field optimization            
  Frank Wennmohs         : Technical directorship and infrastructure     
  Hang Xu                : AUTO-CI-Response properties                   
                                                                         
[FACCTs GmbH]                                                            
  Markus Bursch, Miquel Garcia-Rates, Christoph Riplinger, Bernardo de Souza, Georgi L. Stoychev 
                                                                 
  APM, Basis sets (HGBS, AHGBS, def-TZVP (Ac-Lr), def2-XVPD (La-Lu)), CI-OPT, improved COSX, DLPNO-Multilevel,           
  DOCKER, DRACO, updates on ESD, GOAT, IRC, LR-CPCM, MBIS, meta-GGA TD-DFT gradient, ML-optimized integration grids, 
  MM, NACMEs, nearIR, NEB, NEB-TS, NL-DFT gradient (VV10), 2- and 3-layer-ONIOM, interface openCOSMO-RS, QMMM,   
  Crystal-QMMM, SF, symmetry and pop. for TD-DFT, r2SCAN hybrids, SOLVATOR                                   
                                                                         
[Other institutions]                                                     
  V. Asgeirsson          : NEB                                           
  Christoph Bannwarth    : sTDA-DFT, sTD-DFT, PBEh-3c, B97-3c, D3        
  Sebastian Ehlert       : rSCAN, r2SCAN, r2SCAN-3c, D4, dhf basis sets  
  Marvin Friede          : D4 for Fr, Ra, Ac-Lr                          
  Lars Goerigk           : TD-DFT with DH, B97 family of functionals     
  Stefan Grimme          : VdW corrections, initial TS optimization, DFT functionals, gCP, sTDA/sTD-DF 
  Waldemar Hujo          : DFT-NL                                        
  H. Jonsson             : NEB                                           
  Holger Kruse           : gCP                                           
  Marcel Mueller         : wB97X-3c, vDZP basis set                      
  Hagen Neugebauer       : wr2SCAN                                       
  Tobias Risthaus        : range-separated hybrid DFT                    
  Lukas Wittmann         : regularized MP2, r2SCAN double-hybrids, wr2SCAN        
                                                                         
We gratefully acknowledge several colleagues who have allowed us to      
interface, adapt or use parts of their codes:                            
  Ed Valeev, F. Pavosevic, A. Kumar             : LibInt (2-el integral package), F12 methods 
  Garnet Chan, S. Sharma, J. Yang, R. Olivares  : DMRG                   
  Ulf Ekstrom                                   : XCFun DFT Library      
  Mihaly Kallay                                 : mrcc  (arbitrary order and MRCC methods)
  Frank Weinhold                                : gennbo (NPA and NBO analysis)           
  Simon Mueller                                 : openCOSMO-RS                            
  Christopher J. Cramer and Donald G. Truhlar   : smd solvation model                     
  S Lehtola, MJT Oliveira, MAL Marques          : LibXC Library                           
  Liviu Ungur et al                             : ANISO software                          


 Your calculation uses the libint2 library for the computation of 2-el integrals
 For citations please refer to: http://libint.valeyev.net

 Your ORCA version has been built with support for libXC version: 6.2.2
 For citations please refer to: https://libxc.gitlab.io

 This ORCA versions uses:
   CBLAS   interface :  Fast vector & matrix operations
   LAPACKE interface :  Fast linear algebra routines
   SCALAPACK package :  Parallel linear algebra routines
   Shared memory     :  Shared parallel matrices
   BLAS/LAPACK       :  OpenBLAS 0.3.27  USE64BITINT DYNAMIC_ARCH NO_AFFINITY Zen SINGLE_THREADED
        Core in use  :  Zen
   Copyright (c) 2011-2014, The OpenBLAS Project




***************************************
The coordinates will be read from file: xtb_opt.xyz
***************************************


Your calculation utilizes the geometrical counterpoise correction gCP
Please cite in your paper:
H.Kruse, S. Grimme J.Chem.Phys., 136, (2012), 154101 
   

Your calculation utilizes the atom-pairwise dispersion correction
based on EEQ partial charges (D4)


================================================================================

----- Orbital basis set information -----
Your calculation utilizes the basis: def2-mTZVPP
   Stefan Grimme, Andreas Hansen, Sebastian Ehlert, and Jan-Michael Mewes 
   J. Chem. Phys. 154, 064103 (2021). DOI: 10.1063/5.0040021

----- AuxJ basis set information -----
Your calculation utilizes the auxiliary basis: def2/J
   F. Weigend, Phys. Chem. Chem. Phys. 8, 1057 (2006).

================================================================================
                                        WARNINGS
                       Please study these warnings very carefully!
================================================================================

WARNING: Old DensityContainer found on disk!
         Will remove this file - 
         If you want to keep old densities, please start your calculation with a different basename. 



WARNING: SCAN, rSCAN, or r2SCAN functional requested.
  ===> : libXC variant has now been activated.



================================================================================
                                       INPUT FILE
================================================================================
NAME = xtb_opt.inp
|  1> ! r2scan-3c def2/J RI DEFGRID2 scfconv7 ENGRAD tightSCF miniprint
|  2> * xyzfile 0 1 xtb_opt.xyz
|  3> 
|  4>                          ****END OF INPUT****
================================================================================

                     *******************************
                     * Energy+Gradient Calculation *
                     *******************************

---------------------------------
CARTESIAN COORDINATES (ANGSTROEM)
---------------------------------
  C      0.950725    1.283466   -0.049620
  C      0.459384   -0.129354   -0.335959
  C      1.399533   -1.214865    0.205624
  C     -0.940781   -0.361759    0.185567
  O     -1.661168    0.490974    0.647176
  H      0.246458    2.028632   -0.425943
  H      1.926957    1.452366   -0.512873
  H      1.049103    1.439953    1.029060
  H      0.374072   -0.277667   -1.426464
  H      2.389612   -1.122110   -0.248635
  H      1.022178   -2.219991   -0.009097
  H      1.515203   -1.117697    1.290249
  H     -1.287659   -1.422418    0.119369

----------------------------
CARTESIAN COORDINATES (A.U.)
----------------------------
  NO LB      ZA    FRAG     MASS         X           Y           Z
   0 C     6.0000    0    12.011    1.796611    2.425400   -0.093768
   1 C     6.0000    0    12.011    0.868110   -0.244443   -0.634870
   2 C     6.0000    0    12.011    2.644733   -2.295762    0.388572
   3 C     6.0000    0    12.011   -1.777819   -0.683626    0.350670
   4 O     8.0000    0    15.999   -3.139153    0.927807    1.222985
   5 H     1.0000    0     1.008    0.465739    3.833559   -0.804915
   6 H     1.0000    0     1.008    3.641421    2.744574   -0.969190
   7 H     1.0000    0     1.008    1.982517    2.721116    1.944641
   8 H     1.0000    0     1.008    0.706894   -0.524714   -2.695626
   9 H     1.0000    0     1.008    4.515713   -2.120481   -0.469853
  10 H     1.0000    0     1.008    1.931636   -4.195175   -0.017191
  11 H     1.0000    0     1.008    2.863319   -2.112141    2.438217
  12 H     1.0000    0     1.008   -2.433322   -2.687980    0.225574

------------------------------------------------------------------------------
                   ___                                                        
                  /   \      - P O W E R E D   B Y -                         
                 /     \                                                     
                 |  |  |   _    _      __       _____    __    __             
                 |  |  |  | |  | |    /  \     |  _  \  |  |  /  |          
                  \  \/   | |  | |   /    \    | | | |  |  | /  /          
                 / \  \   | |__| |  /  /\  \   | |_| |  |  |/  /          
                |  |  |   |  __  | /  /__\  \  |    /   |      \           
                |  |  |   | |  | | |   __   |  |    \   |  |\   \          
                \     /   | |  | | |  |  |  |  | |\  \  |  | \   \       
                 \___/    |_|  |_| |__|  |__|  |_| \__\ |__|  \__/        
                                                                              
                      - O R C A' S   B I G   F R I E N D -                    
                                      &                                       
                       - I N T E G R A L  F E E D E R -                       
                                                                              
 v1 FN, 2020, v2 2021, v3 2022-2024                                           
------------------------------------------------------------------------------


----------------------
SHARK INTEGRAL PACKAGE
----------------------

Number of atoms                             ...     13
Number of basis functions                   ...    140
Number of shells                            ...     70
Maximum angular momentum                    ...      2
Integral batch strategy                     ... SHARK/LIBINT Hybrid
RI-J (if used) integral strategy            ... SPLIT-RIJ (Revised 2003 algorithm where possible)
Printlevel                                  ...      1
Contraction scheme used                     ... SEGMENTED contraction
Prescreening option                         ... SCHWARTZ
   Thresh                                   ... 3.000e-11
   Tcut                                     ... 1.000e-12
   Tpresel                                  ... 1.000e-12 
Coulomb Range Separation                    ... NOT USED
Exchange Range Separation                   ... NOT USED
Multipole approximations                    ... NOT USED
Finite Nucleus Model                        ... NOT USED
CABS basis                                  ... NOT available
Auxiliary Coulomb fitting basis             ... AVAILABLE
   # of basis functions in Aux-J            ...    333
   # of shells in Aux-J                     ...    115
   Maximum angular momentum in Aux-J        ...      4
Auxiliary J/K fitting basis                 ... NOT available
Auxiliary Correlation fitting basis         ... NOT available
Auxiliary 'external' fitting basis          ... NOT available

Checking pre-screening integrals            ... done (  0.0 sec) Dimension = 70
Check shell pair data                       ... done (  0.0 sec)
Shell pair information
Shell pair cut-off parameter TPreSel        ...   1.0e-12
Total number of shell pairs                 ...      2485
Shell pairs after pre-screening             ...      2402
Total number of primitive shell pairs       ...      8780
Primitive shell pairs kept                  ...      6539
          la=0 lb=0:    817 shell pairs
          la=1 lb=0:    915 shell pairs
          la=1 lb=1:    271 shell pairs
          la=2 lb=0:    241 shell pairs
          la=2 lb=1:    137 shell pairs
          la=2 lb=2:     21 shell pairs

Calculating one electron integrals          ... done (  0.0 sec)
Calculating RI/J V-Matrix + Cholesky decomp.... done (  0.1 sec)
Calculating Nuclear repulsion               ... done (  0.0 sec) ENN=    176.989154498895 Eh

Diagonalization of the overlap matrix:
Smallest eigenvalue                        ... 2.644e-04
Time for diagonalization                   ...    0.002 sec
Threshold for overlap eigenvalues          ... 1.000e-07
Number of eigenvalues below threshold      ... 0
Time for construction of square roots      ...    0.003 sec
Total time needed                          ...    0.006 sec

-------------------
DFT GRID GENERATION
-------------------

General Integration Accuracy     IntAcc      ... 4.388
Radial Grid Type                 RadialGrid  ... OptM3 with GC (2021)
Angular Grid (max. ang.)         AngularGrid ... 4 (Lebedev-302)
Angular grid pruning method      GridPruning ... 4 (adaptive)
Weight generation scheme         WeightScheme... mBecke (2022)
Basis function cutoff            BFCut       ... 1.0000e-11
Integration weight cutoff        WCut        ... 1.0000e-14
Partially contracted basis set               ... off
Rotationally invariant grid construction     ... off
Angular grids for H and He will be reduced by one unit
Diffuse basis detected: some atoms will have their outermost
                        angular grid increased by 1.

Total number of grid points                  ...    56303
Total number of batches                      ...      887
Average number of points per batch           ...       63
Average number of grid points per atom       ...     4331
Initializing property integral containers    ... done (  0.0 sec)

SHARK setup successfully completed in   0.5 seconds

Maximum memory used throughout the entire STARTUP-calculation: 25.5 MB
Occupation numbers will be reassigned to an Aufbau configuration
             **** ENERGY FILE WAS UPDATED (xtb_opt.en.tmp) ****
Finished Guess after   0.1 sec
Maximum memory used throughout the entire GUESS-calculation: 10.2 MB
----------------------------------------D-I-I-S--------------------------------------------
Iteration    Energy (Eh)           Delta-E    RMSDP     MaxDP     DIISErr   Damp  Time(sec)
-------------------------------------------------------------------------------------------
               ***  Starting incremental Fock matrix formation  ***
    1    -232.3980526751421110     0.00e+00  5.12e-05  9.87e-04  8.21e-03  0.700   0.8
    2    -232.3981153410839795    -6.27e-05  5.08e-05  9.13e-04  6.33e-03  0.700   0.7
                               ***Turning on AO-DIIS***
    3    -232.3981639680496016    -4.86e-05  4.04e-05  6.93e-04  4.60e-03  0.700   0.7
                              *** Initializing SOSCF ***
---------------------------------------S-O-S-C-F--------------------------------------
Iteration    Energy (Eh)           Delta-E    RMSDP     MaxDP     MaxGrad    Time(sec)
--------------------------------------------------------------------------------------
    4    -232.3981984949340074    -3.45e-05  1.01e-04  1.71e-03  3.28e-03     0.7
               *** Restarting incremental Fock matrix formation ***
    5    -232.3982792825781587    -8.08e-05  9.23e-06  1.65e-04  5.94e-05     0.8
    6    -232.3982793745560969    -9.20e-08  3.88e-06  1.25e-04  3.14e-05     0.7
                 **** Energy Check signals convergence ****

               *****************************************************
               *                     SUCCESS                       *
               *           SCF CONVERGED AFTER   6 CYCLES          *
               *****************************************************

             **** ENERGY FILE WAS UPDATED (xtb_opt.en.tmp) ****

----------------
TOTAL SCF ENERGY
----------------

Total Energy       :       -232.39827937455610 Eh           -6323.87868 eV

Components:
Nuclear Repulsion  :        176.98915449889503 Eh            4816.11974 eV
Electronic Energy  :       -409.38743387345113 Eh          -11139.99842 eV
One Electron Energy:       -664.33184591489135 Eh          -18077.38856 eV
Two Electron Energy:        254.94441204144022 Eh            6937.39014 eV

Virial components:
Potential Energy   :       -463.72011614916113 Eh          -12618.46587 eV
Kinetic Energy     :        231.32183677460503 Eh            6294.58719 eV
Virial Ratio       :          2.00465344134804

DFT components:
N(Alpha)           :       19.999990753430 electrons
N(Beta)            :       19.999990753430 electrons
N(Total)           :       39.999981506859 electrons
E(X)               :      -31.896763103436 Eh       
E(C)               :       -1.254917128098 Eh       
E(XC)              :      -33.151680231534 Eh       

---------------
SCF CONVERGENCE
---------------

  Last Energy change         ...    9.1978e-08  Tolerance :   1.0000e-07
  Last MAX-Density change    ...    1.2529e-04  Tolerance :   1.0000e-07
  Last RMS-Density change    ...    3.8757e-06  Tolerance :   5.0000e-09
  Last DIIS Error            ...    3.2766e-03  Tolerance :   1.0000e-07
  Last Orbital Gradient      ...    3.1376e-05  Tolerance :   1.0000e-04
  Last Orbital Rotation      ...    7.0049e-05  Tolerance :   1.0000e-04


----------------
ORBITAL ENERGIES
----------------

  NO   OCC          E(Eh)            E(eV) 
   0   2.0000     -18.951364      -515.6928 
   1   2.0000     -10.120622      -275.3961 
   2   2.0000     -10.056025      -273.6383 
   3   2.0000     -10.040194      -273.2076 
   4   2.0000     -10.026319      -272.8300 
   5   2.0000      -1.014236       -27.5988 
   6   2.0000      -0.779792       -21.2192 
   7   2.0000      -0.664381       -18.0787 
   8   2.0000      -0.618710       -16.8360 
   9   2.0000      -0.519585       -14.1386 
  10   2.0000      -0.460642       -12.5347 
  11   2.0000      -0.428689       -11.6652 
  12   2.0000      -0.418552       -11.3894 
  13   2.0000      -0.377337       -10.2679 
  14   2.0000      -0.363944        -9.9034 
  15   2.0000      -0.356514        -9.7013 
  16   2.0000      -0.343613        -9.3502 
  17   2.0000      -0.323391        -8.7999 
  18   2.0000      -0.315960        -8.5977 
  19   2.0000      -0.221890        -6.0379 
  20   0.0000      -0.059300        -1.6136 
  21   0.0000       0.084937         2.3113 
  22   0.0000       0.110917         3.0182 
  23   0.0000       0.117101         3.1865 
  24   0.0000       0.127778         3.4770 
  25   0.0000       0.135920         3.6986 
  26   0.0000       0.151238         4.1154 
  27   0.0000       0.161529         4.3954 
  28   0.0000       0.174702         4.7539 
  29   0.0000       0.177075         4.8184 
  30   0.0000       0.198668         5.4060 
*Only the first 10 virtual orbitals were printed.
Total SCF time: 0 days 0 hours 0 min 4 sec 
Finished LeanSCF after   7.7 sec

Maximum memory used throughout the entire LEANSCF-calculation: 15.1 MB


-------------------------------------------------------------------------------
                          DFT DISPERSION CORRECTION                            
                                                                               
                                DFTD4 V3.4.0                                   
-------------------------------------------------------------------------------
-------------------------   ----------------
Dispersion correction           -0.002774566
-------------------------   ----------------

------------------   -----------------
gCP correction             0.006053325
------------------   -----------------

-------------------------   --------------------
FINAL SINGLE POINT ENERGY      -232.395000615709
-------------------------   --------------------

------------------------------------------------------------------------------
                         ORCA SCF GRADIENT CALCULATION
------------------------------------------------------------------------------

Nuc. rep. gradient        (SHARK) ... done (  0.0 sec)
HCore & Overlap gradient  (SHARK) ... done (  0.1 sec)
Split-RIJ-J gradient      (SHARK) ... done (  0.5 sec)
XC gradient                       ... done (  2.3 sec)
Dispersion correction             ... done (  0.0 sec)

-------------------
DISPERSION GRADIENT
-------------------

   1   C   :    0.000020500    0.000045071   -0.000004577
   2   C   :    0.000004339   -0.000002595   -0.000010182
   3   C   :    0.000034439   -0.000040093    0.000003352
   4   C   :   -0.000038807   -0.000011819    0.000000862
   5   O   :   -0.000070704    0.000015467    0.000016577
   6   H   :    0.000000047    0.000025059   -0.000004333
   7   H   :    0.000017449    0.000023182   -0.000006887
   8   H   :    0.000007026    0.000021553    0.000005578
   9   H   :    0.000000347   -0.000001333   -0.000010316
  10   H   :    0.000023152   -0.000017261   -0.000001830
  11   H   :    0.000012291   -0.000026573   -0.000000134
  12   H   :    0.000017135   -0.000017845    0.000009725
  13   H   :   -0.000027213   -0.000012814    0.000002165

Difference to translation invariance:
           :    0.0000000000   -0.0000000000   -0.0000000000

Difference to rotation invariance:
           :   -0.0000000000    0.0000000000   -0.0000000000

Norm of the Dispersion gradient    ...    0.0001344102
RMS gradient                       ...    0.0000215229
MAX gradient                       ...    0.0000707043
gCP correction                   ... done

------------------
CARTESIAN GRADIENT
------------------

   1   C   :    0.000051978    0.000009614   -0.000007693
   2   C   :    0.000216298   -0.000253264    0.000388886
   3   C   :    0.000062457    0.000043369   -0.000148743
   4   C   :   -0.000006009   -0.000196276   -0.000809552
   5   O   :   -0.000442974    0.000495403   -0.000048913
   6   H   :   -0.000031419   -0.000027153    0.000066487
   7   H   :   -0.000023096    0.000031007   -0.000005334
   8   H   :    0.000086728   -0.000033393    0.000047393
   9   H   :   -0.000189776    0.000206120    0.000000937
  10   H   :    0.000021727   -0.000013471    0.000017682
  11   H   :    0.000000753    0.000004117   -0.000040920
  12   H   :    0.000054911   -0.000074273   -0.000003976
  13   H   :    0.000198422   -0.000191800    0.000543746

Difference to translation invariance:
           :   -0.0000000000    0.0000000000   -0.0000000000

Difference to rotation invariance:
           :   -0.0000814143   -0.0000611071    0.0001107491

Norm of the Cartesian gradient     ...    0.0013823793
RMS gradient                       ...    0.0002213578
MAX gradient                       ...    0.0008095517

-------
TIMINGS
-------

Total SCF gradient time     ....        2.954 sec

Densities                   ....       0.000 sec  (  0.0%)
One electron gradient       ....       0.083 sec  (  2.8%)
RI-J Coulomb gradient       ....       0.503 sec  ( 17.0%)
XC gradient                 ....       2.330 sec  ( 78.9%)

Maximum memory used throughout the entire SCFGRAD-calculation: 30.2 MB

------------------------------------------------------------------------------
                              ORCA PROPERTY CALCULATIONS
------------------------------------------------------------------------------

GBWName                                 ... xtb_opt.gbw
Number of atoms                         ...     13
Number of basis functions               ...    140
Max core memory                         ...   1024 MB

Electric properties:
Dipole moment                           ... YES
Quadrupole moment                       ...  NO
Static polarizability (Dipole/Dipole)   ...  NO
Static polarizability (Dipole/Quad.)    ...  NO
Static polarizability (Quad./Quad.)     ...  NO
Static polarizability (Velocity)        ...  NO

Atomic electric properties:
Dipole moment                           ...  NO
Quadrupole moment                       ...  NO
Static polarizability                   ...  NO

Choice of electric origin               ... Center of mass
Position of electric origin             ...     0.082911     0.040136     0.268251

General magnetic properties:
Magnetizability                         ...  NO

EPR properties:
g-Tensor (aka g-matrix)                 ...  NO
Zero-Field splitting spin-orbit         ...  NO
Zero-field splitting spin-spin          ...  NO
Hyperfine couplings                     ...  NO (   0 nuclei)
Quadrupole couplings                    ...  NO (   0 nuclei)
Contact density                         ...  NO (   0 nuclei)

NMR properties:
Chemical shifts                         ...  NO (   0 nuclei)
Spin-rotation constants                 ...  NO (   0 nuclei)
Spin-spin couplings                     ...  NO (   0 nuclei,    0 pairs)

Choice of magnetic origin               ... GIAO
Position of magnetic origin             ...     0.000000     0.000000     0.000000

Properties with geometric perturbations:
SCF Hessian                             ...  NO
IR spectrum                             ...  NO
VCD spectrum                            ...  NO
X-ray spectroscopy properties:
SCF XES/XAS/RIXS spectra                ...  NO


-------------
DIPOLE MOMENT
-------------

Method             : SCF
Type of density    : Electron Density
Multiplicity       :   1
Irrep              :   0
Energy             :  -232.3982793745560969 Eh
Relativity type    : 
Basis              : AO
                                X                 Y                 Z
Electronic contribution:     -5.608669368       0.731666449       0.788642295
Nuclear contribution   :      6.434060232      -1.314795935      -1.230876786
                        -----------------------------------------
Total Dipole Moment    :      0.825390863      -0.583129486      -0.442234491
                        -----------------------------------------
Magnitude (a.u.)       :      1.103123483
Magnitude (Debye)      :      2.803917064



--------------------
Rotational spectrum 
--------------------
 
Rotational constants in cm-1:             0.254328             0.135465             0.098001 
Rotational constants in MHz :          7624.572241          4061.141482          2937.993066 

Dipole components along the rotational axes: 
x,y,z [a.u.] :     1.015024     0.298410    -0.312344 
x,y,z [Debye]:     2.579986     0.758498    -0.793915 

 

Dipole moment calculation done in   0.8 sec 

Maximum memory used throughout the entire PROP-calculation: 8.4 MB

--------------------------------
SUGGESTED CITATIONS FOR THIS RUN
--------------------------------

Below you find a list of papers that are relevant to this ORCA run
We neither can nor want to force you to cite these papers, but we appreciate if you do
You receive ORCA, which is the product of decades of hard work by many enthusiastic individuals, for free
The only thing we kindly ask in return is that you cite our papers,
We deeply appreciate it, if you show your appreciation for ORCA by not just citing the generic ORCA reference.

Please note that relegating all ORCA citations to the supporting information does *not* help us.
SI sections are not indexed - citations you put there will not count into any citation statistics
[...]
                              *** Initializing SOSCF ***
---------------------------------------S-O-S-C-F--------------------------------------
Iteration    Energy (Eh)           Delta-E    RMSDP     MaxDP     MaxGrad    Time(sec)
--------------------------------------------------------------------------------------
    1    -232.3984018777772746     0.00e+00  1.99e-06  4.09e-05  1.17e-05     1.0
               *** Restarting incremental Fock matrix formation ***
    2    -232.3984018753817224     2.40e-09  4.88e-06  1.87e-04  3.25e-05     0.8
    3    -232.3984018207076758     5.47e-08  4.17e-06  1.72e-04  9.55e-05     0.6
                 **** Energy Check signals convergence ****

               *****************************************************
               *                     SUCCESS                       *
               *           SCF CONVERGED AFTER   3 CYCLES          *
               *****************************************************

             **** ENERGY FILE WAS UPDATED (xtb_opt.en.tmp) ****

----------------
TOTAL SCF ENERGY
----------------

Total Energy       :       -232.39840182070768 Eh           -6323.88201 eV

Components:
Nuclear Repulsion  :        177.20161946378548 Eh            4821.90121 eV
Electronic Energy  :       -409.60002128449315 Eh          -11145.78322 eV
One Electron Energy:       -664.75872373986579 Eh          -18089.00450 eV
Two Electron Energy:        255.15870245537263 Eh            6943.22128 eV

Virial components:
Potential Energy   :       -463.72142561977716 Eh          -12618.50150 eV
Kinetic Energy     :        231.32302379906946 Eh            6294.61949 eV
Virial Ratio       :          2.00464881534046

DFT components:
N(Alpha)           :       19.999987663585 electrons
N(Beta)            :       19.999987663585 electrons
N(Total)           :       39.999975327171 electrons
E(X)               :      -31.897181736775 Eh       
E(C)               :       -1.254879932683 Eh       
E(XC)              :      -33.152061669458 Eh       

---------------
SCF CONVERGENCE
---------------

  Last Energy change         ...   -5.4674e-08  Tolerance :   1.0000e-07
  Last MAX-Density change    ...    1.7216e-04  Tolerance :   1.0000e-07
  Last RMS-Density change    ...    4.1652e-06  Tolerance :   5.0000e-09
  Last DIIS Error            ...    4.2796e-05  Tolerance :   1.0000e-07
  Last Orbital Gradient      ...    9.5457e-05  Tolerance :   1.0000e-04
  Last Orbital Rotation      ...    8.8736e-05  Tolerance :   1.0000e-04


----------------
ORBITAL ENERGIES
----------------

  NO   OCC          E(Eh)            E(eV) 
   0   2.0000     -18.950983      -515.6825 
   1   2.0000     -10.120437      -275.3911 
   2   2.0000     -10.055860      -273.6339 
   3   2.0000     -10.041034      -273.2304 
   4   2.0000     -10.026079      -272.8235 
   5   2.0000      -1.014031       -27.5932 
   6   2.0000      -0.779848       -21.2207 
   7   2.0000      -0.664310       -18.0768 
   8   2.0000      -0.619068       -16.8457 
   9   2.0000      -0.517986       -14.0951 
  10   2.0000      -0.462949       -12.5975 
  11   2.0000      -0.427147       -11.6233 
  12   2.0000      -0.417922       -11.3722 
  13   2.0000      -0.379490       -10.3264 
  14   2.0000      -0.364779        -9.9261 
  15   2.0000      -0.353517        -9.6197 
  16   2.0000      -0.343683        -9.3521 
  17   2.0000      -0.323639        -8.8067 
  18   2.0000      -0.316311        -8.6072 
  19   2.0000      -0.221682        -6.0323 
  20   0.0000      -0.058532        -1.5927 
  21   0.0000       0.083755         2.2791 
  22   0.0000       0.109698         2.9850 
  23   0.0000       0.117412         3.1949 
  24   0.0000       0.128181         3.4880 
  25   0.0000       0.138687         3.7739 
  26   0.0000       0.150689         4.1005 
  27   0.0000       0.160956         4.3798 
  28   0.0000       0.174635         4.7521 
  29   0.0000       0.177029         4.8172 
  30   0.0000       0.196295         5.3414 
*Only the first 10 virtual orbitals were printed.
Total SCF time: 0 days 0 hours 0 min 3 sec 
Finished LeanSCF after   6.2 sec

Maximum memory used throughout the entire LEANSCF-calculation: 15.1 MB


-------------------------------------------------------------------------------
                          DFT DISPERSION CORRECTION                            
                                                                               
                                DFTD4 V3.4.0                                   
-------------------------------------------------------------------------------
-------------------------   ----------------
Dispersion correction           -0.002779321
-------------------------   ----------------

------------------   -----------------
gCP correction             0.006039589
------------------   -----------------

-------------------------   --------------------
FINAL SINGLE POINT ENERGY      -232.395141553108
-------------------------   --------------------

------------------------------------------------------------------------------
                         ORCA SCF GRADIENT CALCULATION
------------------------------------------------------------------------------

Nuc. rep. gradient        (SHARK) ... done (  0.0 sec)
HCore & Overlap gradient  (SHARK) ... done (  0.1 sec)
Split-RIJ-J gradient      (SHARK) ... done (  0.5 sec)
XC gradient                       ... done (  2.4 sec)
Dispersion correction             ... done (  0.0 sec)

-------------------
DISPERSION GRADIENT
-------------------

   1   C   :    0.000020332    0.000045189   -0.000005211
   2   C   :    0.000004247   -0.000002578   -0.000010585
   3   C   :    0.000034171   -0.000039522    0.000003156
   4   C   :   -0.000038511   -0.000012017    0.000000446
   5   O   :   -0.000069619    0.000014503    0.000020716
   6   H   :    0.000000515    0.000025607   -0.000004973
   7   H   :    0.000017393    0.000023112   -0.000007059
   8   H   :    0.000006095    0.000021322    0.000005199
   9   H   :    0.000000588   -0.000001529   -0.000010871
  10   H   :    0.000023324   -0.000017323   -0.000001783
  11   H   :    0.000012251   -0.000026560   -0.000000025
  12   H   :    0.000016899   -0.000017422    0.000009667
  13   H   :   -0.000027684   -0.000012781    0.000001322

Difference to translation invariance:
           :   -0.0000000000   -0.0000000000    0.0000000000

Difference to rotation invariance:
           :    0.0000000000   -0.0000000000   -0.0000000000

Norm of the Dispersion gradient    ...    0.0001341519
RMS gradient                       ...    0.0000214815
MAX gradient                       ...    0.0000696193
gCP correction                   ... done

------------------
CARTESIAN GRADIENT
------------------

   1   C   :    0.000000025   -0.000061127   -0.000046220
   2   C   :   -0.000090854    0.000159647   -0.000054608
   3   C   :    0.000058090   -0.000057742    0.000091797
   4   C   :    0.000279491   -0.000225057   -0.000066827
   5   O   :   -0.000237115    0.000318351    0.000168470
   6   H   :   -0.000001540    0.000021018    0.000004311
   7   H   :    0.000010921    0.000013466    0.000002600
   8   H   :   -0.000007851   -0.000010585    0.000010212
   9   H   :    0.000024059   -0.000064035    0.000027894
  10   H   :   -0.000016936    0.000009034   -0.000020169
  11   H   :   -0.000006697    0.000007299   -0.000018879
  12   H   :   -0.000000404   -0.000007213   -0.000026512
  13   H   :   -0.000011190   -0.000103055   -0.000072068

Difference to translation invariance:
           :   -0.0000000000   -0.0000000000   -0.0000000000

Difference to rotation invariance:
           :   -0.0000872499   -0.0000004421    0.0000165442

Norm of the Cartesian gradient     ...    0.0006335188
RMS gradient                       ...    0.0001014442
MAX gradient                       ...    0.0003183508

-------
TIMINGS
-------

Total SCF gradient time     ....        3.021 sec

Densities                   ....       0.000 sec  (  0.0%)
One electron gradient       ....       0.084 sec  (  2.8%)
RI-J Coulomb gradient       ....       0.508 sec  ( 16.8%)
XC gradient                 ....       2.389 sec  ( 79.1%)

Maximum memory used throughout the entire SCFGRAD-calculation: 30.2 MB

------------------------------------------------------------------------------
                              ORCA PROPERTY CALCULATIONS
------------------------------------------------------------------------------

GBWName                                 ... xtb_opt.gbw
Number of atoms                         ...     13
Number of basis functions               ...    140
Max core memory                         ...   1024 MB

Electric properties:
Dipole moment                           ... YES
Quadrupole moment                       ...  NO
Static polarizability (Dipole/Dipole)   ...  NO
Static polarizability (Dipole/Quad.)    ...  NO
Static polarizability (Quad./Quad.)     ...  NO
Static polarizability (Velocity)        ...  NO

Atomic electric properties:
Dipole moment                           ...  NO
Quadrupole moment                       ...  NO
Static polarizability                   ...  NO

Choice of electric origin               ... Center of mass
Position of electric origin             ...     0.105725     0.022388     0.318405

General magnetic properties:
Magnetizability                         ...  NO

EPR properties:
g-Tensor (aka g-matrix)                 ...  NO
Zero-Field splitting spin-orbit         ...  NO
Zero-field splitting spin-spin          ...  NO
Hyperfine couplings                     ...  NO (   0 nuclei)
Quadrupole couplings                    ...  NO (   0 nuclei)
Contact density                         ...  NO (   0 nuclei)

NMR properties:
Chemical shifts                         ...  NO (   0 nuclei)
Spin-rotation constants                 ...  NO (   0 nuclei)
Spin-spin couplings                     ...  NO (   0 nuclei,    0 pairs)

Choice of magnetic origin               ... GIAO
Position of magnetic origin             ...     0.000000     0.000000     0.000000

Properties with geometric perturbations:
SCF Hessian                             ...  NO
IR spectrum                             ...  NO
VCD spectrum                            ...  NO
X-ray spectroscopy properties:
SCF XES/XAS/RIXS spectra                ...  NO


-------------
DIPOLE MOMENT
-------------

Method             : SCF
Type of density    : Electron Density
Multiplicity       :   1
Irrep              :   0
Energy             :  -232.3984018207076758 Eh
Relativity type    : 
Basis              : AO
                                X                 Y                 Z
Electronic contribution:     -5.496824498       0.642148309       1.015699026
Nuclear contribution   :      6.290091888      -1.203008598      -1.545600799
                        -----------------------------------------
Total Dipole Moment    :      0.793267390      -0.560860290      -0.529901773
                        -----------------------------------------
Magnitude (a.u.)       :      1.106631513
Magnitude (Debye)      :      2.812833767



--------------------
Rotational spectrum 
--------------------
 
Rotational constants in cm-1:             0.249357             0.137342             0.099691 
Rotational constants in MHz :          7475.549322          4117.419471          2988.674925 

Dipole components along the rotational axes: 
x,y,z [a.u.] :    -0.999903    -0.298330    -0.368547 
x,y,z [Debye]:    -2.541551    -0.758296    -0.936772 

 

Dipole moment calculation done in   0.7 sec 

Maximum memory used throughout the entire PROP-calculation: 8.4 MB

--------------------------------
SUGGESTED CITATIONS FOR THIS RUN
--------------------------------

Below you find a list of papers that are relevant to this ORCA run
We neither can nor want to force you to cite these papers, but we appreciate if you do
You receive ORCA, which is the product of decades of hard work by many enthusiastic individuals, for free
The only thing we kindly ask in return is that you cite our papers,
We deeply appreciate it, if you show your appreciation for ORCA by not just citing the generic ORCA reference.

Please note that relegating all ORCA citations to the supporting information does *not* help us.
SI sections are not indexed - citations you put there will not count into any citation statistics
But we need these citations in order to attract the funding resources that allow us to do what we are doing

Therefore, if you are a happy ORCA user, please consider citing a few of the papers listed below in the main body of your paper

In addition to the list printed below, the program has created the file xtb_opt.bibtex that contains the list in bibtex format
You can import this file easily into all common literature databanks and citation aid programs


List of essential papers. We consider these as the minimum necessary citations

  1. Neese,F.
     Software update: the ORCA program system, version 5.0
     WIRES Comput. Molec. Sci., 2022 12(1)e1606
     doi.org/10.1002/wcms.1606
  2. Grimme,S.; Hansen,A.; Ehlert,S.; Mewes,J.
     r2SCAN-3c: A 'Swiss army knife' composite electronic-structure method
     J. Chem. Phys., 2021 154 064103
     doi.org/10.1063/5.0040021

List of papers to cite with high priority. The work reported in these papers was absolutely
necessary for this run to complete.
Our perspective: the developers of density functionals and basis sets usually get cited in chemistry papers
Good! But without the algorithms to do something with them, the functionals or basis sets would not do anything.
Hence, in our opinion, the algorithm design and method developments papers are equally worthy of getting cited

  1. Neese,F.
     An improvement of the resolution of the identity approximation for the formation of the Coulomb matrix
     J. Comp. Chem., 2003 24(14)1740-1747
     doi.org/10.1002/jcc.10318
  2. Neese,F.
     The SHARK Integral Generation and Digestion System
     J. Comp. Chem., 2022  1-16
     doi.org/10.1002/jcc.26942
  3. Lehtola,S.; Steigemann,C.; Oliveira,M.; Marques,M.
     Recent developments in Libxc - A comprehensive library of functionals for density functional theory
     Software X, 2018 7 
     doi.org/10.1016/j.softx.2017.11.002
  4. Caldeweyher,E.; Bannwarth,C.; Grimme,S.
     Extension of the D3 dispersion coefficient model
     J. Chem. Phys., 2017 147 034112
     doi.org/10.1063/1.4993215
  5. Caldeweyher,E.; Ehlert,S.; Hansen,A.; Neugebauer,H.; Spicher,S.; Bannwarth,C.; Grimme,S.
     A generally applicable atomic-charge dependent London dispersion correction
     J. Chem. Phys., 2019 150 154122
     doi.org/10.1063/1.5090222
  6. Caldeweyher,E.; Mewes,J.; Ehlert,S.; Grimme,S.
     Extension and evaluation of the D4 London-dispersion model for periodic systems
     Phys. Chem. Chem. Phys., 2020 22(16)8499-8512
     doi.org/10.1039/D0CP00502A
  7. Wittmann,L.; Gordiy,I.; Friede,M.; Helmich-Paris,B.; Grimme,S.; Hansen,A.; Bursch,M.
     Extension of the D3 and D4 London Dispersion Corrections to the full Actinides Series
     Phys. Chem. Chem. Phys., 2024 26(32)21379-21394
     doi.org/https://doi.org/10.1039/D4CP01514B 

List of suggested additional citations. These are papers that are important in the 'surrounding' of 
of this run, or papers that preceded the highly important papers. If you like your results we are grateful for a citation.

  1. Neese,F.
     The ORCA program system
     WIRES Comput. Molec. Sci., 2012 2(1)73-78
     doi.org/10.1002/wcms.81
  2. Neese,F.
     Software update: the ORCA program system, version 4.0
     WIRES Comput. Molec. Sci., 2018 8(1)1-6
     doi.org/10.1002/wcms.1327
  3. Neese,F.; Wennmohs,F.; Becker,U.; Riplinger,C.
     The ORCA quantum chemistry program package
     J. Chem. Phys., 2020 152 Art. No. L224108
     doi.org/10.1063/5.0004608

List of optional additional citations

  1. Neese,F.
     Approximate second-order SCF convergence for spin unrestricted wavefunctions
     Chem. Phys. Lett., 2000 325(1-3)93-98
     doi.org/10.1016/s0009-2614(00)00662-x

Timings for individual modules:

Sum of individual times          ...       11.269 sec (=   0.188 min)
Startup calculation              ...        0.477 sec (=   0.008 min)   4.2 %
SCF iterations                   ...        6.330 sec (=   0.105 min)  56.2 %
Property calculations            ...        0.721 sec (=   0.012 min)   6.4 %
SCF Gradient evaluation          ...        3.742 sec (=   0.062 min)  33.2 %
                             ****ORCA TERMINATED NORMALLY****
TOTAL RUN TIME: 0 days 0 hours 0 minutes 14 seconds 390 msec
  ------------------------------------------------------------------------
          * successful ORCA run, taking over control again...

         :::::::::::::::::::::::::::::::::::::::::::::::::::::
         ::                  ORCA SUMMARY                   ::
         :::::::::::::::::::::::::::::::::::::::::::::::::::::
         :: total energy            -232.395141553108 Eh    ::
         :: gradient norm              0.000633518833 Eh/a0 ::
         :: HOMO-LUMO gap              0.000000000000 eV    ::
         :::::::::::::::::::::::::::::::::::::::::::::::::::::

           -------------------------------------------------
          |                Property Printout                |
           -------------------------------------------------
           -------------------------------------------------
          |                Geometry Summary                 |
           -------------------------------------------------

      molecular mass/u    :       72.1058745
   center of mass at/Å    :        0.0559265       0.0118522       0.1685000
  moments of inertia/u·Å² :        0.6760203E+02   0.1227409E+03   0.1690957E+03
rotational constants/cm⁻¹ :        0.2493658E+00   0.1373433E+00   0.9969282E-01

 * 10 selected distances

     #   Z          #   Z                                           value/Å
     1   6 C        2   6 C                                       1.5220598
     2   6 C        3   6 C                                       1.5376439 (max)
     4   6 C        5   8 O                                       1.2079305
     1   6 C        6   1 H                                       1.0926185 (min)
     1   6 C        7   1 H                                       1.0938221
     1   6 C        8   1 H                                       1.0939408
     2   6 C        9   1 H                                       1.1027825
     3   6 C       10   1 H                                       1.0933225
     3   6 C       11   1 H                                       1.0948652
     3   6 C       12   1 H                                       1.0948545

 * 3 distinct bonds (by element types)

   Z      Z             #   av. dist./Å        max./Å        min./Å
   1 H    6 C           7     1.0951723     1.1027825     1.0926185
   6 C    6 C           2     1.5298518     1.5376439     1.5220598
   6 C    8 O           1     1.2079305     1.2079305     1.2079305


optimized geometry written to: xtbopt.coord


           -------------------------------------------------
          | TOTAL ENERGY             -232.395141553108 Eh   |
          | GRADIENT NORM               0.000633518833 Eh/α |
           -------------------------------------------------

------------------------------------------------------------------------
 * finished run on 2025/04/15 at 20:11:32.206     
------------------------------------------------------------------------
 total:
 * wall-time:     0 d,  0 h,  2 min, 40.541 sec
 *  cpu-time:     0 d,  0 h,  0 min,  4.130 sec
 * ratio c/w:     0.026 speedup
 SCF:
 * wall-time:     0 d,  0 h,  0 min, 15.685 sec
 *  cpu-time:     0 d,  0 h,  0 min,  1.521 sec
 * ratio c/w:     0.097 speedup
 ANC optimizer:
 * wall-time:     0 d,  0 h,  2 min, 24.843 sec
 *  cpu-time:     0 d,  0 h,  0 min,  2.545 sec
 * ratio c/w:     0.018 speedup

