17
 energy: -29.510439053654 gnorm: 0.036048506900 xtb: 6.7.1 (edcfbbe)
C           -2.91622018515648        1.47243391089111        0.00065835343816
C           -1.81217498454471        0.45200015058695        0.00023092714992
C           -2.10907247694553       -0.91626752777376       -0.00031414604979
C           -1.10175991036366       -1.87473852015613       -0.00060101199122
C            0.23419247284303       -1.49119988681470       -0.00030699502884
C            0.51849486600953       -0.13324236187902        0.00015485023415
C           -0.47452025453697        0.83942731978027        0.00040820634431
N            1.93366738455757        0.29844314564967       -0.00003560347501
O            2.79224714584268       -0.57514300211375        0.00083953633609
O            2.15966188236363        1.50248732081114       -0.00124922240421
H           -3.55493744020314        1.35589271507514       -0.88095872154877
H           -3.55392458932506        1.35616815671728        0.88305093671828
H           -2.51830178356097        2.48913176338404        0.00029034318346
H           -3.14870885083331       -1.23218839065135       -0.00052783865086
H           -1.35693445005498       -2.92908651992390       -0.00109008703142
H            1.04049062722469       -2.21301420723147       -0.00054113541123
H           -0.19152976247883        1.88517368721079        0.00068505954875
17
 energy: -29.511845978889 gnorm: 0.014387877151 xtb: 6.7.1 (edcfbbe)
C           -2.90715628491237        1.46718047832053        0.00065576193406
C           -1.80673361621503        0.45225842670284        0.00023011253485
C           -2.10298934662279       -0.91075891028160       -0.00027722955056
C           -1.10073695311589       -1.86692925994747       -0.00057721102659
C            0.22998410641744       -1.48415126824509       -0.00040133243245
C            0.51927043447379       -0.12887389631572        0.00000959835158
C           -0.47414640250839        0.83935564259880        0.00033320599828
N            1.91579577853213        0.29661241312189       -0.00010490514201
O            2.76655102494293       -0.56993305722682        0.00091205916064
O            2.14040336219893        1.49019400887911       -0.00104470322121
H           -3.53961501509047        1.34320784864880       -0.87902906984513
H           -3.53858117047451        1.34351635560059        0.88113382310187
H           -2.50673247840974        2.47847160306120        0.00026402107752
H           -3.13822597070193       -1.22410738165151       -0.00046251828928
H           -1.35648375383552       -2.91673292060647       -0.00099575958463
H            1.03273265315959       -2.20524789344259       -0.00060948265156
H           -0.19266667700071        1.88221556434583        0.00065708094637
17
 energy: -29.512028560026 gnorm: 0.006689092674 xtb: 6.7.1 (edcfbbe)
C           -2.90407298323455        1.46570940702063        0.00064508630677
C           -1.80433162734862        0.45229876451887        0.00020029417151
C           -2.10104886878638       -0.90908985365022       -0.00027979063779
C           -1.10018122266614       -1.86505804939830       -0.00058390410504
C            0.22855077069042       -1.48148500042703       -0.00043539174045
C            0.52383665543675       -0.12626666991885       -0.00000371067452
C           -0.47333822691850        0.83895699274296        0.00029763317324
N            1.90775646337717        0.29547111981094        0.00016145696629
O            2.75681651123555       -0.56801457240307        0.00077567888680
O            2.13226168286202        1.48563450636712       -0.00105259698710
H           -3.53423905408228        1.33895832273574       -0.87811629559252
H           -3.53319437789756        1.33926741829930        0.88020792619665
H           -2.50356311145865        2.47514121321115        0.00025215572006
H           -3.13512871001932       -1.22051984488505       -0.00040820060257
H           -1.35622596376278       -2.91316305276214       -0.00094991711152
H            1.02988537001048       -2.20277706958936       -0.00066013060885
H           -0.19311361660014        1.88121412188963        0.00064315800080
17
 energy: -29.512049466630 gnorm: 0.003474795954 xtb: 6.7.1 (edcfbbe)
C           -2.90411095198639        1.46583854206958        0.00064884499493
C           -1.80421451159469        0.45216147347701        0.00021004493685
C           -2.10139389178249       -0.90927445001370       -0.00022362219930
C           -1.10017463473399       -1.86531720597172       -0.00055263341240
C            0.22815409575810       -1.48111002680038       -0.00047442974023
C            0.52609748601443       -0.12554495149961       -0.00015323097829
C           -0.47335191442966        0.83860929106936        0.00025523572105
N            1.90680019074007        0.29512766150816       -0.00047942358032
O            2.75710014457213       -0.56819190586899        0.00111640985785
O            2.13237829593096        1.48585926481683       -0.00059650481372
H           -3.53413040366636        1.33884087199346       -0.87819123359697
H           -3.53305957240576        1.33917817674068        0.88031196913210
H           -2.50360612559465        2.47527331568504        0.00023261839153
H           -3.13571651598429       -1.22021667404310       -0.00029381147382
H           -1.35597799732068       -2.91345118603618       -0.00089829344626
H            1.02949835010337       -2.20268901394080       -0.00075911502838
H           -0.19362235278258        1.88118457037671        0.00054062659716
17
 energy: -29.512054056884 gnorm: 0.001275907850 xtb: 6.7.1 (edcfbbe)
C           -2.90434384951745        1.46608106399805        0.00059867264046
C           -1.80432553720922        0.45193423066644        0.00013780185590
C           -2.10199535847249       -0.90969828160696       -0.00032846893202
C           -1.10018289715839       -1.86568486343745       -0.00065179029688
C            0.22778861912125       -1.48090242386657       -0.00045470687852
C            0.52793043574981       -0.12503792589679        0.00028074126154
C           -0.47355060214652        0.83820989567365        0.00029510653190
N            1.90625156246741        0.29477567562261        0.00199088690324
O            2.75834289512058       -0.56842031921896       -0.00032097937731
O            2.13343189396001        1.48640033488317       -0.00182530614115
H           -3.53447581582832        1.33930504535355       -0.87841551865636
H           -3.53343120593820        1.33959868544881        0.88041266043904
H           -2.50377865572219        2.47567725310282        0.00021816337317
H           -3.13664684493219       -1.22037623792060       -0.00049486540233
H           -1.35550113089786       -2.91407057566240       -0.00099151154256
H            1.02938069213193       -2.20272314904964       -0.00054601444236
H           -0.19422450989066        1.88120934547259        0.00078858002601
17
 energy: -29.512049839155 gnorm: 0.002238283322 xtb: 6.7.1 (edcfbbe)
C           -2.90444259291346        1.46618974473234        0.00067783208436
C           -1.80446965585743        0.45180580546930        0.00025723687666
C           -2.10229782396109       -0.90995168146352       -0.00006463813637
C           -1.10018655097024       -1.86580771268754       -0.00043542720094
C            0.22769730813296       -1.48093245600486       -0.00054708784566
C            0.52812055749673       -0.12502789982898       -0.00067471572199
C           -0.47372471103352        0.83807038905286        0.00013353107715
N            1.90612307179572        0.29463401720831       -0.00302777824200
O            2.75911043209258       -0.56838964435136        0.00244621797504
O            2.13418301257691        1.48662921619191        0.00106739898159
H           -3.53482562575615        1.33968211945553       -0.87835882682031
H           -3.53368161727662        1.34010713948935        0.88060014460417
H           -2.50377945575200        2.47588620415147        0.00018783571622
H           -3.13704665082227       -1.22070324713487        0.00007712853035
H           -1.35518180976734       -2.91439172873960       -0.00074322055321
H            1.02951568498235       -2.20275238350794       -0.00106770090294
H           -0.19444388212963        1.88122987152994        0.00016552093964
17
 energy: -29.512056098050 gnorm: 0.000653365187 xtb: 6.7.1 (edcfbbe)
C           -2.90432112108904        1.46609500450421        0.00064329345094
C           -1.80441030117697        0.45188484249775        0.00021652939993
C           -2.10207492516808       -0.90979235354025       -0.00016909473729
C           -1.10018117502068       -1.86566537190030       -0.00051673278930
C            0.22781858474697       -1.48099006978229       -0.00049237911595
C            0.52752672830692       -0.12518057568191       -0.00027744630300
C           -0.47364755289427        0.83821075747519        0.00021575626475
N            1.90617531778911        0.29473841596934       -0.00108150441645
O            2.75857398027104       -0.56825967304083        0.00132322811608
O            2.13372552140596        1.48638042707718       -0.00006354341816
H           -3.53461397809114        1.33952149931677       -0.87834845028244
H           -3.53352163351300        1.33989433909074        0.88047767123144
H           -2.50366165669094        2.47571084174290        0.00019959933896
H           -3.13669097004694       -1.22062062971427       -0.00016525469175
H           -1.35533866248286       -2.91414960527411       -0.00084904454675
H            1.02954559235064       -2.20271245297620       -0.00084466030925
H           -0.19423405785923        1.88121235779838        0.00042548417000
17
 energy: -29.512056652314 gnorm: 0.000341220950 xtb: 6.7.1 (edcfbbe)
C           -2.90427339225166        1.46607941578605        0.00061233147037
C           -1.80438571441542        0.45190218510439        0.00017573798304
C           -2.10202352425022       -0.90975455300468       -0.00024747701260
C           -1.10018278540758       -1.86564123672144       -0.00057855832278
C            0.22784254520548       -1.48100361185522       -0.00047283563264
C            0.52749187734731       -0.12518580850660        0.00001516181934
C           -0.47362172280531        0.83823741168919        0.00025158910394
N            1.90603421613747        0.29473363438542        0.00056996689409
O            2.75841160646511       -0.56818405616072        0.00034079830570
O            2.13356783627095        1.48629896818037       -0.00090745931765
H           -3.53452078903804        1.33947873068211       -0.87837333817760
H           -3.53345682573510        1.33982240883640        0.88041768987896
H           -2.50359796051114        2.47565976911136        0.00019536920623
H           -3.13660412452999       -1.22057919034914       -0.00033620732770
H           -1.35537106935349       -2.91409649121350       -0.00090797026891
H            1.02954897116960       -2.20268843429576       -0.00067402950350
H           -0.19418945346048        1.88119861189409        0.00061268226348
17
 energy: -29.512056863249 gnorm: 0.000033210934 xtb: 6.7.1 (edcfbbe)
C           -2.90428394720550        1.46608317502896        0.00061971937657
C           -1.80439621364320        0.45190313691949        0.00018691578047
C           -2.10202410549356       -0.90975848588829       -0.00022039132277
C           -1.10018302798871       -1.86564273168455       -0.00055410268227
C            0.22785073917023       -1.48101882730719       -0.00047109985393
C            0.52744572820313       -0.12520547984958       -0.00007981105894
C           -0.47362769786664        0.83824146918878        0.00023950403417
N            1.90606701400497        0.29473804171867       -0.00000308086304
O            2.75844457650589       -0.56818360611587        0.00062791147811
O            2.13360089391354        1.48630881651175       -0.00056703542917
H           -3.53454722615418        1.33949333833646       -0.87836427793797
H           -3.53347471150494        1.33984838251263        0.88043056603740
H           -2.50360877667261        2.47567014462545        0.00019299279056
H           -3.13660659874268       -1.22059882610434       -0.00027411782743
H           -1.35537131638195       -2.91410430362694       -0.00088214592069
H            1.02956570969288       -2.20269731747746       -0.00072672600238
H           -0.19418134899917        1.88120082677436        0.00053863076308
17
 energy: -29.512056864064 gnorm: 0.000016554699 xtb: 6.7.1 (edcfbbe)
C           -2.90428744405174        1.46608702473500        0.00061324495427
C           -1.80439829599752        0.45190230823229        0.00018932163141
C           -2.10202934988812       -0.90976239121184       -0.00021562181427
C           -1.10018267364268       -1.86564748551648       -0.00054771399618
C            0.22784822019193       -1.48101911372168       -0.00046630846430
C            0.52746676291179       -0.12520091303701       -0.00007451042601
C           -0.47362961661446        0.83823736851742        0.00024409770793
N            1.90605244567107        0.29473154404151       -0.00000595883171
O            2.75845906834597       -0.56818300755953        0.00056894898962
O            2.13361239463710        1.48631405695432       -0.00052371302953
H           -3.53455009890784        1.33949624599203       -0.87837399988083
H           -3.53348162659787        1.33985630861188        0.88042494800696
H           -2.50361165111486        2.47567590010314        0.00018502625629
H           -3.13661594804389       -1.22060141909292       -0.00027506170855
H           -1.35536784011076       -2.91411167723638       -0.00087708533078
H            1.02956837039084       -2.20269714274465       -0.00071886275239
H           -0.19418302634147        1.88120014649524        0.00054670004981
