
                                 *****************
                                 * O   R   C   A *
                                 *****************

                                            #,                                       
                                            ###                                      
                                            ####                                     
                                            #####                                    
                                            ######                                   
                                           ########,                                 
                                     ,,################,,,,,                         
                               ,,#################################,,                 
                          ,,##########################################,,             
                       ,#########################################, ''#####,          
                    ,#############################################,,   '####,        
                  ,##################################################,,,,####,       
                ,###########''''           ''''###############################       
              ,#####''   ,,,,##########,,,,          '''####'''          '####       
            ,##' ,,,,###########################,,,                        '##       
           ' ,,###''''                  '''############,,,                           
         ,,##''                                '''############,,,,        ,,,,,,###''
      ,#''                                            '''#######################'''  
     '                                                          ''''####''''         
             ,#######,   #######,   ,#######,      ##                                
            ,#'     '#,  ##    ##  ,#'     '#,    #''#        ,####,   ,####,        
            ##       ##  ##   ,#'  ##            #'  '#       #'       #'  '#        
            ##       ##  #######   ##           ,######,      #####,   #    #        
            '#,     ,#'  ##    ##  '#,     ,#' ,#      #,     #,   #   #,  ,#        
             '#######'   ##     ##  '#######'  #'      '#     '####' # '####'        



                #########################################################
                #                        -***-                          #
                #          Department of theory and spectroscopy        #
                #                                                       #
                #                      Frank Neese                      #
                #                                                       #
                #     Directorship, Architecture, Infrastructure        #
                #                    SHARK, DRIVERS                     #
                #        Core code/Algorithms in most modules           #
                #                                                       #
                #        Max Planck Institute fuer Kohlenforschung      #
                #                Kaiser Wilhelm Platz 1                 #
                #                 D-45470 Muelheim/Ruhr                 #
                #                      Germany                          #
                #                                                       #
                #                  All rights reserved                  #
                #                        -***-                          #
                #########################################################


                         Program Version 6.0.0  -   RELEASE  -


 With contributions from (in alphabetic order):
   Daniel Aravena         : Magnetic Suceptibility
   Michael Atanasov       : Ab Initio Ligand Field Theory (pilot matlab implementation)
   Alexander A. Auer      : GIAO ZORA, VPT2 properties, NMR spectrum
   Ute Becker             : All parallelization in ORCA, NUMFREQ, NUMCALC
   Giovanni Bistoni       : ED, misc. LED, open-shell LED, HFLD
   Martin Brehm           : Molecular dynamics
   Dmytro Bykov           : pre 5.0 version of the SCF Hessian
   Marcos Casanova-Páez   : Triplet and SCS-CIS(D). UHF-(DLPNO)-IP/EA/STEOM-CCSD. UHF-CVS-IP/STEOM-CCSD
   Vijay G. Chilkuri      : MRCI spin determinant printing, contributions to CSF-ICE
   Pauline Colinet        : FMM embedding
   Dipayan Datta          : RHF DLPNO-CCSD density
   Achintya Kumar Dutta   : EOM-CC, STEOM-CC
   Nicolas Foglia         : Exact transition moments, OPA infrastructure, MCD improvements
   Dmitry Ganyushin       : Spin-Orbit,Spin-Spin,Magnetic field MRCI
   Miquel Garcia          : C-PCM and meta-GGA Hessian, CCSD/C-PCM, Gaussian charge scheme
   Tiago L. C. Gouveia    : GS-ROHF, GS-ROCIS
   Yang Guo               : DLPNO-NEVPT2, F12-NEVPT2, CIM, IAO-localization
   Andreas Hansen         : Spin unrestricted coupled pair/coupled cluster methods
   Ingolf Harden          : AUTO-CI MPn and infrastructure 
   Benjamin Helmich-Paris : MC-RPA, TRAH-(SCF,CASSCF), AVAS, COSX integrals, SCF dyn. polar.
   Lee Huntington         : MR-EOM, pCC
   Robert Izsak           : Overlap fitted RIJCOSX, COSX-SCS-MP3, EOM
   Riya Kayal             : Wick's Theorem for AUTO-CI, AUTO-CI UHF-CCSDT
   Emily Kempfer          : AUTO-CI, RHF CISDT and CCSDT
   Christian Kollmar      : KDIIS, OOCD, Brueckner-CCSD(T), CCSD density, CASPT2, CASPT2-K, improved NEVPT2
   Axel Koslowski         : Symmetry handling
   Simone Kossmann        : Meta GGA functionals, TD-DFT gradient, OOMP2, (MP2 Hessian; deprecated post 5.0)
   Lucas Lang             : DCDCAS
   Marvin Lechner         : AUTO-CI (C++ implementation), FIC-MRCC
   Spencer Leger          : CASSCF response
   Dagmar Lenk            : GEPOL surface, SMD, ORCA-2-JSON
   Dimitrios Liakos       : Extrapolation schemes; Compound Job, initial MDCI parallelization
   Dimitrios Manganas     : Further ROCIS development; embedding schemes. LFT, Crystal Embedding
   Dimitrios Pantazis     : SARC Basis sets
   Anastasios Papadopoulos: AUTO-CI, single reference methods and gradients
   Taras Petrenko         : pre 6.0 DFT Hessian and TD-DFT gradient, (ASA, deprecated), ECA, 1-Electron XAS/XES, NRVS
   Peter Pinski           : DLPNO-MP2, DLPNO-MP2 Gradient
   Christoph Reimann      : Effective Core Potentials
   Marius Retegan         : Local ZFS, SOC
   Christoph Riplinger    : Optimizer, TS searches, QM/MM, DLPNO-CCSD(T), (RO)-DLPNO pert. Triples
   Michael Roemelt        : Original ROCIS implementation
   Masaaki Saitow         : Open-shell DLPNO-CCSD energy and density
   Barbara Sandhoefer     : DKH picture change effects
   Kantharuban Sivalingam : CASSCF convergence/infrastructure, NEVPT2 and variants, FIC-MRCI
   Bernardo de Souza      : ESD, SOC TD-DFT
   Georgi Stoychev        : AutoAux, RI-MP2 NMR, DLPNO-MP2 response, X2C
   Van Anh Tran           : RI-MP2 g-tensors
   Willem Van den Heuvel  : Paramagnetic NMR
   Zikuan Wang            : NOTCH, Electric field optimization 
   Frank Wennmohs         : Technical directorship and infrastructure
   Hang Xu                : AUTO-CI-Response properties 


 We gratefully acknowledge several colleagues who have allowed us to
 interface, adapt or use parts of their codes:
   Stefan Grimme, W. Hujo, H. Kruse, P. Pracht,  : VdW corrections, initial TS optimization,
                  C. Bannwarth, S. Ehlert,         DFT functionals, gCP, sTDA/sTD-DF
                  L. Wittmann, M. Mueller
   Ed Valeev, F. Pavosevic, A. Kumar             : LibInt (2-el integral package), F12 methods
   Garnet Chan, S. Sharma, J. Yang, R. Olivares  : DMRG
   Ulf Ekstrom                                   : XCFun DFT Library
   Mihaly Kallay                                 : mrcc  (arbitrary order and MRCC methods)
   Frank Weinhold                                : gennbo (NPA and NBO analysis)
   Simon Mueller                                 : openCOSMO-RS
   Christopher J. Cramer and Donald G. Truhlar   : smd solvation model
   Lars Goerigk                                  : TD-DFT with DH, B97 family of functionals
   V. Asgeirsson, H. Jonsson                     : NEB implementation
   FAccTs GmbH                                   : IRC, NEB, NEB-TS, DLPNO-Multilevel, CI-OPT
                                                   MM, QMMM, 2- and 3-layer-ONIOM, Crystal-QMMM,
                                                   LR-CPCM, SF, NACMEs, symmetry and pop. for TD-DFT,
                                                   nearIR, NL-DFT gradient (VV10), updates on ESD,
                                                   ML-optimized integration grids, MBIS, APM,
                                                   GOAT, DOCKER, SOLVATOR, interface openCOSMO-RS
   S Lehtola, MJT Oliveira, MAL Marques          : LibXC Library
   Liviu Ungur et al                             : ANISO software


 Your calculation uses the libint2 library for the computation of 2-el integrals
 For citations please refer to: http://libint.valeyev.net

 Your ORCA version has been built with support for libXC version: 6.2.2
 For citations please refer to: https://libxc.gitlab.io

 This ORCA versions uses:
   CBLAS   interface :  Fast vector & matrix operations
   LAPACKE interface :  Fast linear algebra routines
   SCALAPACK package :  Parallel linear algebra routines
   Shared memory     :  Shared parallel matrices
   BLAS/LAPACK       :  OpenBLAS 0.3.27  USE64BITINT DYNAMIC_ARCH NO_AFFINITY SkylakeX SINGLE_THREADED
        Core in use  :  SkylakeX
   Copyright (c) 2011-2014, The OpenBLAS Project




***************************************
The coordinates will be read from file: censo.xyz
***************************************


Your calculation utilizes the geometrical counterpoise correction gCP
Please cite in your paper:
H.Kruse, S. Grimme J.Chem.Phys., 136, (2012), 154101 
   

Your calculation utilizes the atom-pairwise dispersion correction
based on EEQ partial charges (D4)


================================================================================

----- Orbital basis set information -----
Your calculation utilizes the basis: def2-TZVP
   F. Weigend and R. Ahlrichs, Phys. Chem. Chem. Phys. 7, 3297 (2005).

----- AuxJ basis set information -----
Your calculation utilizes the basis: def2-mTZVPP/J
   Stefan Grimme, Andreas Hansen, Sebastian Ehlert, and Jan-Michael Mewes 
   J. Chem. Phys. 154, 000000 (2021). DOI: 10.1063/5.0040021

================================================================================
                                        WARNINGS
                       Please study these warnings very carefully!
================================================================================

Using LibXC functional ID 497 : Re-regularized SCAN exchange by Furness et al
[ 1]  J. W. Furness, A. D. Kaplan, J. Ning, J. P. Perdew, and J. Sun.,  J. Phys. Chem. Lett. 11, 8208-8215 (2020)
[ 2]  J. W. Furness, A. D. Kaplan, J. Ning, J. P. Perdew, and J. Sun.,  J. Phys. Chem. Lett. 11, 9248-9248 (2020)
Using LibXC functional ID 498 : Re-regularized SCAN correlation by Furness et al
[ 1]  J. W. Furness, A. D. Kaplan, J. Ning, J. P. Perdew, and J. Sun.,  J. Phys. Chem. Lett. 11, 8208-8215 (2020)
[ 2]  J. W. Furness, A. D. Kaplan, J. Ning, J. P. Perdew, and J. Sun.,  J. Phys. Chem. Lett. 11, 9248-9248 (2020)
Using LibXC functional ID 497 : Re-regularized SCAN exchange by Furness et al
[ 1]  J. W. Furness, A. D. Kaplan, J. Ning, J. P. Perdew, and J. Sun.,  J. Phys. Chem. Lett. 11, 8208-8215 (2020)
[ 2]  J. W. Furness, A. D. Kaplan, J. Ning, J. P. Perdew, and J. Sun.,  J. Phys. Chem. Lett. 11, 9248-9248 (2020)
Using LibXC functional ID 498 : Re-regularized SCAN correlation by Furness et al
[ 1]  J. W. Furness, A. D. Kaplan, J. Ning, J. P. Perdew, and J. Sun.,  J. Phys. Chem. Lett. 11, 8208-8215 (2020)
[ 2]  J. W. Furness, A. D. Kaplan, J. Ning, J. P. Perdew, and J. Sun.,  J. Phys. Chem. Lett. 11, 9248-9248 (2020)

================================================================================
                                       INPUT FILE
================================================================================
NAME = censo.inp
|  1> ! r2SCAN-3c DEF2-TZVP FREQ
|  2> * xyzfile 0 1 censo.xyz
|  3> 
|  4>                          ****END OF INPUT****
================================================================================

                       ****************************
                       * Single Point Calculation *
                       ****************************

---------------------------------
CARTESIAN COORDINATES (ANGSTROEM)
---------------------------------
  C     -2.426160   -0.706526   -0.000087
  C     -2.426181    0.706449    0.000046
  C     -1.240107    1.401810    0.000095
  C     -0.000020    0.716051    0.000029
  C      1.240053    1.401843   -0.000079
  C      2.426141    0.706513   -0.000114
  C      2.426159   -0.706466    0.000024
  C      1.240088   -1.401822    0.000099
  C      0.000000   -0.716059    0.000037
  C     -1.240067   -1.401851   -0.000056
  H     -3.370583   -1.241793   -0.000197
  H     -3.370621    1.241688    0.000091
  H     -1.235732    2.488347    0.000176
  H      1.235648    2.488381   -0.000163
  H      3.370572    1.241768   -0.000245
  H      3.370606   -1.241693    0.000074
  H      1.235696   -2.488358    0.000188
  H     -1.235661   -2.488387   -0.000124

----------------------------
CARTESIAN COORDINATES (A.U.)
----------------------------
  NO LB      ZA    FRAG     MASS         X           Y           Z
   0 C     6.0000    0    12.011   -4.584778   -1.335140   -0.000164
   1 C     6.0000    0    12.011   -4.584817    1.334995    0.000088
   2 C     6.0000    0    12.011   -2.343462    2.649036    0.000180
   3 C     6.0000    0    12.011   -0.000037    1.353140    0.000054
   4 C     6.0000    0    12.011    2.343361    2.649100   -0.000150
   5 C     6.0000    0    12.011    4.584743    1.335115   -0.000216
   6 C     6.0000    0    12.011    4.584777   -1.335028    0.000045
   7 C     6.0000    0    12.011    2.343427   -2.649059    0.000186
   8 C     6.0000    0    12.011    0.000000   -1.353155    0.000071
   9 C     6.0000    0    12.011   -2.343386   -2.649115   -0.000105
  10 H     1.0000    0     1.008   -6.369479   -2.346649   -0.000372
  11 H     1.0000    0     1.008   -6.369550    2.346450    0.000172
  12 H     1.0000    0     1.008   -2.335194    4.702295    0.000332
  13 H     1.0000    0     1.008    2.335036    4.702358   -0.000308
  14 H     1.0000    0     1.008    6.369458    2.346602   -0.000463
  15 H     1.0000    0     1.008    6.369523   -2.346459    0.000140
  16 H     1.0000    0     1.008    2.335128   -4.702314    0.000355
  17 H     1.0000    0     1.008   -2.335061   -4.702370   -0.000235

--------------------------------
INTERNAL COORDINATES (ANGSTROEM)
--------------------------------
 C      0   0   0     0.000000000000     0.00000000     0.00000000
 C      1   0   0     1.412974793251     0.00000000     0.00000000
 C      2   1   0     1.374880873196   120.38103892     0.00000000
 C      3   2   1     1.417067986222   120.67586054     0.00000000
 C      4   3   2     1.417071927755   122.11399983   179.99256592
 C      5   4   3     1.374877936214   120.67578923   179.99868375
 C      6   5   4     1.412979064102   120.38120961     0.00000000
 C      7   6   5     1.374875686313   120.38098615     0.00000000
 C      8   7   6     1.417070559160   120.67590972     0.00000000
 C      1   2   3     1.374879828291   120.38100071     0.00000000
 H      1   2   3     1.085562677619   119.54227243   180.00442482
 H      2   1   3     1.085563444673   119.54220675   179.99880704
 H      3   2   1     1.086546301747   120.61258565   179.99863450
 H      5   4   3     1.086546476611   118.71142473     0.00000000
 H      6   5   4     1.085563654709   120.07713417   179.99710255
 H      7   6   5     1.085563129294   119.54132820   180.00483765
 H      8   7   6     1.086544974467   120.61331344   179.99892948
 H     10   1   2     1.086544659113   120.61249649   179.99793031

---------------------------
INTERNAL COORDINATES (A.U.)
---------------------------
 C      0   0   0     0.000000000000     0.00000000     0.00000000
 C      1   0   0     2.670135393378     0.00000000     0.00000000
 C      2   1   0     2.598148317106   120.38103892     0.00000000
 C      3   2   1     2.677870407108   120.67586054     0.00000000
 C      4   3   2     2.677877855525   122.11399983   179.99256592
 C      5   4   3     2.598142767015   120.67578923   179.99868375
 C      6   5   4     2.670143464118   120.38120961     0.00000000
 C      7   6   5     2.598138515319   120.38098615     0.00000000
 C      8   7   6     2.677875269255   120.67590972     0.00000000
 C      1   2   3     2.598146342522   120.38100071     0.00000000
 H      1   2   3     2.051416161906   119.54227243   180.00442482
 H      2   1   3     2.051417611428   119.54220675   179.99880704
 H      3   2   1     2.053274942127   120.61258565   179.99863450
 H      5   4   3     2.053275272572   118.71142473     0.00000000
 H      6   5   4     2.051418008338   120.07713417   179.99710255
 H      7   6   5     2.051417015448   119.54132820   180.00483765
 H      8   7   6     2.053272433931   120.61331344   179.99892948
 H     10   1   2     2.053271837999   120.61249649   179.99793031

---------------------
BASIS SET INFORMATION
---------------------
There are 2 groups of distinct atoms

 Group   1 Type C   : 11s6p2d1f contracted to 5s3p2d1f pattern {62111/411/11/1}
 Group   2 Type H   : 5s1p contracted to 3s1p pattern {311/1}

Atom   0C    basis set group =>   1
Atom   1C    basis set group =>   1
Atom   2C    basis set group =>   1
Atom   3C    basis set group =>   1
Atom   4C    basis set group =>   1
Atom   5C    basis set group =>   1
Atom   6C    basis set group =>   1
Atom   7C    basis set group =>   1
Atom   8C    basis set group =>   1
Atom   9C    basis set group =>   1
Atom  10H    basis set group =>   2
Atom  11H    basis set group =>   2
Atom  12H    basis set group =>   2
Atom  13H    basis set group =>   2
Atom  14H    basis set group =>   2
Atom  15H    basis set group =>   2
Atom  16H    basis set group =>   2
Atom  17H    basis set group =>   2
---------------------------------
AUXILIARY/J BASIS SET INFORMATION
---------------------------------
There are 2 groups of distinct atoms

 Group   1 Type C   : 8s3p3d contracted to 6s3p3d pattern {311111/111/111}
 Group   2 Type H   : 5s2p1d contracted to 3s1p1d pattern {311/2/1}

Atom   0C    basis set group =>   1
Atom   1C    basis set group =>   1
Atom   2C    basis set group =>   1
Atom   3C    basis set group =>   1
Atom   4C    basis set group =>   1
Atom   5C    basis set group =>   1
Atom   6C    basis set group =>   1
Atom   7C    basis set group =>   1
Atom   8C    basis set group =>   1
Atom   9C    basis set group =>   1
Atom  10H    basis set group =>   2
Atom  11H    basis set group =>   2
Atom  12H    basis set group =>   2
Atom  13H    basis set group =>   2
Atom  14H    basis set group =>   2
Atom  15H    basis set group =>   2
Atom  16H    basis set group =>   2
Atom  17H    basis set group =>   2
------------------------------------------------------------------------------
                             ORCA STARTUP CALCULATIONS
                           -- RI-GTO INTEGRALS CHOSEN --
------------------------------------------------------------------------------
------------------------------------------------------------------------------
                   ___                                                        
                  /   \      - P O W E R E D   B Y -                         
                 /     \                                                     
                 |  |  |   _    _      __       _____    __    __             
                 |  |  |  | |  | |    /  \     |  _  \  |  |  /  |          
                  \  \/   | |  | |   /    \    | | | |  |  | /  /          
                 / \  \   | |__| |  /  /\  \   | |_| |  |  |/  /          
                |  |  |   |  __  | /  /__\  \  |    /   |      \           
                |  |  |   | |  | | |   __   |  |    \   |  |\   \          
                \     /   | |  | | |  |  |  |  | |\  \  |  | \   \       
                 \___/    |_|  |_| |__|  |__|  |_| \__\ |__|  \__/        
                                                                              
                      - O R C A' S   B I G   F R I E N D -                    
                                      &                                       
                       - I N T E G R A L  F E E D E R -                       
                                                                              
 v1 FN, 2020, v2 2021, v3 2022-2024                                           
------------------------------------------------------------------------------


----------------------
SHARK INTEGRAL PACKAGE
----------------------

Number of atoms                             ...     18
Number of basis functions                   ...    358
Number of shells                            ...    142
Maximum angular momentum                    ...      3
Integral batch strategy                     ... SHARK/LIBINT Hybrid
RI-J (if used) integral strategy            ... SPLIT-RIJ (Revised 2003 algorithm where possible)
Printlevel                                  ...      1
Contraction scheme used                     ... SEGMENTED contraction
Prescreening option                         ... SCHWARTZ
   Thresh                                   ... 1.000e-10
   Tcut                                     ... 1.000e-11
   Tpresel                                  ... 1.000e-11 
Coulomb Range Separation                    ... NOT USED
Exchange Range Separation                   ... NOT USED
Multipole approximations                    ... NOT USED
Finite Nucleus Model                        ... NOT USED
CABS basis                                  ... NOT available
Auxiliary Coulomb fitting basis             ... AVAILABLE
   # of basis functions in Aux-J            ...    388
   # of shells in Aux-J                     ...    160
   Maximum angular momentum in Aux-J        ...      2
Auxiliary J/K fitting basis                 ... NOT available
Auxiliary Correlation fitting basis         ... NOT available
Auxiliary 'external' fitting basis          ... NOT available

Checking pre-screening integrals            ... done (  0.0 sec) Dimension = 142
Check shell pair data                       ... done (  0.0 sec)
Shell pair information
Shell pair cut-off parameter TPreSel        ...   1.0e-11
Total number of shell pairs                 ...     10153
Shell pairs after pre-screening             ...      9130
Total number of primitive shell pairs       ...     31120
Primitive shell pairs kept                  ...     20698
          la=0 lb=0:   2354 shell pairs
          la=1 lb=0:   2544 shell pairs
          la=1 lb=1:    697 shell pairs
          la=2 lb=0:   1348 shell pairs
          la=2 lb=1:    724 shell pairs
          la=2 lb=2:    202 shell pairs
          la=3 lb=0:    660 shell pairs
          la=3 lb=1:    356 shell pairs
          la=3 lb=2:    192 shell pairs
          la=3 lb=3:     53 shell pairs

Calculating one electron integrals          ... done (  0.1 sec)
Calculating RI/J V-Matrix + Cholesky decomp.... done (  0.1 sec)
Calculating Nuclear repulsion               ... done (  0.0 sec) ENN=    458.185503825010 Eh

Diagonalization of the overlap matrix:
Smallest eigenvalue                        ... 6.658e-06
Time for diagonalization                   ...    0.014 sec
Threshold for overlap eigenvalues          ... 1.000e-07
Number of eigenvalues below threshold      ... 0
Time for construction of square roots      ...    0.023 sec
Total time needed                          ...    0.046 sec

-------------------
DFT GRID GENERATION
-------------------

General Integration Accuracy     IntAcc      ... 4.388
Radial Grid Type                 RadialGrid  ... OptM3 with GC (2021)
Angular Grid (max. ang.)         AngularGrid ... 4 (Lebedev-302)
Angular grid pruning method      GridPruning ... 4 (adaptive)
Weight generation scheme         WeightScheme... mBecke (2022)
Basis function cutoff            BFCut       ... 1.0000e-10
Integration weight cutoff        WCut        ... 1.0000e-14
Partially contracted basis set               ... off
Rotationally invariant grid construction     ... off
Angular grids for H and He will be reduced by one unit

Total number of grid points                  ...    85554
Total number of batches                      ...     1348
Average number of points per batch           ...       63
Average number of grid points per atom       ...     4753
Initializing property integral containers    ... done (  0.0 sec)

SHARK setup successfully completed in   1.4 seconds

Maximum memory used throughout the entire STARTUP-calculation: 52.9 MB
-------------------------------------------------------------------------------
                                 ORCA GUESS
                   Start orbitals & Density for SCF / CASSCF
-------------------------------------------------------------------------------

------------
SCF SETTINGS
------------
Hamiltonian:
 Density Functional     Method          .... DFT(GTOs)
  Functional kind                       .... Exchange
  Functional name                       .... Re-regularized SCAN exchange by Furness et al
  Functional family                     .... MGGA
  Functional refs                              
    [ 0] J. W. Furness, A. D. Kaplan, J. Ning, J. P. Perdew, and J. Sun.,  J. Phys. Chem. Lett. 11, 8208-8215 (2020), doi: 10.1021/acs.jpclett.0c02405
    [ 1] J. W. Furness, A. D. Kaplan, J. Ning, J. P. Perdew, and J. Sun.,  J. Phys. Chem. Lett. 11, 9248-9248 (2020), doi: 10.1021/acs.jpclett.0c03077
  Functional external parameters        .... 6
    Parameter  0 _c1        =  6.670000e-01 : c1 parameter        
    Parameter  1 _c2        =  8.000000e-01 : c2 parameter        
    Parameter  2 _d         =  1.240000e+00 : d parameter         
    Parameter  3 _k1        =  6.500000e-02 : k1 parameter        
    Parameter  4 _eta       =  1.000000e-03 : eta parameter       
    Parameter  5 _dp2       =  3.610000e-01 : dp2 parameter       
  Functional kind                       .... Correlation
  Functional name                       .... Re-regularized SCAN correlation by Furness et al
  Functional family                     .... MGGA
  Functional refs                              
    [ 0] J. W. Furness, A. D. Kaplan, J. Ning, J. P. Perdew, and J. Sun.,  J. Phys. Chem. Lett. 11, 8208-8215 (2020), doi: 10.1021/acs.jpclett.0c02405
    [ 1] J. W. Furness, A. D. Kaplan, J. Ning, J. P. Perdew, and J. Sun.,  J. Phys. Chem. Lett. 11, 9248-9248 (2020), doi: 10.1021/acs.jpclett.0c03077
  Functional external parameters        .... 1
    Parameter  0 _eta       =  1.000000e-03 : Regularization parameter
 Gradients option       PostSCFGGA      .... off
 RI-approximation to the Coulomb term is turned on
   Number of AuxJ basis functions       .... 388


General Settings:
 Integral files         IntName         .... censo
 Hartree-Fock type      HFTyp           .... RHF
 Total Charge           Charge          ....    0
 Multiplicity           Mult            ....    1
 Number of Electrons    NEL             ....   68
 Basis Dimension        Dim             ....  358
 Nuclear Repulsion      ENuc            ....    458.1855038250 Eh

Convergence Acceleration:
 AO-DIIS                CNVDIIS         .... on
   Start iteration      DIISMaxIt       ....    12
   Startup error        DIISStart       ....  0.200000
   # of expansion vecs  DIISMaxEq       ....     5
   Bias factor          DIISBfac        ....   1.050
   Max. coefficient     DIISMaxC        ....  10.000
 MO-DIIS                CNVKDIIS        .... off
 Trust-Rad. Augm. Hess. CNVTRAH         .... auto
   Auto Start mean grad. ratio tolernc. ....  1.125000
   Auto Start start iteration           ....    50
   Auto Start num. interpolation iter.  ....    10
   Max. Number of Micro iterations      ....    24
   Max. Number of Macro iterations      .... Maxiter - #DIIS iter
   Number of Davidson start vectors     ....     2
   Converg. threshold    (grad. norm)   ....   5.000e-05
   Grad. Scal. Fac. for Micro threshold ....   0.100
   Minimum threshold for Micro iter.    ....   1.000e-02
   NR start threshold (gradient norm)   ....   1.000e-04
   Initial trust radius                 ....   0.400
   Minimum AH scaling param. (alpha)    ....   1.000
   Maximum AH scaling param. (alpha)    .... 1000.000
   Quad. conv. algorithm                .... NR
   White noise on init. David. guess    .... on
   Maximum white noise                  ....   0.010
   Pseudo random numbers                .... off
   Inactive MOs                         .... canonical
   Orbital update algorithm             .... Taylor
   Preconditioner                       .... Diag
   Full preconditioner red. dimension   ....   250
   COSX micro iterations for RIJONX calc.... off
 SOSCF                  CNVSOSCF        .... on
   Start iteration      SOSCFMaxIt      ....   150
   Startup grad/error   SOSCFStart      ....  0.003300
   Hessian update       SOSCFHessUp     .... L-BFGS
 Level Shifting         CNVShift        .... on
   Level shift para.    LevelShift      ....    0.2500
   Turn off err/grad.   ShiftErr        ....    0.0010
 Zerner damping         CNVZerner       .... off
 Static damping         CNVDamp         .... on
   Fraction old density DampFac         ....    0.7000
   Max. Damping (<1)    DampMax         ....    0.9800
   Min. Damping (>=0)   DampMin         ....    0.0000
   Turn off err/grad.   DampErr         ....    0.1000

SCF Procedure:
 Maximum # iterations   MaxIter         ....   125
 SCF integral mode      SCFMode         .... Direct
   Integral package                     .... SHARK and LIBINT hybrid scheme
 Reset frequency        DirectResetFreq ....    20
 Integral Threshold     Thresh          ....  1.000e-10 Eh
 Primitive CutOff       TCut            ....  1.000e-11 Eh

Convergence Tolerance:
 Convergence Check Mode ConvCheckMode   .... Total+1el-Energy
 Convergence forced     ConvForced      .... 0
 Energy Change          TolE            ....  1.000e-06 Eh
 1-El. energy change                    ....  1.000e-03 Eh
 Orbital Gradient       TolG            ....  5.000e-05
 Orbital Rotation angle TolX            ....  5.000e-05
 DIIS Error             TolErr          ....  1.000e-06

------------------------------
INITIAL GUESS: MODEL POTENTIAL
------------------------------
Loading Hartree-Fock densities                     ... done
Calculating cut-offs                               ... done
Initializing the effective Hamiltonian             ... done
Setting up the integral package (SHARK)            ... done
Starting the Coulomb interaction                   ... done (   0.5 sec)
Making the grid                                    ... done (   0.3 sec)
Mapping shells                                     ... done
Starting the XC term evaluation                    ... done (   0.6 sec)
  promolecular density results
     # of electrons  =     67.991786062
     EX              =    -53.494531339
     EC              =     -2.249934423
     EX+EC           =    -55.744465761
Transforming the Hamiltonian                       ... done (   0.0 sec)
Diagonalizing the Hamiltonian                      ... done (   0.0 sec)
Back transforming the eigenvectors                 ... done (   0.0 sec)
Now organizing SCF variables                       ... done
                      ------------------
                      INITIAL GUESS DONE (   1.4 sec)
                      ------------------
             **** ENERGY FILE WAS UPDATED (censo.en.tmp) ****
Finished Guess after   1.7 sec
Maximum memory used throughout the entire GUESS-calculation: 36.8 MB

-------------------------------------------------------------------------------------------
                                      ORCA LEAN-SCF
                              memory conserving SCF solver
-------------------------------------------------------------------------------------------

----------------------------------------D-I-I-S--------------------------------------------
Iteration    Energy (Eh)           Delta-E    RMSDP     MaxDP     DIISErr   Damp  Time(sec)
-------------------------------------------------------------------------------------------
               ***  Starting incremental Fock matrix formation  ***
    1    -385.6057127676461391     0.00e+00  1.60e-03  4.44e-02  1.42e-01  0.700   5.5
    2    -385.6991986365852085    -9.35e-02  1.22e-03  3.32e-02  7.53e-02  0.700   4.9
                               ***Turning on AO-DIIS***
    3    -385.7392377908301455    -4.00e-02  6.94e-04  2.06e-02  2.91e-02  0.700   4.7
    4    -385.7623469341500027    -2.31e-02  1.44e-03  4.34e-02  1.59e-02  0.000   4.5
    5    -385.8120941865736881    -4.97e-02  1.33e-04  2.50e-03  4.79e-03  0.000   4.7
                              *** Initializing SOSCF ***
---------------------------------------S-O-S-C-F--------------------------------------
Iteration    Energy (Eh)           Delta-E    RMSDP     MaxDP     MaxGrad    Time(sec)
--------------------------------------------------------------------------------------
    6    -385.8123712397140821    -2.77e-04  6.77e-05  1.68e-03  9.11e-04     4.3
               *** Restarting incremental Fock matrix formation ***
    7    -385.8123849142685344    -1.37e-05  5.05e-05  1.30e-03  2.49e-04     5.3
    8    -385.8123831338176046     1.78e-06  1.19e-05  3.01e-04  4.79e-04     4.0
    9    -385.8123865354058921    -3.40e-06  9.16e-06  1.63e-04  8.52e-05     3.8
   10    -385.8123863909755187     1.44e-07  3.10e-06  7.96e-05  1.13e-04     3.8
                 **** Energy Check signals convergence ****

               *****************************************************
               *                     SUCCESS                       *
               *           SCF CONVERGED AFTER  10 CYCLES          *
               *****************************************************

             **** ENERGY FILE WAS UPDATED (censo.en.tmp) ****

----------------
TOTAL SCF ENERGY
----------------

Total Energy       :       -385.81238639097552 Eh          -10498.48877 eV

Components:
Nuclear Repulsion  :        458.18550382500979 Eh           12467.86141 eV
Electronic Energy  :       -843.99789021598531 Eh          -22966.35018 eV
One Electron Energy:      -1427.32497734713206 Eh          -38839.48719 eV
Two Electron Energy:        583.32708713114675 Eh           15873.13702 eV

Virial components:
Potential Energy   :       -769.73686255198334 Eh          -20945.60488 eV
Kinetic Energy     :        383.92447616100782 Eh           10447.11612 eV
Virial Ratio       :          2.00491740002837

DFT components:
N(Alpha)           :       34.000024141556 electrons
N(Beta)            :       34.000024141556 electrons
N(Total)           :       68.000048283112 electrons
E(X)               :      -54.917817920644 Eh       
E(C)               :       -2.186570040191 Eh       
E(XC)              :      -57.104387960834 Eh       

---------------
SCF CONVERGENCE
---------------

  Last Energy change         ...   -1.4443e-07  Tolerance :   1.0000e-06
  Last MAX-Density change    ...    7.9569e-05  Tolerance :   1.0000e-05
  Last RMS-Density change    ...    3.0974e-06  Tolerance :   1.0000e-06
  Last DIIS Error            ...    9.1141e-04  Tolerance :   1.0000e-06
  Last Orbital Gradient      ...    1.1291e-04  Tolerance :   5.0000e-05
  Last Orbital Rotation      ...    1.7153e-04  Tolerance :   5.0000e-05


----------------
ORBITAL ENERGIES
----------------

  NO   OCC          E(Eh)            E(eV) 
   0   2.0000     -10.048420      -273.4314 
   1   2.0000     -10.048131      -273.4235 
   2   2.0000     -10.040136      -273.2060 
   3   2.0000     -10.040110      -273.2053 
   4   2.0000     -10.040079      -273.2044 
   5   2.0000     -10.040077      -273.2044 
   6   2.0000     -10.039549      -273.1900 
   7   2.0000     -10.039548      -273.1900 
   8   2.0000     -10.039247      -273.1818 
   9   2.0000     -10.039246      -273.1818 
  10   2.0000      -0.842146       -22.9160 
  11   2.0000      -0.789488       -21.4831 
  12   2.0000      -0.742917       -20.2158 
  13   2.0000      -0.710200       -19.3255 
  14   2.0000      -0.688337       -18.7306 
  15   2.0000      -0.595908       -16.2155 
  16   2.0000      -0.581177       -15.8146 
  17   2.0000      -0.565777       -15.3956 
  18   2.0000      -0.484432       -13.1821 
  19   2.0000      -0.480619       -13.0783 
  20   2.0000      -0.463576       -12.6145 
  21   2.0000      -0.418432       -11.3861 
  22   2.0000      -0.411106       -11.1868 
  23   2.0000      -0.387736       -10.5508 
  24   2.0000      -0.385939       -10.5019 
  25   2.0000      -0.370099       -10.0709 
  26   2.0000      -0.369908       -10.0657 
  27   2.0000      -0.339895        -9.2490 
  28   2.0000      -0.309630        -8.4255 
  29   2.0000      -0.308693        -8.4000 
  30   2.0000      -0.302119        -8.2211 
  31   2.0000      -0.270209        -7.3528 
  32   2.0000      -0.232762        -6.3338 
  33   2.0000      -0.205267        -5.5856 
  34   0.0000      -0.069885        -1.9017 
  35   0.0000      -0.040277        -1.0960 
  36   0.0000      -0.007498        -0.2040 
  37   0.0000       0.057620         1.5679 
  38   0.0000       0.062059         1.6887 
  39   0.0000       0.073147         1.9904 
  40   0.0000       0.077907         2.1200 
  41   0.0000       0.113558         3.0901 
  42   0.0000       0.116156         3.1608 
  43   0.0000       0.124343         3.3835 
  44   0.0000       0.131684         3.5833 
*Only the first 10 virtual orbitals were printed.

                    ********************************
                    * MULLIKEN POPULATION ANALYSIS *
                    ********************************

-----------------------
MULLIKEN ATOMIC CHARGES
-----------------------
   0 C :   -0.095583
   1 C :   -0.095571
   2 C :   -0.204433
   3 C :    0.181398
   4 C :   -0.204390
   5 C :   -0.095602
   6 C :   -0.095559
   7 C :   -0.204441
   8 C :    0.181421
   9 C :   -0.204389
  10 H :    0.109889
  11 H :    0.109888
  12 H :    0.099392
  13 H :    0.099400
  14 H :    0.109895
  15 H :    0.109896
  16 H :    0.099396
  17 H :    0.099394
Sum of atomic charges:   -0.0000000

--------------------------------
MULLIKEN REDUCED ORBITAL CHARGES
--------------------------------
  0 C s       :     3.198288  s :     3.198288
      pz      :     0.965910  p :     2.813161
      px      :     0.934935
      py      :     0.912316
      dz2     :     0.003580  d :     0.075489
      dxz     :     0.008927
      dyz     :     0.018964
      dx2y2   :     0.022449
      dxy     :     0.021569
      f0      :     0.001761  f :     0.008644
      f+1     :     0.000642
      f-1     :     0.000653
      f+2     :     0.000908
      f-2     :     0.000484
      f+3     :     0.002467
      f-3     :     0.001730

  1 C s       :     3.198284  s :     3.198284
      pz      :     0.965910  p :     2.813155
      px      :     0.934921
      py      :     0.912324
      dz2     :     0.003580  d :     0.075489
      dxz     :     0.008926
      dyz     :     0.018964
      dx2y2   :     0.022449
      dxy     :     0.021569
      f0      :     0.001761  f :     0.008644
      f+1     :     0.000642
      f-1     :     0.000653
      f+2     :     0.000907
      f-2     :     0.000484
      f+3     :     0.002467
      f-3     :     0.001730

  2 C s       :     3.295406  s :     3.295406
      pz      :     0.976367  p :     2.822042
      px      :     0.904734
      py      :     0.940940
      dz2     :     0.003046  d :     0.078363
      dxz     :     0.024935
      dyz     :     0.004174
      dx2y2   :     0.025162
      dxy     :     0.021045
      f0      :     0.001710  f :     0.008623
      f+1     :     0.000618
      f-1     :     0.000629
      f+2     :     0.000237
      f-2     :     0.001067
      f+3     :     0.002562
      f-3     :     0.001800

  3 C s       :     3.209849  s :     3.209849
      pz      :     0.915014  p :     2.477209
      px      :     0.767033
      py      :     0.795163
      dz2     :     0.003876  d :     0.119390
      dxz     :     0.027321
      dyz     :     0.020138
      dx2y2   :     0.038455
      dxy     :     0.029599
      f0      :     0.002050  f :     0.012154
      f+1     :     0.000764
      f-1     :     0.000666
      f+2     :     0.001155
      f-2     :     0.000989
      f+3     :     0.004103
      f-3     :     0.002426

  4 C s       :     3.295350  s :     3.295350
      pz      :     0.976366  p :     2.822054
      px      :     0.904728
      py      :     0.940959
      dz2     :     0.003046  d :     0.078363
      dxz     :     0.024935
      dyz     :     0.004174
      dx2y2   :     0.025162
      dxy     :     0.021046
      f0      :     0.001710  f :     0.008623
      f+1     :     0.000618
      f-1     :     0.000629
      f+2     :     0.000237
      f-2     :     0.001067
      f+3     :     0.002562
      f-3     :     0.001800

  5 C s       :     3.198278  s :     3.198278
      pz      :     0.965910  p :     2.813190
      px      :     0.934952
      py      :     0.912328
      dz2     :     0.003580  d :     0.075489
      dxz     :     0.008927
      dyz     :     0.018964
      dx2y2   :     0.022449
      dxy     :     0.021570
      f0      :     0.001761  f :     0.008644
      f+1     :     0.000642
      f-1     :     0.000653
      f+2     :     0.000908
      f-2     :     0.000484
      f+3     :     0.002467
      f-3     :     0.001730

  6 C s       :     3.198251  s :     3.198251
      pz      :     0.965910  p :     2.813175
      px      :     0.934939
      py      :     0.912326
      dz2     :     0.003580  d :     0.075490
      dxz     :     0.008926
      dyz     :     0.018964
      dx2y2   :     0.022449
      dxy     :     0.021570
      f0      :     0.001761  f :     0.008644
      f+1     :     0.000642
      f-1     :     0.000653
      f+2     :     0.000907
      f-2     :     0.000484
      f+3     :     0.002467
      f-3     :     0.001730

  7 C s       :     3.295396  s :     3.295396
      pz      :     0.976366  p :     2.822059
      px      :     0.904726
      py      :     0.940967
      dz2     :     0.003046  d :     0.078363
      dxz     :     0.024935
      dyz     :     0.004174
      dx2y2   :     0.025162
      dxy     :     0.021045
      f0      :     0.001710  f :     0.008623
      f+1     :     0.000618
      f-1     :     0.000629
      f+2     :     0.000237
      f-2     :     0.001067
      f+3     :     0.002562
      f-3     :     0.001800

  8 C s       :     3.209823  s :     3.209823
      pz      :     0.915014  p :     2.477212
      px      :     0.767030
      py      :     0.795168
      dz2     :     0.003876  d :     0.119390
      dxz     :     0.027321
      dyz     :     0.020138
      dx2y2   :     0.038455
      dxy     :     0.029599
      f0      :     0.002050  f :     0.012154
      f+1     :     0.000764
      f-1     :     0.000666
      f+2     :     0.001155
      f-2     :     0.000989
      f+3     :     0.004103
      f-3     :     0.002426

  9 C s       :     3.295355  s :     3.295355
      pz      :     0.976366  p :     2.822049
      px      :     0.904733
      py      :     0.940949
      dz2     :     0.003046  d :     0.078363
      dxz     :     0.024935
      dyz     :     0.004174
      dx2y2   :     0.025161
      dxy     :     0.021046
      f0      :     0.001710  f :     0.008623
      f+1     :     0.000618
      f-1     :     0.000629
      f+2     :     0.000237
      f-2     :     0.001067
      f+3     :     0.002562
      f-3     :     0.001800

 10 H s       :     0.866612  s :     0.866612
      pz      :     0.005630  p :     0.023499
      px      :     0.011193
      py      :     0.006677

 11 H s       :     0.866612  s :     0.866612
      pz      :     0.005630  p :     0.023499
      px      :     0.011193
      py      :     0.006677

 12 H s       :     0.877123  s :     0.877123
      pz      :     0.005594  p :     0.023485
      px      :     0.004346
      py      :     0.013545

 13 H s       :     0.877115  s :     0.877115
      pz      :     0.005594  p :     0.023485
      px      :     0.004346
      py      :     0.013545

 14 H s       :     0.866606  s :     0.866606
      pz      :     0.005630  p :     0.023499
      px      :     0.011193
      py      :     0.006677

 15 H s       :     0.866605  s :     0.866605
      pz      :     0.005630  p :     0.023499
      px      :     0.011193
      py      :     0.006677

 16 H s       :     0.877119  s :     0.877119
      pz      :     0.005594  p :     0.023485
      px      :     0.004346
      py      :     0.013545

 17 H s       :     0.877121  s :     0.877121
      pz      :     0.005594  p :     0.023485
      px      :     0.004346
      py      :     0.013545



                     *******************************
                     * LOEWDIN POPULATION ANALYSIS *
                     *******************************

----------------------
LOEWDIN ATOMIC CHARGES
----------------------
   0 C :   -0.141252
   1 C :   -0.141251
   2 C :   -0.101800
   3 C :   -0.092928
   4 C :   -0.101799
   5 C :   -0.141252
   6 C :   -0.141252
   7 C :   -0.101800
   8 C :   -0.092928
   9 C :   -0.101800
  10 H :    0.143266
  11 H :    0.143266
  12 H :    0.146249
  13 H :    0.146249
  14 H :    0.143266
  15 H :    0.143266
  16 H :    0.146249
  17 H :    0.146249

-------------------------------
LOEWDIN REDUCED ORBITAL CHARGES
-------------------------------
  0 C s       :     2.771386  s :     2.771386
      pz      :     0.885474  p :     2.937190
      px      :     1.013510
      py      :     1.038206
      dz2     :     0.025489  d :     0.389321
      dxz     :     0.027203
      dyz     :     0.064794
      dx2y2   :     0.123527
      dxy     :     0.148309
      f0      :     0.003236  f :     0.043355
      f+1     :     0.003616
      f-1     :     0.004083
      f+2     :     0.005857
      f-2     :     0.003076
      f+3     :     0.015326
      f-3     :     0.008162

  1 C s       :     2.771386  s :     2.771386
      pz      :     0.885474  p :     2.937189
      px      :     1.013507
      py      :     1.038208
      dz2     :     0.025489  d :     0.389321
      dxz     :     0.027201
      dyz     :     0.064796
      dx2y2   :     0.123530
      dxy     :     0.148305
      f0      :     0.003236  f :     0.043355
      f+1     :     0.003616
      f-1     :     0.004083
      f+2     :     0.005857
      f-2     :     0.003076
      f+3     :     0.015326
      f-3     :     0.008162

  2 C s       :     2.764319  s :     2.764319
      pz      :     0.883700  p :     2.910958
      px      :     1.044163
      py      :     0.983094
      dz2     :     0.025615  d :     0.384011
      dxz     :     0.078826
      dyz     :     0.011066
      dx2y2   :     0.165068
      dxy     :     0.103437
      f0      :     0.003200  f :     0.042512
      f+1     :     0.004347
      f-1     :     0.003237
      f+2     :     0.001354
      f-2     :     0.007050
      f+3     :     0.015099
      f-3     :     0.008225

  3 C s       :     2.697065  s :     2.697065
      pz      :     0.832043  p :     2.819248
      px      :     0.994023
      py      :     0.993183
      dz2     :     0.034228  d :     0.518452
      dxz     :     0.077736
      dyz     :     0.065893
      dx2y2   :     0.167901
      dxy     :     0.172693
      f0      :     0.003981  f :     0.058163
      f+1     :     0.004246
      f-1     :     0.004132
      f+2     :     0.006859
      f-2     :     0.006477
      f+3     :     0.022734
      f-3     :     0.009735

  4 C s       :     2.764320  s :     2.764320
      pz      :     0.883700  p :     2.910958
      px      :     1.044164
      py      :     0.983093
      dz2     :     0.025615  d :     0.384010
      dxz     :     0.078826
      dyz     :     0.011066
      dx2y2   :     0.165067
      dxy     :     0.103437
      f0      :     0.003200  f :     0.042511
      f+1     :     0.004347
      f-1     :     0.003237
      f+2     :     0.001354
      f-2     :     0.007050
      f+3     :     0.015099
      f-3     :     0.008225

  5 C s       :     2.771386  s :     2.771386
      pz      :     0.885474  p :     2.937189
      px      :     1.013510
      py      :     1.038205
      dz2     :     0.025489  d :     0.389321
      dxz     :     0.027202
      dyz     :     0.064794
      dx2y2   :     0.123528
      dxy     :     0.148307
      f0      :     0.003236  f :     0.043355
      f+1     :     0.003616
      f-1     :     0.004083
      f+2     :     0.005857
      f-2     :     0.003076
      f+3     :     0.015326
      f-3     :     0.008162

  6 C s       :     2.771386  s :     2.771386
      pz      :     0.885474  p :     2.937190
      px      :     1.013509
      py      :     1.038207
      dz2     :     0.025489  d :     0.389321
      dxz     :     0.027201
      dyz     :     0.064796
      dx2y2   :     0.123532
      dxy     :     0.148304
      f0      :     0.003236  f :     0.043355
      f+1     :     0.003616
      f-1     :     0.004083
      f+2     :     0.005857
      f-2     :     0.003076
      f+3     :     0.015326
      f-3     :     0.008162

  7 C s       :     2.764319  s :     2.764319
      pz      :     0.883700  p :     2.910957
      px      :     1.044164
      py      :     0.983094
      dz2     :     0.025615  d :     0.384012
      dxz     :     0.078827
      dyz     :     0.011066
      dx2y2   :     0.165068
      dxy     :     0.103437
      f0      :     0.003200  f :     0.042512
      f+1     :     0.004347
      f-1     :     0.003237
      f+2     :     0.001354
      f-2     :     0.007050
      f+3     :     0.015099
      f-3     :     0.008225

  8 C s       :     2.697065  s :     2.697065
      pz      :     0.832042  p :     2.819248
      px      :     0.994023
      py      :     0.993183
      dz2     :     0.034228  d :     0.518453
      dxz     :     0.077736
      dyz     :     0.065894
      dx2y2   :     0.167901
      dxy     :     0.172694
      f0      :     0.003981  f :     0.058163
      f+1     :     0.004246
      f-1     :     0.004132
      f+2     :     0.006859
      f-2     :     0.006477
      f+3     :     0.022734
      f-3     :     0.009735

  9 C s       :     2.764318  s :     2.764318
      pz      :     0.883699  p :     2.910957
      px      :     1.044165
      py      :     0.983093
      dz2     :     0.025615  d :     0.384012
      dxz     :     0.078827
      dyz     :     0.011066
      dx2y2   :     0.165068
      dxy     :     0.103437
      f0      :     0.003200  f :     0.042512
      f+1     :     0.004347
      f-1     :     0.003237
      f+2     :     0.001354
      f-2     :     0.007050
      f+3     :     0.015099
      f-3     :     0.008225

 10 H s       :     0.796416  s :     0.796416
      pz      :     0.014247  p :     0.060317
      px      :     0.028821
      py      :     0.017249

 11 H s       :     0.796416  s :     0.796416
      pz      :     0.014247  p :     0.060317
      px      :     0.028822
      py      :     0.017248

 12 H s       :     0.793360  s :     0.793360
      pz      :     0.014424  p :     0.060391
      px      :     0.011105
      py      :     0.034863

 13 H s       :     0.793360  s :     0.793360
      pz      :     0.014423  p :     0.060391
      px      :     0.011105
      py      :     0.034863

 14 H s       :     0.796416  s :     0.796416
      pz      :     0.014247  p :     0.060317
      px      :     0.028821
      py      :     0.017249

 15 H s       :     0.796416  s :     0.796416
      pz      :     0.014247  p :     0.060317
      px      :     0.028822
      py      :     0.017248

 16 H s       :     0.793360  s :     0.793360
      pz      :     0.014424  p :     0.060391
      px      :     0.011105
      py      :     0.034863

 17 H s       :     0.793360  s :     0.793360
      pz      :     0.014424  p :     0.060392
      px      :     0.011105
      py      :     0.034863



                      *****************************
                      * MAYER POPULATION ANALYSIS *
                      *****************************

  NA   - Mulliken gross atomic population
  ZA   - Total nuclear charge
  QA   - Mulliken gross atomic charge
  VA   - Mayer's total valence
  BVA  - Mayer's bonded valence
  FA   - Mayer's free valence

  ATOM       NA         ZA         QA         VA         BVA        FA
  0 C      6.0956     6.0000    -0.0956     3.8855     3.8855    -0.0000
  1 C      6.0956     6.0000    -0.0956     3.8855     3.8855    -0.0000
  2 C      6.2044     6.0000    -0.2044     3.8780     3.8780    -0.0000
  3 C      5.8186     6.0000     0.1814     3.6283     3.6283    -0.0000
  4 C      6.2044     6.0000    -0.2044     3.8781     3.8781     0.0000
  5 C      6.0956     6.0000    -0.0956     3.8856     3.8856     0.0000
  6 C      6.0956     6.0000    -0.0956     3.8856     3.8856     0.0000
  7 C      6.2044     6.0000    -0.2044     3.8781     3.8781    -0.0000
  8 C      5.8186     6.0000     0.1814     3.6283     3.6283     0.0000
  9 C      6.2044     6.0000    -0.2044     3.8781     3.8781     0.0000
 10 H      0.8901     1.0000     0.1099     0.9756     0.9756    -0.0000
 11 H      0.8901     1.0000     0.1099     0.9756     0.9756    -0.0000
 12 H      0.9006     1.0000     0.0994     0.9828     0.9828     0.0000
 13 H      0.9006     1.0000     0.0994     0.9828     0.9828     0.0000
 14 H      0.8901     1.0000     0.1099     0.9756     0.9756    -0.0000
 15 H      0.8901     1.0000     0.1099     0.9756     0.9756     0.0000
 16 H      0.9006     1.0000     0.0994     0.9828     0.9828    -0.0000
 17 H      0.9006     1.0000     0.0994     0.9828     0.9828    -0.0000

  Mayer bond orders larger than 0.100000
B(  0-C ,  1-C ) :   1.2543 B(  0-C ,  9-C ) :   1.5255 B(  0-C , 10-H ) :   0.9691 
B(  1-C ,  2-C ) :   1.5255 B(  1-C , 11-H ) :   0.9691 B(  2-C ,  3-C ) :   1.1947 
B(  2-C , 12-H ) :   0.9837 B(  3-C ,  4-C ) :   1.1947 B(  3-C ,  8-C ) :   1.2011 
B(  4-C ,  5-C ) :   1.5255 B(  4-C , 13-H ) :   0.9837 B(  5-C ,  6-C ) :   1.2543 
B(  5-C , 14-H ) :   0.9691 B(  6-C ,  7-C ) :   1.5255 B(  6-C , 15-H ) :   0.9691 
B(  7-C ,  8-C ) :   1.1947 B(  7-C , 16-H ) :   0.9837 B(  8-C ,  9-C ) :   1.1948 
B(  9-C , 17-H ) :   0.9837 

-------
TIMINGS
-------

Total SCF time: 0 days 0 hours 0 min 45 sec 

Total time                  ....      45.763 sec
Sum of individual times     ....      45.193 sec  ( 98.8%)

SCF preparation             ....       0.218 sec  (  0.5%)
Fock matrix formation       ....      43.591 sec  ( 95.3%)
  Startup                   ....       0.076 sec  (  0.2% of F)
  Split-RI-J                ....       5.838 sec  ( 13.4% of F)
  XC integration            ....      37.053 sec  ( 85.0% of F)
    XC Preparation          ....       0.000 sec  (  0.0% of XC)
    Basis function eval.    ....       5.303 sec  ( 14.3% of XC)
    Density eval.           ....      11.609 sec  ( 31.3% of XC)
    XC-Functional eval.     ....       2.416 sec  (  6.5% of XC)
    XC-Potential eval.      ....      16.594 sec  ( 44.8% of XC)
Diagonalization             ....       0.000 sec  (  0.0%)
Density matrix formation    ....       0.384 sec  (  0.8%)
Total Energy calculation    ....       0.038 sec  (  0.1%)
Population analysis         ....       0.042 sec  (  0.1%)
Orbital Transformation      ....       0.105 sec  (  0.2%)
Orbital Orthonormalization  ....       0.000 sec  (  0.0%)
DIIS solution               ....       0.555 sec  (  1.2%)
SOSCF solution              ....       0.259 sec  (  0.6%)
Finished LeanSCF after  45.8 sec

Maximum memory used throughout the entire LEANSCF-calculation: 44.1 MB

------------------------------------------------------------------------------
                         ORCA PROPERTY INTEGRAL CALCULATIONS
------------------------------------------------------------------------------

GBWName                                   ... censo.gbw
Number of atoms                           ...     18
Number of basis functions                 ...    358
Max core memory                           ...   1024 MB

Dipole integrals                          ... YES
Quadrupole integrals                      ...  NO
Linear momentum integrals                 ...  NO
Angular momentum integrals                ...  NO
Higher moments length integrals           ...  NO
Higher moments velocity integrals         ...  NO
Kinetic energy integrals                  ...  NO
GIAO right hand sides                     ...  NO
GIAO dipole derivative integrals          ...  NO
SOC integrals                             ...  NO
EPR diamagnetic integrals (GIAO)          ...  NO
EPR gauge integrals                       ...  NO
Field gradient integrals                  ...  NO (   0 nuclei)
Spin-dipole/Fermi contact integrals       ...  NO (   0 nuclei)
Contact density integrals                 ...  NO (   0 nuclei)
Nucleus-orbit integrals                   ...  NO (   0 nuclei)
Geometric perturbations                   ... YES (  18 nuclei)

Choice of electric origin   ... Center of mass
Position of electric origin ... ( -0.0000, -0.0000, -0.0000) 
Choice of magnetic origin   ... GIAO
Position of magnetic origin ... (  0.0000,  0.0000,  0.0000) 

Calculating integrals                     ... Electric Dipole (Length)     done (  0.1 sec)
Calculating integrals                     ... Geometrical perturbation right hand sides

-----------------------
GEOMETRIC PERTURBATIONS (18 nuclei)
-----------------------

MaxCore                            ...   1024 MB
Number of batches                  ...      1

BATCH   0: Atoms    0 -   17 ( 54 perturbations)
   => H(core) and overlap derivative integrals     ... done (     0.8 sec)
   => Making and storing internal U-coefficients   ... done (     0.5 sec)
   => RI-J derivative integrals                    ... done (     8.5 sec)
   => RI-J response operators                      ... done (     2.2 sec)
   => XC derivative integrals                      ... done (   523.5 sec)
   => XC response operators                        ... done (   142.4 sec)
   => Completing and storing right hand sides      ... done (     0.2 sec)
   => Total time for right hand sides = 681.4 sec

  geometrical perturbations done (681.5 sec)

Property integrals calculated in 681.5 sec

Maximum memory used throughout the entire PROPINT-calculation: 238.5 MB


-------------------------------------------------------------------------------
                          DFT DISPERSION CORRECTION                            
                                                                               
                                DFTD4 V3.4.0                                   
-------------------------------------------------------------------------------
The R2SCAN3C composite method is recognized
Using three-body term ABC
Active option DFTDOPT                   ...         5   

-------------------------   ----------------
Dispersion correction           -0.006903931
-------------------------   ----------------

------------------   -----------------
gCP correction             0.003467317
------------------   -----------------

-------------------------   --------------------
FINAL SINGLE POINT ENERGY      -385.815823005133
-------------------------   --------------------

------------------------------------------------------------------------------
                            ORCA SCF RESPONSE CALCULATION
------------------------------------------------------------------------------

GBWName                                 ... censo.gbw
Number of atoms                         ...     18
Number of basis functions               ...    358
Max core memory                         ...   1024 MB

Electric field perturbation             ...  NO
Quadrupolar field perturbation          ...  NO
Magnetic field perturbation (no GIAO)   ...  NO
Magnetic field perturbation (with GIAO) ...  NO
Linear momentum (velocity) perturbation ...  NO
Spin-orbit coupling perturbation        ...  NO
Choice of electric origin               ... Center of mass
Position of electric origin             ...    -0.000017    -0.000011    -0.000004
Choice of magnetic origin               ... GIAO
Position of magnetic origin             ...     0.000000     0.000000     0.000000
Nuclear geometric perturbations         ... YES (  54 perturbations)
Nucleus-orbit perturbations             ...  NO (   0 perturbations)
Spin-dipole/Fermi contact perturbations ...  NO (   0 perturbations)

Total number of real perturbations      ...     54
Total number of imaginary perturbations ...      0
Total number of triplet perturbations   ...      0
Total number of SOC perturbations       ...      0


                                **********************
                                * REAL PERTURBATIONS *
                                **********************



-------------------
SHARK CP-SCF DRIVER
-------------------

Dimension of the orbital basis          ...    358
Dimension of the CPSCF-problem          ...  11016
Number of operators                     ...      1
Max. number of iterations               ...    128
Convergence Tolerance                   ... 1.0e-03
Number of perturbations                 ...     54
Perturbation type                       ... REAL

----------------------------
POPLE LINEAR EQUATION SOLVER
----------------------------

  ITERATION   0:   ||err||_max =   4.0043e-01 (  43.1 sec   0/ 54 done)
  ITERATION   1:   ||err||_max =   5.6727e-02 (  46.0 sec   0/ 54 done)
  ITERATION   2:   ||err||_max =   1.5743e-02 (  46.4 sec  16/ 54 done)
  ITERATION   3:   ||err||_max =   4.7161e-03 (  33.5 sec  22/ 54 done)
  ITERATION   4:   ||err||_max =   1.7997e-03 (  28.5 sec  34/ 54 done)
  ITERATION   5:   ||err||_max =   6.5989e-04 (  18.2 sec  54/ 54 done)

CP-SCF equations solved in 217.8 sec
Response densities calculated in   0.2 sec

Maximum memory used throughout the entire SCFRESP-calculation: 160.4 MB

------------------------------------------------------------------------------
                              ORCA PROPERTY CALCULATIONS
------------------------------------------------------------------------------

GBWName                                 ... censo.gbw
Number of atoms                         ...     18
Number of basis functions               ...    358
Max core memory                         ...   1024 MB

Electric properties:
Dipole moment                           ... YES
Quadrupole moment                       ...  NO
Static polarizability (Dipole/Dipole)   ...  NO
Static polarizability (Dipole/Quad.)    ...  NO
Static polarizability (Quad./Quad.)     ...  NO
Static polarizability (Velocity)        ...  NO

Atomic electric properties:
Dipole moment                           ...  NO
Quadrupole moment                       ...  NO
Static polarizability                   ...  NO

Choice of electric origin               ... Center of mass
Position of electric origin             ...    -0.000017    -0.000011    -0.000004

General magnetic properties:
Magnetizability                         ...  NO

EPR properties:
g-Tensor (aka g-matrix)                 ...  NO
Zero-Field splitting spin-orbit         ...  NO
Zero-field splitting spin-spin          ...  NO
Hyperfine couplings                     ...  NO (   0 nuclei)
Quadrupole couplings                    ...  NO (   0 nuclei)
Contact density                         ...  NO (   0 nuclei)

NMR properties:
Chemical shifts                         ...  NO (   0 nuclei)
Spin-rotation constants                 ...  NO (   0 nuclei)
Spin-spin couplings                     ...  NO (   0 nuclei,    0 pairs)

Choice of magnetic origin               ... GIAO
Position of magnetic origin             ...     0.000000     0.000000     0.000000

Properties with geometric perturbations:
SCF Hessian                             ... YES
IR spectrum                             ... YES
VCD spectrum                            ...  NO
X-ray spectroscopy properties:
SCF XES/XAS/RIXS spectra                ...  NO


-------------
DIPOLE MOMENT
-------------

Method             : SCF
Type of density    : Electron Density
Multiplicity       :   1
Irrep              :   0
Energy             :  -385.8123863909755187 Eh
Relativity type    : 
Basis              : AO
                                X                 Y                 Z
Electronic contribution:      0.000000955      -0.000001837       0.000142809
Nuclear contribution   :     -0.000000427       0.000001188      -0.000172665
                        -----------------------------------------
Total Dipole Moment    :      0.000000528      -0.000000649      -0.000029856
                        -----------------------------------------
Magnitude (a.u.)       :      0.000029867
Magnitude (Debye)      :      0.000075917



--------------------
Rotational spectrum 
--------------------
 
Rotational constants in cm-1:             0.104129             0.041253             0.029547 
Rotational constants in MHz :          3121.694124          1236.720789           885.795434 

Dipole components along the rotational axes: 
x,y,z [a.u.] :     0.000001     0.000001    -0.000030 
x,y,z [Debye]:     0.000001     0.000002    -0.000076 

 

Dipole moment calculation done in   0.0 sec 

-----------
SCF HESSIAN
-----------

Occupied/Occupied contributions to the Hessian:
   => Occupied/Occupied contributions              ... done (  0.0 sec)
Perturbed density contributions to the Hessian:
   => Perturbed density contributions              ... done (  0.1 sec)
Explicit contributions to the Hessian:
   => Nuclear repulsion Hessian                    ... done (  0.0 sec)
   => HCore and overlap Hessian                    ... done ( 25.2 sec)
   => RI-J Hessian                                 ... done ( 19.8 sec)
   => XC-Hessian                                   ... done (123.6 sec)
   => Van der Waals-Hessian                        ... done (  3.5 sec)
   => GCP-Hessian                                  ... done (  0.1 sec)
   => Explicit contributions done
Dipole derivatives                                 ... done (  0.2 sec)
Mass weighting the Hessian           ... done
Calculating normal modes             ... done
Scaling frequencies                  ... done

-----------------------
VIBRATIONAL FREQUENCIES
-----------------------

Scaling factor for frequencies =  1.000000000  (already applied!)

     0:       0.00 cm**-1
     1:       0.00 cm**-1
     2:       0.00 cm**-1
     3:       0.00 cm**-1
     4:       0.00 cm**-1
     5:       0.00 cm**-1
     6:     173.81 cm**-1
     7:     188.47 cm**-1
     8:     369.37 cm**-1
     9:     395.26 cm**-1
    10:     477.34 cm**-1
    11:     482.03 cm**-1
    12:     519.56 cm**-1
    13:     522.69 cm**-1
    14:     637.51 cm**-1
    15:     639.10 cm**-1
    16:     717.48 cm**-1
    17:     773.17 cm**-1
    18:     789.37 cm**-1
    19:     792.33 cm**-1
    20:     814.73 cm**-1
    21:     840.09 cm**-1
    22:     893.05 cm**-1
    23:     935.59 cm**-1
    24:     951.96 cm**-1
    25:     960.49 cm**-1
    26:     965.85 cm**-1
    27:     971.65 cm**-1
    28:    1033.60 cm**-1
    29:    1044.68 cm**-1
    30:    1152.90 cm**-1
    31:    1166.91 cm**-1
    32:    1168.76 cm**-1
    33:    1182.61 cm**-1
    34:    1234.67 cm**-1
    35:    1265.92 cm**-1
    36:    1289.45 cm**-1
    37:    1391.29 cm**-1
    38:    1394.85 cm**-1
    39:    1415.45 cm**-1
    40:    1485.53 cm**-1
    41:    1485.56 cm**-1
    42:    1541.39 cm**-1
    43:    1604.39 cm**-1
    44:    1627.31 cm**-1
    45:    1654.85 cm**-1
    46:    3149.51 cm**-1
    47:    3150.07 cm**-1
    48:    3152.90 cm**-1
    49:    3155.09 cm**-1
    50:    3166.05 cm**-1
    51:    3166.64 cm**-1
    52:    3178.52 cm**-1
    53:    3179.56 cm**-1


------------
NORMAL MODES
------------

These modes are the Cartesian displacements weighted by the diagonal matrix
M(i,i)=1/sqrt(m[i]) where m[i] is the mass of the displaced atom
Thus, these vectors are normalized but *not* orthogonal

                  0          1          2          3          4          5    
      0       0.000000   0.000000   0.000000   0.000000   0.000000   0.000000
      1       0.000000   0.000000   0.000000   0.000000   0.000000   0.000000
      2       0.000000   0.000000   0.000000   0.000000   0.000000   0.000000
      3       0.000000   0.000000   0.000000   0.000000   0.000000   0.000000
      4       0.000000   0.000000   0.000000   0.000000   0.000000   0.000000
      5       0.000000   0.000000   0.000000   0.000000   0.000000   0.000000
      6       0.000000   0.000000   0.000000   0.000000   0.000000   0.000000
      7       0.000000   0.000000   0.000000   0.000000   0.000000   0.000000
      8       0.000000   0.000000   0.000000   0.000000   0.000000   0.000000
      9       0.000000   0.000000   0.000000   0.000000   0.000000   0.000000
     10       0.000000   0.000000   0.000000   0.000000   0.000000   0.000000
     11       0.000000   0.000000   0.000000   0.000000   0.000000   0.000000
     12       0.000000   0.000000   0.000000   0.000000   0.000000   0.000000
     13       0.000000   0.000000   0.000000   0.000000   0.000000   0.000000
     14       0.000000   0.000000   0.000000   0.000000   0.000000   0.000000
     15       0.000000   0.000000   0.000000   0.000000   0.000000   0.000000
     16       0.000000   0.000000   0.000000   0.000000   0.000000   0.000000
     17       0.000000   0.000000   0.000000   0.000000   0.000000   0.000000
     18       0.000000   0.000000   0.000000   0.000000   0.000000   0.000000
     19       0.000000   0.000000   0.000000   0.000000   0.000000   0.000000
     20       0.000000   0.000000   0.000000   0.000000   0.000000   0.000000
     21       0.000000   0.000000   0.000000   0.000000   0.000000   0.000000
     22       0.000000   0.000000   0.000000   0.000000   0.000000   0.000000
     23       0.000000   0.000000   0.000000   0.000000   0.000000   0.000000
     24       0.000000   0.000000   0.000000   0.000000   0.000000   0.000000
     25       0.000000   0.000000   0.000000   0.000000   0.000000   0.000000
     26       0.000000   0.000000   0.000000   0.000000   0.000000   0.000000
     27       0.000000   0.000000   0.000000   0.000000   0.000000   0.000000
     28       0.000000   0.000000   0.000000   0.000000   0.000000   0.000000
     29       0.000000   0.000000   0.000000   0.000000   0.000000   0.000000
     30       0.000000   0.000000   0.000000   0.000000   0.000000   0.000000
     31       0.000000   0.000000   0.000000   0.000000   0.000000   0.000000
     32       0.000000   0.000000   0.000000   0.000000   0.000000   0.000000
     33       0.000000   0.000000   0.000000   0.000000   0.000000   0.000000
     34       0.000000   0.000000   0.000000   0.000000   0.000000   0.000000
     35       0.000000   0.000000   0.000000   0.000000   0.000000   0.000000
     36       0.000000   0.000000   0.000000   0.000000   0.000000   0.000000
     37       0.000000   0.000000   0.000000   0.000000   0.000000   0.000000
     38       0.000000   0.000000   0.000000   0.000000   0.000000   0.000000
     39       0.000000   0.000000   0.000000   0.000000   0.000000   0.000000
     40       0.000000   0.000000   0.000000   0.000000   0.000000   0.000000
     41       0.000000   0.000000   0.000000   0.000000   0.000000   0.000000
     42       0.000000   0.000000   0.000000   0.000000   0.000000   0.000000
     43       0.000000   0.000000   0.000000   0.000000   0.000000   0.000000
     44       0.000000   0.000000   0.000000   0.000000   0.000000   0.000000
     45       0.000000   0.000000   0.000000   0.000000   0.000000   0.000000
     46       0.000000   0.000000   0.000000   0.000000   0.000000   0.000000
     47       0.000000   0.000000   0.000000   0.000000   0.000000   0.000000
     48       0.000000   0.000000   0.000000   0.000000   0.000000   0.000000
     49       0.000000   0.000000   0.000000   0.000000   0.000000   0.000000
     50       0.000000   0.000000   0.000000   0.000000   0.000000   0.000000
     51       0.000000   0.000000   0.000000   0.000000   0.000000   0.000000
     52       0.000000   0.000000   0.000000   0.000000   0.000000   0.000000
     53       0.000000   0.000000   0.000000   0.000000   0.000000   0.000000
                  6          7          8          9         10         11    
      0       0.000023   0.000011  -0.045610   0.000018  -0.000010   0.000057
      1       0.000008   0.000016   0.141650  -0.000027  -0.000022   0.000036
      2      -0.187483  -0.148370  -0.000015  -0.097774   0.176608   0.055397
      3       0.000001   0.000005   0.045608  -0.000007  -0.000003  -0.000045
      4       0.000009  -0.000010   0.141652  -0.000025   0.000004   0.000036
      5      -0.187489   0.148363  -0.000041  -0.097771  -0.176613   0.055387
      6      -0.000007   0.000004   0.126062  -0.000029  -0.000006  -0.000054
      7       0.000001  -0.000010  -0.049413   0.000006   0.000004   0.000053
      8       0.099009   0.181682   0.000046   0.200432   0.074987  -0.107321
      9       0.000001  -0.000001   0.000003  -0.000001   0.000005  -0.000050
     10       0.000000  -0.000001  -0.215876   0.000053   0.000012   0.000002
     11       0.229304   0.000004   0.000010  -0.000000   0.180458   0.193700
     12      -0.000011  -0.000011  -0.126061   0.000017   0.000015  -0.000071
     13      -0.000001  -0.000013  -0.049417   0.000002   0.000003  -0.000049
     14       0.099021  -0.181677  -0.000047  -0.200429   0.074987  -0.107321
     15      -0.000025  -0.000012  -0.045611   0.000018  -0.000007  -0.000056
     16      -0.000009  -0.000017   0.141650  -0.000027  -0.000022  -0.000036
     17      -0.187484  -0.148370   0.000015   0.097769  -0.176613   0.055387
     18      -0.000003  -0.000003   0.045607  -0.000005   0.000002   0.000045
     19      -0.000011   0.000011   0.141651  -0.000024   0.000007  -0.000036
     20      -0.187492   0.148361   0.000041   0.097773   0.176608   0.055399
     21       0.000009  -0.000002   0.126062  -0.000031  -0.000004   0.000051
     22      -0.000000   0.000013  -0.049414   0.000002   0.000004  -0.000055
     23       0.099013   0.181684  -0.000049  -0.200428  -0.074980  -0.107325
     24       0.000001   0.000000   0.000003  -0.000000   0.000003   0.000052
     25       0.000001   0.000001  -0.215876   0.000053   0.000010   0.000002
     26       0.229305   0.000004  -0.000006   0.000000  -0.180472   0.193692
     27       0.000012   0.000009  -0.126060   0.000020   0.000010   0.000071
     28       0.000001   0.000011  -0.049418   0.000005   0.000002   0.000048
     29       0.099019  -0.181680   0.000048   0.200430  -0.074978  -0.107325
     30       0.000045   0.000016  -0.101602   0.000039  -0.000023   0.000093
     31       0.000015   0.000036   0.238270  -0.000045  -0.000049  -0.000001
     32      -0.411019  -0.296887  -0.000037  -0.188835   0.443692  -0.075998
     33      -0.000006   0.000004   0.101596  -0.000023  -0.000002  -0.000074
     34       0.000015  -0.000024   0.238272  -0.000045   0.000025  -0.000004
     35      -0.411031   0.296871  -0.000098  -0.188828  -0.443689  -0.076021
     36      -0.000017   0.000005   0.341332  -0.000083  -0.000024  -0.000030
     37       0.000001  -0.000022  -0.051156  -0.000009   0.000012   0.000079
     38       0.099049   0.326865   0.000076   0.405725   0.006175  -0.459205
     39      -0.000021  -0.000017  -0.341331   0.000060   0.000019  -0.000064
     40      -0.000001  -0.000025  -0.051165  -0.000014  -0.000001  -0.000076
     41       0.099071  -0.326861  -0.000092  -0.405727   0.006173  -0.459213
     42      -0.000050  -0.000019  -0.101601   0.000040  -0.000023  -0.000093
     43      -0.000018  -0.000039   0.238269  -0.000043  -0.000054  -0.000002
     44      -0.411017  -0.296888   0.000036   0.188819  -0.443695  -0.076025
     45       0.000004  -0.000001   0.101594  -0.000021   0.000001   0.000072
     46      -0.000020   0.000028   0.238273  -0.000042   0.000030   0.000001
     47      -0.411032   0.296872   0.000096   0.188823   0.443701  -0.076002
     48       0.000019  -0.000001   0.341332  -0.000086  -0.000021   0.000021
     49      -0.000001   0.000026  -0.051160  -0.000014   0.000012  -0.000084
     50       0.099056   0.326875  -0.000087  -0.405726  -0.006135  -0.459220
     51       0.000021   0.000013  -0.341331   0.000064   0.000016   0.000064
     52       0.000002   0.000020  -0.051166  -0.000008  -0.000002   0.000071
     53       0.099066  -0.326868   0.000090   0.405725  -0.006141  -0.459214
                 12         13         14         15         16         17    
      0      -0.189805   0.290685   0.134326   0.000021  -0.000001  -0.026485
      1      -0.148058  -0.001421  -0.034380   0.000012  -0.000003  -0.021489
      2       0.000023   0.000006   0.000031  -0.182276   0.035376  -0.000004
      3       0.189813   0.290683   0.134326   0.000004  -0.000004  -0.026490
      4      -0.148052   0.001429   0.034383  -0.000011  -0.000003   0.021490
      5       0.000042   0.000003  -0.000019   0.182276   0.035373   0.000008
      6       0.203892   0.169802  -0.040492  -0.000011   0.000000  -0.105846
      7      -0.138699   0.117645   0.293242   0.000037  -0.000006   0.237898
      8      -0.000081  -0.000001   0.000039  -0.167995   0.043391   0.000024
      9       0.198354  -0.000000  -0.180121  -0.000020   0.000001  -0.000005
     10       0.000002   0.012936  -0.000003  -0.000001   0.000003   0.155097
     11       0.000177  -0.000027   0.000017   0.000001  -0.000001  -0.000008
     12       0.203886  -0.169809  -0.040485   0.000009   0.000000   0.105842
     13       0.138706   0.117639  -0.293245  -0.000030  -0.000001   0.237900
     14      -0.000087   0.000010  -0.000016   0.167994  -0.043390  -0.000023
     15       0.189806  -0.290686   0.134325   0.000006  -0.000003   0.026490
     16       0.148058   0.001419  -0.034382  -0.000021  -0.000004   0.021493
     17       0.000023   0.000003   0.000035  -0.182273  -0.035372  -0.000013
     18      -0.189815  -0.290682   0.134324   0.000024  -0.000003   0.026486
     19       0.148053  -0.001430   0.034384   0.000021  -0.000004  -0.021490
     20       0.000041   0.000010  -0.000049   0.182272  -0.035374   0.000016
     21      -0.203892  -0.169804  -0.040492   0.000000  -0.000000   0.105844
     22       0.138700  -0.117646   0.293245   0.000023  -0.000006  -0.237897
     23      -0.000082  -0.000001   0.000018  -0.167992  -0.043392   0.000025
     24      -0.198355   0.000003  -0.180121  -0.000017   0.000001  -0.000001
     25      -0.000004  -0.012933  -0.000001  -0.000000   0.000003  -0.155099
     26       0.000181  -0.000030  -0.000015  -0.000001  -0.000001   0.000011
     27      -0.203885   0.169809  -0.040483  -0.000014   0.000000  -0.105836
     28      -0.138706  -0.117639  -0.293243  -0.000030  -0.000000  -0.237901
     29      -0.000081   0.000007  -0.000040   0.167994   0.043393  -0.000020
     30      -0.294982   0.227607   0.000941   0.000021   0.000026  -0.130937
[...]
     20      -0.000001  -0.000001   0.000001   0.000001  -0.000002  -0.000002
     21      -0.000054   0.000463  -0.001132  -0.001237   0.001821   0.001753
     22      -0.039970  -0.039005  -0.026993  -0.028834   0.016817   0.018297
     23       0.000003   0.000003   0.000002   0.000002  -0.000001  -0.000001
     24      -0.001919   0.000001  -0.002111   0.000005   0.001504  -0.000002
     25      -0.000001  -0.000750   0.000002   0.001011  -0.000000  -0.000241
     26      -0.000000  -0.000000   0.000000   0.000000  -0.000000  -0.000000
     27      -0.000055  -0.000462  -0.001126   0.001242   0.001816  -0.001759
     28       0.039936  -0.039055   0.026859  -0.028954  -0.016766   0.018347
     29       0.000003  -0.000002   0.000002  -0.000002  -0.000001   0.000001
     30       0.158161  -0.172946  -0.345112   0.332245   0.402532  -0.397605
     31       0.091007  -0.100081  -0.192353   0.184586   0.229778  -0.226387
     32       0.000017  -0.000019  -0.000039   0.000037   0.000045  -0.000045
     33       0.157025  -0.172091   0.345466  -0.332625   0.402299  -0.397384
     34      -0.090356   0.099590  -0.192542   0.184790  -0.229632   0.226248
     35      -0.000007   0.000008  -0.000016   0.000015  -0.000018   0.000018
     36       0.001794   0.001784  -0.002042   0.000474  -0.002959   0.001707
     37       0.462856  -0.456516  -0.301089   0.323322  -0.180329   0.198576
     38       0.000033  -0.000033  -0.000022   0.000023  -0.000014   0.000015
     39       0.001804  -0.001773  -0.002052  -0.000474  -0.002969  -0.001705
     40      -0.463471  -0.456062   0.302553   0.321945   0.180931   0.198084
     41       0.000036   0.000035  -0.000023  -0.000025  -0.000014  -0.000016
     42       0.157305   0.171967   0.346923   0.331004   0.403466   0.396258
     43       0.090521   0.099523   0.193360   0.183894   0.230307   0.225614
     44      -0.000020  -0.000023  -0.000046  -0.000044  -0.000054  -0.000053
     45       0.158275   0.172740  -0.346649  -0.330716   0.403638   0.396423
     46      -0.091065  -0.099953   0.193189   0.183716  -0.230386  -0.225691
     47       0.000008   0.000009  -0.000018  -0.000017   0.000021   0.000020
     48       0.001801  -0.001782   0.002047   0.000467  -0.002967  -0.001702
     49       0.464566   0.456667   0.302675   0.322094  -0.181098  -0.198266
     50      -0.000038  -0.000038  -0.000025  -0.000026   0.000015   0.000017
     51       0.001810   0.001773   0.002049  -0.000481  -0.002965   0.001713
     52      -0.464170   0.457250  -0.301177   0.323443   0.180541  -0.198799
     53      -0.000029   0.000029  -0.000019   0.000020   0.000012  -0.000013


-----------
IR SPECTRUM
-----------

 Mode   freq       eps      Int      T**2         TX        TY        TZ
       cm**-1   L/(mol*cm) km/mol    a.u.
----------------------------------------------------------------------------
  6:    173.81   0.000526    2.66  0.000944  ( 0.000008 -0.000009 -0.030720)
  7:    188.47   0.000000    0.00  0.000000  ( 0.000006  0.000004 -0.000001)
  8:    369.37   0.000298    1.51  0.000252  (-0.000000  0.015870 -0.000000)
  9:    395.26   0.000000    0.00  0.000000  (-0.000022  0.000013 -0.000000)
 10:    477.34   0.000000    0.00  0.000000  ( 0.000038  0.000041  0.000003)
 11:    482.03   0.004508   22.78  0.002919  (-0.000000 -0.000001 -0.054025)
 12:    519.56   0.000000    0.00  0.000000  (-0.000000  0.000000 -0.000030)
 13:    522.69   0.000000    0.00  0.000000  (-0.000000  0.000000  0.000004)
 14:    637.51   0.000602    3.04  0.000294  (-0.017160 -0.000000 -0.000000)
 15:    639.10   0.000000    0.00  0.000000  (-0.000019  0.000007 -0.000000)
 16:    717.48   0.000000    0.00  0.000000  (-0.000015 -0.000021 -0.000002)
 17:    773.17   0.000000    0.00  0.000000  (-0.000000  0.000000 -0.000003)
 18:    789.37   0.000000    0.00  0.000000  (-0.000035  0.000001  0.000020)
 19:    792.33   0.022081  111.59  0.008697  ( 0.000000 -0.000004  0.093256)
 20:    814.73   0.000019    0.09  0.000007  ( 0.000000 -0.002681 -0.000004)
 21:    840.09   0.000000    0.00  0.000000  (-0.000002 -0.000001 -0.000001)
 22:    893.05   0.000000    0.00  0.000000  (-0.000011  0.000011  0.000002)
 23:    935.59   0.000000    0.00  0.000000  ( 0.000008 -0.000026 -0.000003)
 24:    951.96   0.000487    2.46  0.000160  (-0.000002  0.000002 -0.012633)
 25:    960.49   0.000000    0.00  0.000000  (-0.000000 -0.000000 -0.000004)
 26:    965.85   0.000000    0.00  0.000000  ( 0.000002 -0.000002 -0.000001)
 27:    971.65   0.000000    0.00  0.000000  (-0.000029  0.000005 -0.000001)
 28:   1033.60   0.001809    9.14  0.000546  (-0.023373 -0.000000  0.000000)
 29:   1044.68   0.000000    0.00  0.000000  ( 0.000004  0.000000  0.000001)
 30:   1152.90   0.001191    6.02  0.000322  (-0.000001  0.017954 -0.000000)
 31:   1166.91   0.000000    0.00  0.000000  (-0.000001  0.000002 -0.000003)
 32:   1168.76   0.000107    0.54  0.000029  ( 0.005355  0.000000 -0.000000)
 33:   1182.61   0.000000    0.00  0.000000  (-0.000001  0.000000 -0.000000)
 34:   1234.67   0.000162    0.82  0.000041  ( 0.006397  0.000000 -0.000000)
 35:   1265.92   0.000000    0.00  0.000000  (-0.000000  0.000001  0.000001)
 36:   1289.45   0.001308    6.61  0.000317  (-0.000000  0.017792 -0.000000)
 37:   1391.29   0.000135    0.68  0.000030  (-0.005494 -0.000000  0.000000)
 38:   1394.85   0.000000    0.00  0.000000  ( 0.000002 -0.000000  0.000000)
 39:   1415.45   0.000962    4.86  0.000212  ( 0.000000 -0.014566  0.000000)
 40:   1485.53   0.000000    0.00  0.000000  (-0.000000 -0.000001  0.000000)
 41:   1485.56   0.000000    0.00  0.000000  (-0.000001  0.000000  0.000001)
 42:   1541.39   0.001744    8.81  0.000353  (-0.018789 -0.000000  0.000000)
 43:   1604.39   0.000000    0.00  0.000000  (-0.000001 -0.000001 -0.000001)
 44:   1627.31   0.000674    3.41  0.000129  (-0.000000  0.011368 -0.000000)
 45:   1654.85   0.000000    0.00  0.000000  ( 0.000000  0.000001 -0.000004)
 46:   3149.51   0.000000    0.00  0.000000  (-0.000006  0.000026 -0.000000)
 47:   3150.07   0.001262    6.38  0.000125  ( 0.000001  0.011182 -0.000000)
 48:   3152.90   0.000156    0.79  0.000015  (-0.003933  0.000002  0.000000)
 49:   3155.09   0.000000    0.00  0.000000  ( 0.000002 -0.000004  0.000001)
 50:   3166.05   0.000000    0.00  0.000000  (-0.000009 -0.000073  0.000003)
 51:   3166.64   0.010344   52.27  0.001019  ( 0.000002 -0.031927  0.000000)
 52:   3178.52   0.007699   38.91  0.000756  (-0.027493 -0.000002  0.000000)
 53:   3179.56   0.000000    0.00  0.000000  ( 0.000039  0.000010  0.000001)

* The epsilon (eps) is given for a Dirac delta lineshape.
** The dipole moment derivative (T) already includes vibrational overlap.

The first frequency considered to be a vibration is 6
The total number of vibrations considered is 48


--------------------------
THERMOCHEMISTRY AT 298.15K
--------------------------

Temperature         ...   298.15 K
Pressure            ...     1.00 atm
Total Mass          ...   128.17 AMU
Quasi RRHO          ...     True
Cut-Off Frequency   ...     1.00 cm^-1

Throughout the following assumptions are being made:
  (1) The electronic state is orbitally nondegenerate
  (2) There are no thermally accessible electronically excited states
  (3) Hindered rotations indicated by low frequency modes are not
      treated as such but are treated as vibrations and this may
      cause some error
  (4) All equations used are the standard statistical mechanics
      equations for an ideal gas
  (5) All vibrations are strictly harmonic

freq.     173.81  E(vib)   ...       0.38 
freq.     188.47  E(vib)   ...       0.36 
freq.     369.37  E(vib)   ...       0.21 
freq.     395.26  E(vib)   ...       0.20 
freq.     477.34  E(vib)   ...       0.15 
freq.     482.03  E(vib)   ...       0.15 
freq.     519.56  E(vib)   ...       0.13 
freq.     522.69  E(vib)   ...       0.13 
freq.     637.51  E(vib)   ...       0.09 
freq.     639.10  E(vib)   ...       0.09 
freq.     717.48  E(vib)   ...       0.07 
freq.     773.17  E(vib)   ...       0.05 
freq.     789.37  E(vib)   ...       0.05 
freq.     792.33  E(vib)   ...       0.05 
freq.     814.73  E(vib)   ...       0.05 
freq.     840.09  E(vib)   ...       0.04 
freq.     893.05  E(vib)   ...       0.03 
freq.     935.59  E(vib)   ...       0.03 
freq.     951.96  E(vib)   ...       0.03 
freq.     960.49  E(vib)   ...       0.03 
freq.     965.85  E(vib)   ...       0.03 
freq.     971.65  E(vib)   ...       0.03 
freq.    1033.60  E(vib)   ...       0.02 
freq.    1044.68  E(vib)   ...       0.02 
freq.    1152.90  E(vib)   ...       0.01 
freq.    1166.91  E(vib)   ...       0.01 
freq.    1168.76  E(vib)   ...       0.01 
freq.    1182.61  E(vib)   ...       0.01 
freq.    1234.67  E(vib)   ...       0.01 
freq.    1265.92  E(vib)   ...       0.01 
freq.    1289.45  E(vib)   ...       0.01 
freq.    1391.29  E(vib)   ...       0.00 
freq.    1394.85  E(vib)   ...       0.00 
freq.    1415.45  E(vib)   ...       0.00 
freq.    1485.53  E(vib)   ...       0.00 
freq.    1485.56  E(vib)   ...       0.00 
freq.    1541.39  E(vib)   ...       0.00 
freq.    1604.39  E(vib)   ...       0.00 
freq.    1627.31  E(vib)   ...       0.00 
freq.    1654.85  E(vib)   ...       0.00 
freq.    3149.51  E(vib)   ...       0.00 
freq.    3150.07  E(vib)   ...       0.00 
freq.    3152.90  E(vib)   ...       0.00 
freq.    3155.09  E(vib)   ...       0.00 
freq.    3166.05  E(vib)   ...       0.00 
freq.    3166.64  E(vib)   ...       0.00 
freq.    3178.52  E(vib)   ...       0.00 
freq.    3179.56  E(vib)   ...       0.00 

------------
INNER ENERGY
------------

The inner energy is: U= E(el) + E(ZPE) + E(vib) + E(rot) + E(trans)
    E(el)   - is the total energy from the electronic structure calculation
              = E(kin-el) + E(nuc-el) + E(el-el) + E(nuc-nuc)
    E(ZPE)  - the the zero temperature vibrational energy from the frequency calculation
    E(vib)  - the the finite temperature correction to E(ZPE) due to population
              of excited vibrational states
    E(rot)  - is the rotational thermal energy
    E(trans)- is the translational thermal energy

Summary of contributions to the inner energy U:
Electronic energy                ...   -385.81582301 Eh
Zero point energy                ...      0.14637081 Eh      91.85 kcal/mol
Thermal vibrational correction   ...      0.00400728 Eh       2.51 kcal/mol
Thermal rotational correction    ...      0.00141627 Eh       0.89 kcal/mol
Thermal translational correction ...      0.00141627 Eh       0.89 kcal/mol
-----------------------------------------------------------------------
Total thermal energy                   -385.66261237 Eh


Summary of corrections to the electronic energy:
(perhaps to be used in another calculation)
Total thermal correction                  0.00683983 Eh       4.29 kcal/mol
Non-thermal (ZPE) correction              0.14637081 Eh      91.85 kcal/mol
-----------------------------------------------------------------------
Total correction                          0.15321063 Eh      96.14 kcal/mol


--------
ENTHALPY
--------

The enthalpy is H = U + kB*T
                kB is Boltzmann's constant
Total thermal energy              ...   -385.66261237 Eh 
Thermal Enthalpy correction       ...      0.00094421 Eh       0.59 kcal/mol
-----------------------------------------------------------------------
Total Enthalpy                    ...   -385.66166816 Eh


WARNING (ORCA/SYM): A non-planar off-center atom subset has been encountered
in function TSymmetryFinder::FilterSubsetShapes() which cannot occur under
regular conditions. The full point group may not be assigned correctly. If the
symmetry appears to be too low, please try increasing the cleaning tolerance
using option SymThresh in the %symmetry input block. If the problem persists,
you may post a message in the ORCA forum.

Note: Rotational entropy computed according to Herzberg 
Infrared and Raman Spectra, Chapter V,1, Van Nostrand Reinhold, 1945 
Point Group:  C2, Symmetry Number:   2  
Rotational constants in cm-1:     0.104129     0.041253     0.029547 

Vibrational entropy computed according to the QRRHO of S. Grimme
Chem.Eur.J. 2012 18 9955 using a reference frequency of 100.0 cm-1


-------
ENTROPY
-------

The entropy contributions are T*S = T*(S(el)+S(vib)+S(rot)+S(trans))
     S(el)   - electronic entropy
     S(vib)  - vibrational entropy
     S(rot)  - rotational entropy
     S(trans)- translational entropy
The entropies will be listed as multiplied by the temperature to get
units of energy

Electronic entropy                ...      0.00000000 Eh      0.00 kcal/mol
Vibrational entropy               ...      0.00602772 Eh      3.78 kcal/mol
Rotational entropy                ...      0.01309192 Eh      8.22 kcal/mol
Translational entropy             ...      0.01922279 Eh     12.06 kcal/mol
-----------------------------------------------------------------------
Final entropy term                ...      0.03834243 Eh     24.06 kcal/mol

In case the symmetry of your molecule has not been determined correctly
or in case you have a reason to use a different symmetry number we print 
out the resulting rotational entropy values for sn=1,12:

 non-linear molecules -----------------------------------
|  sn= 1 | S(rot)=       0.01374638 Eh      8.63 kcal/mol|
|  sn= 2 | S(rot)=       0.01309192 Eh      8.22 kcal/mol|
|  sn= 3 | S(rot)=       0.01270909 Eh      7.98 kcal/mol|
|  sn= 4 | S(rot)=       0.01243747 Eh      7.80 kcal/mol|
|  sn= 5 | S(rot)=       0.01222678 Eh      7.67 kcal/mol|
|  sn= 6 | S(rot)=       0.01205464 Eh      7.56 kcal/mol|
|  sn= 7 | S(rot)=       0.01190909 Eh      7.47 kcal/mol|
|  sn= 8 | S(rot)=       0.01178301 Eh      7.39 kcal/mol|
|  sn= 9 | S(rot)=       0.01167180 Eh      7.32 kcal/mol|
|  sn=10 | S(rot)=       0.01157232 Eh      7.26 kcal/mol|
|  sn=11 | S(rot)=       0.01148233 Eh      7.21 kcal/mol|
|  sn=12 | S(rot)=       0.01140018 Eh      7.15 kcal/mol|
 linear molecules ---------------------------------------
|  Dinfh | S(rot)=       0.00865100 Eh      5.43 kcal/mol|
|  Cinfv | S(rot)=       0.00930546 Eh      5.84 kcal/mol|
 --------------------------------------------------------


-------------------
GIBBS FREE ENERGY
-------------------

The Gibbs free energy is G = H - T*S

Total enthalpy                    ...   -385.66166816 Eh 
Total entropy correction          ...     -0.03834243 Eh    -24.06 kcal/mol
-----------------------------------------------------------------------
Final Gibbs free energy         ...   -385.70001060 Eh

For completeness - the Gibbs free energy minus the electronic energy
G-E(el)                           ...      0.11581241 Eh     72.67 kcal/mol


Maximum memory used throughout the entire PROP-calculation: 78.4 MB

--------------------------------
SUGGESTED CITATIONS FOR THIS RUN
--------------------------------

Below you find a list of papers that are relevant to this ORCA run
We neither can nor want to force you to cite these papers, but we appreciate if you do
You receive ORCA, which is the product of decades of hard work by many enthusiastic individuals, for free
The only thing we kindly ask in return is that you cite our papers,
We deeply appreciate it, if you show your appreciation for ORCA by not just citing the generic ORCA reference.

Please note that relegating all ORCA citations to the supporting information does *not* help us.
SI sections are not indexed - citations you put there will not count into any citation statistics
But we need these citations in order to attract the funding resources that allow us to do what we are doing

Therefore, if you are a happy ORCA user, please consider citing a few of the papers listed below in the main body of your paper

In addition to the list printed below, the program has created the file censo.bibtex that contains the list in bibtex format
You can import this file easily into all common literature databanks and citation aid programs


List of essential papers. We consider these as the minimum necessary citations

  1. Neese,F.
     Software update: the ORCA program system, version 5.0
     WIRES Comput. Molec. Sci., 2022 12(1)e1606
     doi.org/10.1002/wcms.1606
  2. Grimme,S.; Hansen,A.; Ehlert,S.; Mewes,J.
     r2SCAN-3c: A 'Swiss army knife' composite electronic-structure method
     J. Chem. Phys., 2021 154 064103
     doi.org/10.1063/5.0040021

List of papers to cite with high priority. The work reported in these papers was absolutely
necessary for this run to complete.
Our perspective: the developers of density functionals and basis sets usually get cited in chemistry papers
Good! But without the algorithms to do something with them, the functionals or basis sets would not do anything.
Hence, in our opinion, the algorithm design and method developments papers are equally worthy of getting cited

  1. Neese,F.
     An improvement of the resolution of the identity approximation for the formation of the Coulomb matrix
     J. Comp. Chem., 2003 24(14)1740-1747
     doi.org/10.1002/jcc.10318
  2. Bykov,D.; Petrenko,T.; Izsak,R.; Kossmann,S.; Becker,U.; Valeev,E.; Neese,F.
     Efficient implementation of the analytic second derivatives of Hartree-Fock and hybrid DFT energies: a detailed analysis of different approximations
     Molec. Phys., 2015 113 1961-1977
     doi.org/10.1080/00268976.2015.1025114
  3. Neese,F.
     The SHARK Integral Generation and Digestion System
     J. Comp. Chem., 2022  1-16
     doi.org/10.1002/jcc.26942
  4. Lehtola,S.; Steigemann,C.; Oliveira,M.; Marques,M.
     Recent developments in Libxc - A comprehensive library of functionals for density functional theory
     Software X, 2018 7 
     doi.org/10.1016/j.softx.2017.11.002
  5. Caldeweyher,E.; Bannwarth,C.; Grimme,S.
     Extension of the D3 dispersion coefficient model
     J. Chem. Phys., 2017 147 034112-XXXX
     doi.org/10.1063/1.4993215
  6. Caldeweyher,E.; Ehlert,S.; Hansen,A.; Neugebauer,H.; Spicher,S.; Bannwarth,C.; Grimme,S.
     A generally applicable atomic-charge dependent London dispersion correction
     J. Chem. Phys., 2019 150 154122-XXXX
     doi.org/10.1063/1.5090222
  7. Caldeweyher,E.; Mewes,J.; Ehlert,S.; Grimme,S.
     Extension and evaluation of the D4 London-dispersion model for periodic systems
     Phys. Chem. Chem. Phys., 2020 22(16)8499-8512
     doi.org/10.1039/D0CP00502A

List of suggested additional citations. These are papers that are important in the 'surrounding' of 
of this run, or papers that preceded the highly important papers. If you like your results we are grateful for a citation.

  1. Neese,F.
     The ORCA program system
     WIRES Comput. Molec. Sci., 2012 2(1)73-78
     doi.org/10.1002/wcms.81
  2. Neese,F.
     Software update: the ORCA program system, version 4.0
     WIRES Comput. Molec. Sci., 2018 8(1)1-6
     doi.org/10.1002/wcms.1327
  3. Neese,F.; Wennmohs,F.; Becker,U.; Riplinger,C.
     The ORCA quantum chemistry program package
     J. Chem. Phys., 2020 152 Art. No. L224108
     doi.org/10.1063/5.0004608

List of optional additional citations

  1. Neese,F.
     Approximate second-order SCF convergence for spin unrestricted wavefunctions
     Chem. Phys. Lett., 2000 325(1-3)93-98
     doi.org/10.1016/s0009-2614(00)00662-x

Timings for individual modules:

Sum of individual times          ...     1122.665 sec (=  18.711 min)
Startup calculation              ...        1.489 sec (=   0.025 min)   0.1 %
SCF iterations                   ...       47.599 sec (=   0.793 min)   4.2 %
Property integrals               ...      681.642 sec (=  11.361 min)  60.7 %
SCF Response                     ...      219.272 sec (=   3.655 min)  19.5 %
Property calculations            ...      172.662 sec (=   2.878 min)  15.4 %
                             ****ORCA TERMINATED NORMALLY****
TOTAL RUN TIME: 0 days 0 hours 18 minutes 43 seconds 369 msec
