
                                 *****************
                                 * O   R   C   A *
                                 *****************

                                            #,                                       
                                            ###                                      
                                            ####                                     
                                            #####                                    
                                            ######                                   
                                           ########,                                 
                                     ,,################,,,,,                         
                               ,,#################################,,                 
                          ,,##########################################,,             
                       ,#########################################, ''#####,          
                    ,#############################################,,   '####,        
                  ,##################################################,,,,####,       
                ,###########''''           ''''###############################       
              ,#####''   ,,,,##########,,,,          '''####'''          '####       
            ,##' ,,,,###########################,,,                        '##       
           ' ,,###''''                  '''############,,,                           
         ,,##''                                '''############,,,,        ,,,,,,###''
      ,#''                                            '''#######################'''  
     '                                                          ''''####''''         
             ,#######,   #######,   ,#######,      ##                                
            ,#'     '#,  ##    ##  ,#'     '#,    #''#        ,####,   ,####,        
            ##       ##  ##   ,#'  ##            #'  '#       #'       #'  '#        
            ##       ##  #######   ##           ,######,      #####,   #    #        
            '#,     ,#'  ##    ##  '#,     ,#' ,#      #,     #,   #   #,  ,#        
             '#######'   ##     ##  '#######'  #'      '#     '####' # '####'        



                #########################################################
                #                        -***-                          #
                #          Department of theory and spectroscopy        #
                #                                                       #
                #                      Frank Neese                      #
                #                                                       #
                #     Directorship, Architecture, Infrastructure        #
                #                    SHARK, DRIVERS                     #
                #        Core code/Algorithms in most modules           #
                #                                                       #
                #        Max Planck Institute fuer Kohlenforschung      #
                #                Kaiser Wilhelm Platz 1                 #
                #                 D-45470 Muelheim/Ruhr                 #
                #                      Germany                          #
                #                                                       #
                #                  All rights reserved                  #
                #                        -***-                          #
                #########################################################


                         Program Version 6.0.0  -   RELEASE  -


 With contributions from (in alphabetic order):
   Daniel Aravena         : Magnetic Suceptibility
   Michael Atanasov       : Ab Initio Ligand Field Theory (pilot matlab implementation)
   Alexander A. Auer      : GIAO ZORA, VPT2 properties, NMR spectrum
   Ute Becker             : All parallelization in ORCA, NUMFREQ, NUMCALC
   Giovanni Bistoni       : ED, misc. LED, open-shell LED, HFLD
   Martin Brehm           : Molecular dynamics
   Dmytro Bykov           : pre 5.0 version of the SCF Hessian
   Marcos Casanova-Páez   : Triplet and SCS-CIS(D). UHF-(DLPNO)-IP/EA/STEOM-CCSD. UHF-CVS-IP/STEOM-CCSD
   Vijay G. Chilkuri      : MRCI spin determinant printing, contributions to CSF-ICE
   Pauline Colinet        : FMM embedding
   Dipayan Datta          : RHF DLPNO-CCSD density
   Achintya Kumar Dutta   : EOM-CC, STEOM-CC
   Nicolas Foglia         : Exact transition moments, OPA infrastructure, MCD improvements
   Dmitry Ganyushin       : Spin-Orbit,Spin-Spin,Magnetic field MRCI
   Miquel Garcia          : C-PCM and meta-GGA Hessian, CCSD/C-PCM, Gaussian charge scheme
   Tiago L. C. Gouveia    : GS-ROHF, GS-ROCIS
   Yang Guo               : DLPNO-NEVPT2, F12-NEVPT2, CIM, IAO-localization
   Andreas Hansen         : Spin unrestricted coupled pair/coupled cluster methods
   Ingolf Harden          : AUTO-CI MPn and infrastructure 
   Benjamin Helmich-Paris : MC-RPA, TRAH-(SCF,CASSCF), AVAS, COSX integrals, SCF dyn. polar.
   Lee Huntington         : MR-EOM, pCC
   Robert Izsak           : Overlap fitted RIJCOSX, COSX-SCS-MP3, EOM
   Riya Kayal             : Wick's Theorem for AUTO-CI, AUTO-CI UHF-CCSDT
   Emily Kempfer          : AUTO-CI, RHF CISDT and CCSDT
   Christian Kollmar      : KDIIS, OOCD, Brueckner-CCSD(T), CCSD density, CASPT2, CASPT2-K, improved NEVPT2
   Axel Koslowski         : Symmetry handling
   Simone Kossmann        : Meta GGA functionals, TD-DFT gradient, OOMP2, (MP2 Hessian; deprecated post 5.0)
   Lucas Lang             : DCDCAS
   Marvin Lechner         : AUTO-CI (C++ implementation), FIC-MRCC
   Spencer Leger          : CASSCF response
   Dagmar Lenk            : GEPOL surface, SMD, ORCA-2-JSON
   Dimitrios Liakos       : Extrapolation schemes; Compound Job, initial MDCI parallelization
   Dimitrios Manganas     : Further ROCIS development; embedding schemes. LFT, Crystal Embedding
   Dimitrios Pantazis     : SARC Basis sets
   Anastasios Papadopoulos: AUTO-CI, single reference methods and gradients
   Taras Petrenko         : pre 6.0 DFT Hessian and TD-DFT gradient, (ASA, deprecated), ECA, 1-Electron XAS/XES, NRVS
   Peter Pinski           : DLPNO-MP2, DLPNO-MP2 Gradient
   Christoph Reimann      : Effective Core Potentials
   Marius Retegan         : Local ZFS, SOC
   Christoph Riplinger    : Optimizer, TS searches, QM/MM, DLPNO-CCSD(T), (RO)-DLPNO pert. Triples
   Michael Roemelt        : Original ROCIS implementation
   Masaaki Saitow         : Open-shell DLPNO-CCSD energy and density
   Barbara Sandhoefer     : DKH picture change effects
   Kantharuban Sivalingam : CASSCF convergence/infrastructure, NEVPT2 and variants, FIC-MRCI
   Bernardo de Souza      : ESD, SOC TD-DFT
   Georgi Stoychev        : AutoAux, RI-MP2 NMR, DLPNO-MP2 response, X2C
   Van Anh Tran           : RI-MP2 g-tensors
   Willem Van den Heuvel  : Paramagnetic NMR
   Zikuan Wang            : NOTCH, Electric field optimization 
   Frank Wennmohs         : Technical directorship and infrastructure
   Hang Xu                : AUTO-CI-Response properties 


 We gratefully acknowledge several colleagues who have allowed us to
 interface, adapt or use parts of their codes:
   Stefan Grimme, W. Hujo, H. Kruse, P. Pracht,  : VdW corrections, initial TS optimization,
                  C. Bannwarth, S. Ehlert,         DFT functionals, gCP, sTDA/sTD-DF
                  L. Wittmann, M. Mueller
   Ed Valeev, F. Pavosevic, A. Kumar             : LibInt (2-el integral package), F12 methods
   Garnet Chan, S. Sharma, J. Yang, R. Olivares  : DMRG
   Ulf Ekstrom                                   : XCFun DFT Library
   Mihaly Kallay                                 : mrcc  (arbitrary order and MRCC methods)
   Frank Weinhold                                : gennbo (NPA and NBO analysis)
   Simon Mueller                                 : openCOSMO-RS
   Christopher J. Cramer and Donald G. Truhlar   : smd solvation model
   Lars Goerigk                                  : TD-DFT with DH, B97 family of functionals
   V. Asgeirsson, H. Jonsson                     : NEB implementation
   FAccTs GmbH                                   : IRC, NEB, NEB-TS, DLPNO-Multilevel, CI-OPT
                                                   MM, QMMM, 2- and 3-layer-ONIOM, Crystal-QMMM,
                                                   LR-CPCM, SF, NACMEs, symmetry and pop. for TD-DFT,
                                                   nearIR, NL-DFT gradient (VV10), updates on ESD,
                                                   ML-optimized integration grids, MBIS, APM,
                                                   GOAT, DOCKER, SOLVATOR, interface openCOSMO-RS
   S Lehtola, MJT Oliveira, MAL Marques          : LibXC Library
   Liviu Ungur et al                             : ANISO software


 Your calculation uses the libint2 library for the computation of 2-el integrals
 For citations please refer to: http://libint.valeyev.net

 Your ORCA version has been built with support for libXC version: 6.2.2
 For citations please refer to: https://libxc.gitlab.io

 This ORCA versions uses:
   CBLAS   interface :  Fast vector & matrix operations
   LAPACKE interface :  Fast linear algebra routines
   SCALAPACK package :  Parallel linear algebra routines
   Shared memory     :  Shared parallel matrices
   BLAS/LAPACK       :  OpenBLAS 0.3.27  USE64BITINT DYNAMIC_ARCH NO_AFFINITY SkylakeX SINGLE_THREADED
        Core in use  :  SkylakeX
   Copyright (c) 2011-2014, The OpenBLAS Project




***************************************
The coordinates will be read from file: vacuum_censo.xyz
***************************************


Your calculation utilizes the geometrical counterpoise correction gCP
Please cite in your paper:
H.Kruse, S. Grimme J.Chem.Phys., 136, (2012), 154101 
   

Your calculation utilizes the atom-pairwise dispersion correction
based on EEQ partial charges (D4)


================================================================================

----- Orbital basis set information -----
Your calculation utilizes the basis: def2-TZVP
   F. Weigend and R. Ahlrichs, Phys. Chem. Chem. Phys. 7, 3297 (2005).

----- AuxJ basis set information -----
Your calculation utilizes the basis: def2-mTZVPP/J
   Stefan Grimme, Andreas Hansen, Sebastian Ehlert, and Jan-Michael Mewes 
   J. Chem. Phys. 154, 000000 (2021). DOI: 10.1063/5.0040021

================================================================================
                                        WARNINGS
                       Please study these warnings very carefully!
================================================================================

Using LibXC functional ID 497 : Re-regularized SCAN exchange by Furness et al
[ 1]  J. W. Furness, A. D. Kaplan, J. Ning, J. P. Perdew, and J. Sun.,  J. Phys. Chem. Lett. 11, 8208-8215 (2020)
[ 2]  J. W. Furness, A. D. Kaplan, J. Ning, J. P. Perdew, and J. Sun.,  J. Phys. Chem. Lett. 11, 9248-9248 (2020)
Using LibXC functional ID 498 : Re-regularized SCAN correlation by Furness et al
[ 1]  J. W. Furness, A. D. Kaplan, J. Ning, J. P. Perdew, and J. Sun.,  J. Phys. Chem. Lett. 11, 8208-8215 (2020)
[ 2]  J. W. Furness, A. D. Kaplan, J. Ning, J. P. Perdew, and J. Sun.,  J. Phys. Chem. Lett. 11, 9248-9248 (2020)
Using LibXC functional ID 497 : Re-regularized SCAN exchange by Furness et al
[ 1]  J. W. Furness, A. D. Kaplan, J. Ning, J. P. Perdew, and J. Sun.,  J. Phys. Chem. Lett. 11, 8208-8215 (2020)
[ 2]  J. W. Furness, A. D. Kaplan, J. Ning, J. P. Perdew, and J. Sun.,  J. Phys. Chem. Lett. 11, 9248-9248 (2020)
Using LibXC functional ID 498 : Re-regularized SCAN correlation by Furness et al
[ 1]  J. W. Furness, A. D. Kaplan, J. Ning, J. P. Perdew, and J. Sun.,  J. Phys. Chem. Lett. 11, 8208-8215 (2020)
[ 2]  J. W. Furness, A. D. Kaplan, J. Ning, J. P. Perdew, and J. Sun.,  J. Phys. Chem. Lett. 11, 9248-9248 (2020)

================================================================================
                                       INPUT FILE
================================================================================
NAME = vacuum_censo.inp
|  1> ! r2SCAN-3c DEF2-TZVP FREQ
|  2> * xyzfile 0 1 vacuum_censo.xyz
|  3> 
|  4>                          ****END OF INPUT****
================================================================================

                       ****************************
                       * Single Point Calculation *
                       ****************************

---------------------------------
CARTESIAN COORDINATES (ANGSTROEM)
---------------------------------
  C     -2.418885    0.007441    0.000009
  C     -0.983747    0.524812    0.000016
  C      0.037999   -0.627053    0.000153
  C      1.414227   -0.161804    0.000542
  C      2.542880    0.259237   -0.002249
  H     -2.617178   -0.607173    0.884793
  H     -3.135545    0.833718   -0.000147
  H     -2.617095   -0.607444   -0.884605
  H     -0.804807    1.154029   -0.878547
  H     -0.804864    1.154147    0.878501
  H     -0.129257   -1.263893   -0.878752
  H     -0.129504   -1.263936    0.878981
  H      3.541983    0.621832    0.001345

----------------------------
CARTESIAN COORDINATES (A.U.)
----------------------------
  NO LB      ZA    FRAG     MASS         X           Y           Z
   0 C     6.0000    0    12.011   -4.571030    0.014061    0.000018
   1 C     6.0000    0    12.011   -1.859012    0.991750    0.000030
   2 C     6.0000    0    12.011    0.071808   -1.184959    0.000289
   3 C     6.0000    0    12.011    2.672502   -0.305765    0.001024
   4 C     6.0000    0    12.011    4.805347    0.489888   -0.004249
   5 H     1.0000    0     1.008   -4.945749   -1.147391    1.672017
   6 H     1.0000    0     1.008   -5.925322    1.575498   -0.000278
   7 H     1.0000    0     1.008   -4.945593   -1.147902   -1.671660
   8 H     1.0000    0     1.008   -1.520865    2.180799   -1.660213
   9 H     1.0000    0     1.008   -1.520973    2.181022    1.660127
  10 H     1.0000    0     1.008   -0.244260   -2.388412   -1.660601
  11 H     1.0000    0     1.008   -0.244728   -2.388493    1.661033
  12 H     1.0000    0     1.008    6.693378    1.175092    0.002542

--------------------------------
INTERNAL COORDINATES (ANGSTROEM)
--------------------------------
 C      0   0   0     0.000000000000     0.00000000     0.00000000
 C      1   0   0     1.525547375527     0.00000000     0.00000000
 C      2   1   0     1.539726479580   111.74981066     0.00000000
 C      3   2   1     1.452742708906   112.89577725   180.01629067
 C      4   3   2     1.204633213944   178.21433048   355.24179835
 H      1   2   3     1.095404979174   111.13555051    59.98925524
 H      1   2   3     1.093771187309   111.11191662   180.00331279
 H      1   2   3     1.095404911629   111.13675476   300.01851243
 H      2   1   3     1.095356813684   110.39510596   121.16555516
 H      2   1   3     1.095353523622   110.39481899   238.83669234
 H      3   2   1     1.098186285354   109.43186822    58.07202864
 H      3   2   1     1.098187493466   109.43318677   301.94569505
 H      5   4   3     1.062870880649   179.39356990   152.18581035

---------------------------
INTERNAL COORDINATES (A.U.)
---------------------------
 C      0   0   0     0.000000000000     0.00000000     0.00000000
 C      1   0   0     2.882866744068     0.00000000     0.00000000
 C      2   1   0     2.909661367552   111.74981066     0.00000000
 C      3   2   1     2.745285862884   112.89577725   180.01629067
 C      4   3   2     2.276426866180   178.21433048   355.24179835
 H      1   2   3     2.070015416373   111.13555051    59.98925524
 H      1   2   3     2.066927997187   111.11191662   180.00331279
 H      1   2   3     2.070015288730   111.13675476   300.01851243
 H      2   1   3     2.069924396788   110.39510596   121.16555516
 H      2   1   3     2.069918179472   110.39481899   238.83669234
 H      3   2   1     2.075271323347   109.43186822    58.07202864
 H      3   2   1     2.075273606348   109.43318677   301.94569505
 H      5   4   3     2.008534880147   179.39356990   152.18581035

---------------------
BASIS SET INFORMATION
---------------------
There are 2 groups of distinct atoms

 Group   1 Type C   : 11s6p2d1f contracted to 5s3p2d1f pattern {62111/411/11/1}
 Group   2 Type H   : 5s1p contracted to 3s1p pattern {311/1}

Atom   0C    basis set group =>   1
Atom   1C    basis set group =>   1
Atom   2C    basis set group =>   1
Atom   3C    basis set group =>   1
Atom   4C    basis set group =>   1
Atom   5H    basis set group =>   2
Atom   6H    basis set group =>   2
Atom   7H    basis set group =>   2
Atom   8H    basis set group =>   2
Atom   9H    basis set group =>   2
Atom  10H    basis set group =>   2
Atom  11H    basis set group =>   2
Atom  12H    basis set group =>   2
---------------------------------
AUXILIARY/J BASIS SET INFORMATION
---------------------------------
There are 2 groups of distinct atoms

 Group   1 Type C   : 8s3p3d contracted to 6s3p3d pattern {311111/111/111}
 Group   2 Type H   : 5s2p1d contracted to 3s1p1d pattern {311/2/1}

Atom   0C    basis set group =>   1
Atom   1C    basis set group =>   1
Atom   2C    basis set group =>   1
Atom   3C    basis set group =>   1
Atom   4C    basis set group =>   1
Atom   5H    basis set group =>   2
Atom   6H    basis set group =>   2
Atom   7H    basis set group =>   2
Atom   8H    basis set group =>   2
Atom   9H    basis set group =>   2
Atom  10H    basis set group =>   2
Atom  11H    basis set group =>   2
Atom  12H    basis set group =>   2
------------------------------------------------------------------------------
                             ORCA STARTUP CALCULATIONS
                           -- RI-GTO INTEGRALS CHOSEN --
------------------------------------------------------------------------------
------------------------------------------------------------------------------
                   ___                                                        
                  /   \      - P O W E R E D   B Y -                         
                 /     \                                                     
                 |  |  |   _    _      __       _____    __    __             
                 |  |  |  | |  | |    /  \     |  _  \  |  |  /  |          
                  \  \/   | |  | |   /    \    | | | |  |  | /  /          
                 / \  \   | |__| |  /  /\  \   | |_| |  |  |/  /          
                |  |  |   |  __  | /  /__\  \  |    /   |      \           
                |  |  |   | |  | | |   __   |  |    \   |  |\   \          
                \     /   | |  | | |  |  |  |  | |\  \  |  | \   \       
                 \___/    |_|  |_| |__|  |__|  |_| \__\ |__|  \__/        
                                                                              
                      - O R C A' S   B I G   F R I E N D -                    
                                      &                                       
                       - I N T E G R A L  F E E D E R -                       
                                                                              
 v1 FN, 2020, v2 2021, v3 2022-2024                                           
------------------------------------------------------------------------------


----------------------
SHARK INTEGRAL PACKAGE
----------------------

Number of atoms                             ...     13
Number of basis functions                   ...    203
Number of shells                            ...     87
Maximum angular momentum                    ...      3
Integral batch strategy                     ... SHARK/LIBINT Hybrid
RI-J (if used) integral strategy            ... SPLIT-RIJ (Revised 2003 algorithm where possible)
Printlevel                                  ...      1
Contraction scheme used                     ... SEGMENTED contraction
Prescreening option                         ... SCHWARTZ
   Thresh                                   ... 1.000e-10
   Tcut                                     ... 1.000e-11
   Tpresel                                  ... 1.000e-11 
Coulomb Range Separation                    ... NOT USED
Exchange Range Separation                   ... NOT USED
Multipole approximations                    ... NOT USED
Finite Nucleus Model                        ... NOT USED
CABS basis                                  ... NOT available
Auxiliary Coulomb fitting basis             ... AVAILABLE
   # of basis functions in Aux-J            ...    238
   # of shells in Aux-J                     ...    100
   Maximum angular momentum in Aux-J        ...      2
Auxiliary J/K fitting basis                 ... NOT available
Auxiliary Correlation fitting basis         ... NOT available
Auxiliary 'external' fitting basis          ... NOT available

Checking pre-screening integrals            ... done (  0.0 sec) Dimension = 87
Check shell pair data                       ... done (  0.0 sec)
Shell pair information
Shell pair cut-off parameter TPreSel        ...   1.0e-11
Total number of shell pairs                 ...      3828
Shell pairs after pre-screening             ...      3578
Total number of primitive shell pairs       ...     11160
Primitive shell pairs kept                  ...      8253
          la=0 lb=0:   1120 shell pairs
          la=1 lb=0:   1052 shell pairs
          la=1 lb=1:    266 shell pairs
          la=2 lb=0:    464 shell pairs
          la=2 lb=1:    222 shell pairs
          la=2 lb=2:     54 shell pairs
          la=3 lb=0:    228 shell pairs
          la=3 lb=1:    109 shell pairs
          la=3 lb=2:     48 shell pairs
          la=3 lb=3:     15 shell pairs

Calculating one electron integrals          ... done (  0.0 sec)
Calculating RI/J V-Matrix + Cholesky decomp.... done (  0.0 sec)
Calculating Nuclear repulsion               ... done (  0.0 sec) ENN=    154.009401544498 Eh

Diagonalization of the overlap matrix:
Smallest eigenvalue                        ... 1.972e-05
Time for diagonalization                   ...    0.004 sec
Threshold for overlap eigenvalues          ... 1.000e-07
Number of eigenvalues below threshold      ... 0
Time for construction of square roots      ...    0.014 sec
Total time needed                          ...    0.026 sec

-------------------
DFT GRID GENERATION
-------------------

General Integration Accuracy     IntAcc      ... 4.388
Radial Grid Type                 RadialGrid  ... OptM3 with GC (2021)
Angular Grid (max. ang.)         AngularGrid ... 4 (Lebedev-302)
Angular grid pruning method      GridPruning ... 4 (adaptive)
Weight generation scheme         WeightScheme... mBecke (2022)
Basis function cutoff            BFCut       ... 1.0000e-10
Integration weight cutoff        WCut        ... 1.0000e-14
Partially contracted basis set               ... off
Rotationally invariant grid construction     ... off
Angular grids for H and He will be reduced by one unit

Total number of grid points                  ...    56070
Total number of batches                      ...      884
Average number of points per batch           ...       63
Average number of grid points per atom       ...     4313
Initializing property integral containers    ... done (  0.0 sec)

SHARK setup successfully completed in   0.8 seconds

Maximum memory used throughout the entire STARTUP-calculation: 27.3 MB
-------------------------------------------------------------------------------
                                 ORCA GUESS
                   Start orbitals & Density for SCF / CASSCF
-------------------------------------------------------------------------------

------------
SCF SETTINGS
------------
Hamiltonian:
 Density Functional     Method          .... DFT(GTOs)
  Functional kind                       .... Exchange
  Functional name                       .... Re-regularized SCAN exchange by Furness et al
  Functional family                     .... MGGA
  Functional refs                              
    [ 0] J. W. Furness, A. D. Kaplan, J. Ning, J. P. Perdew, and J. Sun.,  J. Phys. Chem. Lett. 11, 8208-8215 (2020), doi: 10.1021/acs.jpclett.0c02405
    [ 1] J. W. Furness, A. D. Kaplan, J. Ning, J. P. Perdew, and J. Sun.,  J. Phys. Chem. Lett. 11, 9248-9248 (2020), doi: 10.1021/acs.jpclett.0c03077
  Functional external parameters        .... 6
    Parameter  0 _c1        =  6.670000e-01 : c1 parameter        
    Parameter  1 _c2        =  8.000000e-01 : c2 parameter        
    Parameter  2 _d         =  1.240000e+00 : d parameter         
    Parameter  3 _k1        =  6.500000e-02 : k1 parameter        
    Parameter  4 _eta       =  1.000000e-03 : eta parameter       
    Parameter  5 _dp2       =  3.610000e-01 : dp2 parameter       
  Functional kind                       .... Correlation
  Functional name                       .... Re-regularized SCAN correlation by Furness et al
  Functional family                     .... MGGA
  Functional refs                              
    [ 0] J. W. Furness, A. D. Kaplan, J. Ning, J. P. Perdew, and J. Sun.,  J. Phys. Chem. Lett. 11, 8208-8215 (2020), doi: 10.1021/acs.jpclett.0c02405
    [ 1] J. W. Furness, A. D. Kaplan, J. Ning, J. P. Perdew, and J. Sun.,  J. Phys. Chem. Lett. 11, 9248-9248 (2020), doi: 10.1021/acs.jpclett.0c03077
  Functional external parameters        .... 1
    Parameter  0 _eta       =  1.000000e-03 : Regularization parameter
 Gradients option       PostSCFGGA      .... off
 RI-approximation to the Coulomb term is turned on
   Number of AuxJ basis functions       .... 238


General Settings:
 Integral files         IntName         .... vacuum_censo
 Hartree-Fock type      HFTyp           .... RHF
 Total Charge           Charge          ....    0
 Multiplicity           Mult            ....    1
 Number of Electrons    NEL             ....   38
 Basis Dimension        Dim             ....  203
 Nuclear Repulsion      ENuc            ....    154.0094015445 Eh

Convergence Acceleration:
 AO-DIIS                CNVDIIS         .... on
   Start iteration      DIISMaxIt       ....    12
   Startup error        DIISStart       ....  0.200000
   # of expansion vecs  DIISMaxEq       ....     5
   Bias factor          DIISBfac        ....   1.050
   Max. coefficient     DIISMaxC        ....  10.000
 MO-DIIS                CNVKDIIS        .... off
 Trust-Rad. Augm. Hess. CNVTRAH         .... auto
   Auto Start mean grad. ratio tolernc. ....  1.125000
   Auto Start start iteration           ....    50
   Auto Start num. interpolation iter.  ....    10
   Max. Number of Micro iterations      ....    24
   Max. Number of Macro iterations      .... Maxiter - #DIIS iter
   Number of Davidson start vectors     ....     2
   Converg. threshold    (grad. norm)   ....   5.000e-05
   Grad. Scal. Fac. for Micro threshold ....   0.100
   Minimum threshold for Micro iter.    ....   1.000e-02
   NR start threshold (gradient norm)   ....   1.000e-04
   Initial trust radius                 ....   0.400
   Minimum AH scaling param. (alpha)    ....   1.000
   Maximum AH scaling param. (alpha)    .... 1000.000
   Quad. conv. algorithm                .... NR
   White noise on init. David. guess    .... on
   Maximum white noise                  ....   0.010
   Pseudo random numbers                .... off
   Inactive MOs                         .... canonical
   Orbital update algorithm             .... Taylor
   Preconditioner                       .... Diag
   Full preconditioner red. dimension   ....   250
   COSX micro iterations for RIJONX calc.... off
 SOSCF                  CNVSOSCF        .... on
   Start iteration      SOSCFMaxIt      ....   150
   Startup grad/error   SOSCFStart      ....  0.003300
   Hessian update       SOSCFHessUp     .... L-BFGS
 Level Shifting         CNVShift        .... on
   Level shift para.    LevelShift      ....    0.2500
   Turn off err/grad.   ShiftErr        ....    0.0010
 Zerner damping         CNVZerner       .... off
 Static damping         CNVDamp         .... on
   Fraction old density DampFac         ....    0.7000
   Max. Damping (<1)    DampMax         ....    0.9800
   Min. Damping (>=0)   DampMin         ....    0.0000
   Turn off err/grad.   DampErr         ....    0.1000

SCF Procedure:
 Maximum # iterations   MaxIter         ....   125
 SCF integral mode      SCFMode         .... Direct
   Integral package                     .... SHARK and LIBINT hybrid scheme
 Reset frequency        DirectResetFreq ....    20
 Integral Threshold     Thresh          ....  1.000e-10 Eh
 Primitive CutOff       TCut            ....  1.000e-11 Eh

Convergence Tolerance:
 Convergence Check Mode ConvCheckMode   .... Total+1el-Energy
 Convergence forced     ConvForced      .... 0
 Energy Change          TolE            ....  1.000e-06 Eh
 1-El. energy change                    ....  1.000e-03 Eh
 Orbital Gradient       TolG            ....  5.000e-05
 Orbital Rotation angle TolX            ....  5.000e-05
 DIIS Error             TolErr          ....  1.000e-06

------------------------------
INITIAL GUESS: MODEL POTENTIAL
------------------------------
Loading Hartree-Fock densities                     ... done
Calculating cut-offs                               ... done
Initializing the effective Hamiltonian             ... done
Setting up the integral package (SHARK)            ... done
Starting the Coulomb interaction                   ... done (   0.1 sec)
Making the grid                                    ... done (   0.1 sec)
Mapping shells                                     ... done
Starting the XC term evaluation                    ... done (   0.2 sec)
  promolecular density results
     # of electrons  =     37.991057295
     EX              =    -27.860418706
     EC              =     -1.205849177
     EX+EC           =    -29.066267883
Transforming the Hamiltonian                       ... done (   0.0 sec)
Diagonalizing the Hamiltonian                      ... done (   0.0 sec)
Back transforming the eigenvectors                 ... done (   0.0 sec)
Now organizing SCF variables                       ... done
                      ------------------
                      INITIAL GUESS DONE (   0.5 sec)
                      ------------------
             **** ENERGY FILE WAS UPDATED (vacuum_censo.en.tmp) ****
Finished Guess after   0.7 sec
Maximum memory used throughout the entire GUESS-calculation: 16.2 MB

-------------------------------------------------------------------------------------------
                                      ORCA LEAN-SCF
                              memory conserving SCF solver
-------------------------------------------------------------------------------------------

----------------------------------------D-I-I-S--------------------------------------------
Iteration    Energy (Eh)           Delta-E    RMSDP     MaxDP     DIISErr   Damp  Time(sec)
-------------------------------------------------------------------------------------------
               ***  Starting incremental Fock matrix formation  ***
    1    -195.0503455378412809     0.00e+00  1.76e-03  3.73e-02  1.85e-01  0.700   1.9
    2    -195.1315977155006749    -8.13e-02  1.31e-03  2.24e-02  9.43e-02  0.700   1.9
                               ***Turning on AO-DIIS***
    3    -195.1653810510142648    -3.38e-02  7.01e-04  1.95e-02  3.71e-02  0.700   1.8
    4    -195.1845030287877876    -1.91e-02  1.45e-03  4.93e-02  1.80e-02  0.000   1.7
    5    -195.2255788509484091    -4.11e-02  2.49e-04  5.39e-03  7.40e-03  0.000   1.7
                              *** Initializing SOSCF ***
---------------------------------------S-O-S-C-F--------------------------------------
Iteration    Energy (Eh)           Delta-E    RMSDP     MaxDP     MaxGrad    Time(sec)
--------------------------------------------------------------------------------------
    6    -195.2258804624225377    -3.02e-04  1.13e-04  2.55e-03  2.01e-03     1.7
               *** Restarting incremental Fock matrix formation ***
    7    -195.2259032954558506    -2.28e-05  8.52e-05  1.86e-03  3.57e-04     1.9
    8    -195.2259001180833025     3.18e-06  2.28e-05  5.73e-04  8.69e-04     1.6
    9    -195.2259051643058001    -5.05e-06  2.77e-05  8.11e-04  1.65e-04     1.5
   10    -195.2259048082474919     3.56e-07  1.29e-05  3.50e-04  1.82e-04     1.5
                 **** Energy Check signals convergence ****

               *****************************************************
               *                     SUCCESS                       *
               *           SCF CONVERGED AFTER  10 CYCLES          *
               *****************************************************

             **** ENERGY FILE WAS UPDATED (vacuum_censo.en.tmp) ****

----------------
TOTAL SCF ENERGY
----------------

Total Energy       :       -195.22590480824749 Eh           -5312.36695 eV

Components:
Nuclear Repulsion  :        154.00940154449768 Eh            4190.80887 eV
Electronic Energy  :       -349.23530635274517 Eh           -9503.17582 eV
One Electron Energy:       -565.81921930834949 Eh          -15396.72371 eV
Two Electron Energy:        216.58391295560432 Eh            5893.54789 eV

Virial components:
Potential Energy   :       -389.43228350587395 Eh          -10596.99117 eV
Kinetic Energy     :        194.20637869762646 Eh            5284.62423 eV
Virial Ratio       :          2.00524970455377

DFT components:
N(Alpha)           :       19.000011058391 electrons
N(Beta)            :       19.000011058391 electrons
N(Total)           :       38.000022116782 electrons
E(X)               :      -28.793186883105 Eh       
E(C)               :       -1.166270019646 Eh       
E(XC)              :      -29.959456902751 Eh       

---------------
SCF CONVERGENCE
---------------

  Last Energy change         ...   -3.5606e-07  Tolerance :   1.0000e-06
  Last MAX-Density change    ...    3.5016e-04  Tolerance :   1.0000e-05
  Last RMS-Density change    ...    1.2949e-05  Tolerance :   1.0000e-06
  Last DIIS Error            ...    2.0063e-03  Tolerance :   1.0000e-06
  Last Orbital Gradient      ...    1.8151e-04  Tolerance :   5.0000e-05
  Last Orbital Rotation      ...    1.6881e-04  Tolerance :   5.0000e-05


----------------
ORBITAL ENERGIES
----------------

  NO   OCC          E(Eh)            E(eV) 
   0   2.0000     -10.058615      -273.7088 
   1   2.0000     -10.039305      -273.1834 
   2   2.0000     -10.034973      -273.0655 
   3   2.0000     -10.027878      -272.8724 
   4   2.0000     -10.020835      -272.6808 
   5   2.0000      -0.779307       -21.2060 
   6   2.0000      -0.714761       -19.4496 
   7   2.0000      -0.658917       -17.9300 
   8   2.0000      -0.571831       -15.5603 
   9   2.0000      -0.496857       -13.5202 
  10   2.0000      -0.445276       -12.1166 
  11   2.0000      -0.437881       -11.9153 
  12   2.0000      -0.393746       -10.7144 
  13   2.0000      -0.375215       -10.2101 
  14   2.0000      -0.341403        -9.2900 
  15   2.0000      -0.325945        -8.8694 
  16   2.0000      -0.311972        -8.4892 
  17   2.0000      -0.244198        -6.6450 
  18   2.0000      -0.243871        -6.6361 
  19   0.0000       0.017763         0.4833 
  20   0.0000       0.022694         0.6175 
  21   0.0000       0.047269         1.2862 
  22   0.0000       0.083959         2.2846 
  23   0.0000       0.092673         2.5217 
  24   0.0000       0.092990         2.5304 
  25   0.0000       0.103515         2.8168 
  26   0.0000       0.121980         3.3192 
  27   0.0000       0.140032         3.8105 
  28   0.0000       0.155138         4.2215 
  29   0.0000       0.155615         4.2345 
*Only the first 10 virtual orbitals were printed.

                    ********************************
                    * MULLIKEN POPULATION ANALYSIS *
                    ********************************

-----------------------
MULLIKEN ATOMIC CHARGES
-----------------------
   0 C :   -0.323811
   1 C :   -0.115644
   2 C :   -0.363127
   3 C :   -0.093192
   4 C :   -0.011534
   5 H :    0.100596
   6 H :    0.112467
   7 H :    0.100574
   8 H :    0.093693
   9 H :    0.093580
  10 H :    0.111182
  11 H :    0.111521
  12 H :    0.183694
Sum of atomic charges:    0.0000000

--------------------------------
MULLIKEN REDUCED ORBITAL CHARGES
--------------------------------
  0 C s       :     3.266458  s :     3.266458
      pz      :     1.035803  p :     3.006138
      px      :     0.938004
      py      :     1.032331
      dz2     :     0.002584  d :     0.047422
      dxz     :     0.012154
      dyz     :     0.010758
      dx2y2   :     0.007795
      dxy     :     0.014130
      f0      :     0.000339  f :     0.003793
      f+1     :     0.000110
      f-1     :     0.001096
      f+2     :     0.000262
      f-2     :     0.000179
      f+3     :     0.001082
      f-3     :     0.000726

  1 C s       :     3.181507  s :     3.181507
      pz      :     1.028945  p :     2.838499
      px      :     0.885401
      py      :     0.924154
      dz2     :     0.004619  d :     0.089370
      dxz     :     0.016141
      dyz     :     0.024294
      dx2y2   :     0.022711
      dxy     :     0.021605
      f0      :     0.000660  f :     0.006267
      f+1     :     0.000226
      f-1     :     0.001198
      f+2     :     0.000285
      f-2     :     0.000858
      f+3     :     0.001589
      f-3     :     0.001450

  2 C s       :     3.384861  s :     3.384861
      pz      :     1.016303  p :     2.885089
      px      :     0.900471
      py      :     0.968315
      dz2     :     0.003531  d :     0.087605
      dxz     :     0.017474
      dyz     :     0.023062
      dx2y2   :     0.024877
      dxy     :     0.018662
      f0      :     0.000541  f :     0.005572
      f+1     :     0.000186
      f-1     :     0.001246
      f+2     :     0.000177
      f-2     :     0.000713
      f+3     :     0.001372
      f-3     :     0.001337

  3 C s       :     3.313607  s :     3.313607
      pz      :     0.954394  p :     2.674585
      px      :     0.768134
      py      :     0.952056
      dz2     :     0.005092  d :     0.092784
      dxz     :     0.031485
      dyz     :     0.007317
      dx2y2   :     0.022694
      dxy     :     0.026196
      f0      :     0.001751  f :     0.012216
      f+1     :     0.000910
      f-1     :     0.000364
      f+2     :     0.001658
      f-2     :     0.001305
      f+3     :     0.003792
      f-3     :     0.002436

  4 C s       :     2.970250  s :     2.970250
      pz      :     1.012739  p :     3.033686
      px      :     1.006840
      py      :     1.014107
      dz2     :    -0.001610  d :    -0.000704
      dxz     :     0.002394
      dyz     :     0.000367
      dx2y2   :    -0.002632
      dxy     :     0.000777
      f0      :     0.001095  f :     0.008302
      f+1     :     0.000839
      f-1     :     0.000272
      f+2     :     0.001059
      f-2     :     0.000766
      f+3     :     0.002450
      f-3     :     0.001821

  5 H s       :     0.876506  s :     0.876506
      pz      :     0.009767  p :     0.022898
      px      :     0.005585
      py      :     0.007545

  6 H s       :     0.864329  s :     0.864329
      pz      :     0.005303  p :     0.023204
      px      :     0.008813
      py      :     0.009087

  7 H s       :     0.876528  s :     0.876528
      pz      :     0.009766  p :     0.022898
      px      :     0.005585
      py      :     0.007547

  8 H s       :     0.883138  s :     0.883138
      pz      :     0.009771  p :     0.023169
      px      :     0.005299
      py      :     0.008099

  9 H s       :     0.883250  s :     0.883250
      pz      :     0.009770  p :     0.023169
      px      :     0.005299
      py      :     0.008100

 10 H s       :     0.865466  s :     0.865466
      pz      :     0.010016  p :     0.023351
      px      :     0.005065
      py      :     0.008270

 11 H s       :     0.865128  s :     0.865128
      pz      :     0.010014  p :     0.023351
      px      :     0.005068
      py      :     0.008269

 12 H s       :     0.792538  s :     0.792538
      pz      :     0.004963  p :     0.023768
      px      :     0.012841
      py      :     0.005965



                     *******************************
                     * LOEWDIN POPULATION ANALYSIS *
                     *******************************

----------------------
LOEWDIN ATOMIC CHARGES
----------------------
   0 C :   -0.309379
   1 C :   -0.272166
   2 C :   -0.245709
   3 C :   -0.122398
   4 C :   -0.115461
   5 H :    0.118228
   6 H :    0.120290
   7 H :    0.118230
   8 H :    0.136752
   9 H :    0.136742
  10 H :    0.155088
  11 H :    0.155058
  12 H :    0.124726

-------------------------------
LOEWDIN REDUCED ORBITAL CHARGES
-------------------------------
  0 C s       :     2.839888  s :     2.839888
      pz      :     1.070374  p :     3.181156
      px      :     1.041021
      py      :     1.069761
      dz2     :     0.035015  d :     0.263486
      dxz     :     0.047282
      dyz     :     0.057180
      dx2y2   :     0.043735
      dxy     :     0.080274
      f0      :     0.002231  f :     0.024849
      f+1     :     0.002978
      f-1     :     0.003445
      f+2     :     0.004509
      f-2     :     0.001825
      f+3     :     0.006055
      f-3     :     0.003806

  1 C s       :     2.789987  s :     2.789987
      pz      :     1.033340  p :     3.043513
      px      :     0.999844
      py      :     1.010330
      dz2     :     0.043388  d :     0.400060
      dxz     :     0.059415
      dyz     :     0.103158
      dx2y2   :     0.096102
      dxy     :     0.097998
      f0      :     0.004066  f :     0.038605
      f+1     :     0.003376
      f-1     :     0.004172
      f+2     :     0.004575
      f-2     :     0.005497
      f+3     :     0.009059
      f-3     :     0.007860

  2 C s       :     2.772859  s :     2.772859
      pz      :     1.016941  p :     3.031355
      px      :     1.000952
      py      :     1.013462
      dz2     :     0.041680  d :     0.402223
      dxz     :     0.059410
      dyz     :     0.102588
      dx2y2   :     0.104090
      dxy     :     0.094455
      f0      :     0.003887  f :     0.039273
      f+1     :     0.003699
      f-1     :     0.004371
      f+2     :     0.004840
      f-2     :     0.005295
      f+3     :     0.008627
      f-3     :     0.008554

  3 C s       :     2.814976  s :     2.814976
      pz      :     0.881907  p :     2.912597
      px      :     1.116737
      py      :     0.913952
      dz2     :     0.024843  d :     0.348118
      dxz     :     0.106807
      dyz     :     0.019399
      dx2y2   :     0.091684
      dxy     :     0.105386
      f0      :     0.004694  f :     0.046707
      f+1     :     0.007117
      f-1     :     0.001605
      f+2     :     0.004503
      f-2     :     0.003519
      f+3     :     0.012060
      f-3     :     0.013209

  4 C s       :     2.896437  s :     2.896437
      pz      :     0.967480  p :     3.052274
      px      :     1.104041
      py      :     0.980753
      dz2     :     0.016012  d :     0.128468
      dxz     :     0.028172
      dyz     :     0.003892
      dx2y2   :     0.041261
      dxy     :     0.039132
      f0      :     0.003652  f :     0.038281
      f+1     :     0.006243
      f-1     :     0.001390
      f+2     :     0.003492
      f-2     :     0.002595
      f+3     :     0.009852
      f-3     :     0.011059

  5 H s       :     0.819191  s :     0.819191
      pz      :     0.027979  p :     0.062581
      px      :     0.013910
      py      :     0.020693

  6 H s       :     0.816881  s :     0.816881
      pz      :     0.014147  p :     0.062829
      px      :     0.022288
      py      :     0.026395

  7 H s       :     0.819189  s :     0.819189
      pz      :     0.027973  p :     0.062582
      px      :     0.013910
      py      :     0.020699

  8 H s       :     0.802681  s :     0.802681
      pz      :     0.027347  p :     0.060566
      px      :     0.013240
      py      :     0.019979

  9 H s       :     0.802692  s :     0.802692
      pz      :     0.027345  p :     0.060566
      px      :     0.013240
      py      :     0.019981

 10 H s       :     0.785331  s :     0.785331
      pz      :     0.027454  p :     0.059581
      px      :     0.012149
      py      :     0.019978

 11 H s       :     0.785365  s :     0.785365
      pz      :     0.027450  p :     0.059577
      px      :     0.012149
      py      :     0.019978

 12 H s       :     0.803971  s :     0.803971
      pz      :     0.014926  p :     0.071303
      px      :     0.038546
      py      :     0.017831



                      *****************************
                      * MAYER POPULATION ANALYSIS *
                      *****************************

  NA   - Mulliken gross atomic population
  ZA   - Total nuclear charge
  QA   - Mulliken gross atomic charge
  VA   - Mayer's total valence
  BVA  - Mayer's bonded valence
  FA   - Mayer's free valence

  ATOM       NA         ZA         QA         VA         BVA        FA
  0 C      6.3238     6.0000    -0.3238     3.9077     3.9077     0.0000
  1 C      6.1156     6.0000    -0.1156     3.8594     3.8594    -0.0000
  2 C      6.3631     6.0000    -0.3631     3.9859     3.9859     0.0000
  3 C      6.0932     6.0000    -0.0932     3.9786     3.9786    -0.0000
  4 C      6.0115     6.0000    -0.0115     3.5957     3.5957     0.0000
  5 H      0.8994     1.0000     0.1006     0.9807     0.9807     0.0000
  6 H      0.8875     1.0000     0.1125     0.9796     0.9796     0.0000
  7 H      0.8994     1.0000     0.1006     0.9807     0.9807    -0.0000
  8 H      0.9063     1.0000     0.0937     0.9814     0.9814    -0.0000
  9 H      0.9064     1.0000     0.0936     0.9815     0.9815    -0.0000
 10 H      0.8888     1.0000     0.1112     0.9645     0.9645     0.0000
 11 H      0.8885     1.0000     0.1115     0.9645     0.9645     0.0000
 12 H      0.8163     1.0000     0.1837     0.9738     0.9738     0.0000

  Mayer bond orders larger than 0.100000
B(  0-C ,  1-C ) :   0.9662 B(  0-C ,  5-H ) :   0.9745 B(  0-C ,  6-H ) :   0.9771 
B(  0-C ,  7-H ) :   0.9744 B(  1-C ,  2-C ) :   0.9765 B(  1-C ,  8-H ) :   0.9664 
B(  1-C ,  9-H ) :   0.9666 B(  2-C ,  3-C ) :   1.2543 B(  2-C ,  4-C ) :  -0.1501 
B(  2-C , 10-H ) :   0.9466 B(  2-C , 11-H ) :   0.9485 B(  3-C ,  4-C ) :   2.7300 
B(  4-C , 12-H ) :   0.9385 

-------
TIMINGS
-------

Total SCF time: 0 days 0 hours 0 min 17 sec 

Total time                  ....      17.539 sec
Sum of individual times     ....      17.123 sec  ( 97.6%)

SCF preparation             ....       0.185 sec  (  1.1%)
Fock matrix formation       ....      16.107 sec  ( 91.8%)
  Startup                   ....       0.057 sec  (  0.4% of F)
  Split-RI-J                ....       1.509 sec  (  9.4% of F)
  XC integration            ....      14.003 sec  ( 86.9% of F)
    Basis function eval.    ....       2.259 sec  ( 16.1% of XC)
    Density eval.           ....       3.995 sec  ( 28.5% of XC)
    XC-Functional eval.     ....       1.567 sec  ( 11.2% of XC)
    XC-Potential eval.      ....       5.458 sec  ( 39.0% of XC)
Diagonalization             ....       0.000 sec  (  0.0%)
Density matrix formation    ....       0.210 sec  (  1.2%)
Total Energy calculation    ....       0.030 sec  (  0.2%)
Population analysis         ....       0.037 sec  (  0.2%)
Orbital Transformation      ....       0.061 sec  (  0.3%)
Orbital Orthonormalization  ....       0.000 sec  (  0.0%)
DIIS solution               ....       0.311 sec  (  1.8%)
SOSCF solution              ....       0.182 sec  (  1.0%)
Finished LeanSCF after  17.6 sec

Maximum memory used throughout the entire LEANSCF-calculation: 19.1 MB

------------------------------------------------------------------------------
                         ORCA PROPERTY INTEGRAL CALCULATIONS
------------------------------------------------------------------------------

GBWName                                   ... vacuum_censo.gbw
Number of atoms                           ...     13
Number of basis functions                 ...    203
Max core memory                           ...   1024 MB

Dipole integrals                          ... YES
Quadrupole integrals                      ...  NO
Linear momentum integrals                 ...  NO
Angular momentum integrals                ...  NO
Higher moments length integrals           ...  NO
Higher moments velocity integrals         ...  NO
Kinetic energy integrals                  ...  NO
GIAO right hand sides                     ...  NO
GIAO dipole derivative integrals          ...  NO
SOC integrals                             ...  NO
EPR diamagnetic integrals (GIAO)          ...  NO
EPR gauge integrals                       ...  NO
Field gradient integrals                  ...  NO (   0 nuclei)
Spin-dipole/Fermi contact integrals       ...  NO (   0 nuclei)
Contact density integrals                 ...  NO (   0 nuclei)
Nucleus-orbit integrals                   ...  NO (   0 nuclei)
Geometric perturbations                   ... YES (  13 nuclei)

Choice of electric origin   ... Center of mass
Position of electric origin ... (  0.0102,  0.0015, -0.0005) 
Choice of magnetic origin   ... GIAO
Position of magnetic origin ... (  0.0000,  0.0000,  0.0000) 

Calculating integrals                     ... Electric Dipole (Length)     done (  0.1 sec)
Calculating integrals                     ... Geometrical perturbation right hand sides

-----------------------
GEOMETRIC PERTURBATIONS (13 nuclei)
-----------------------

MaxCore                            ...   1024 MB
Number of batches                  ...      1

BATCH   0: Atoms    0 -   12 ( 39 perturbations)
   => H(core) and overlap derivative integrals     ... done (     0.2 sec)
   => Making and storing internal U-coefficients   ... done (     0.3 sec)
   => RI-J derivative integrals                    ... done (     1.8 sec)
   => RI-J response operators                      ... done (     0.4 sec)
   => XC derivative integrals                      ... done (   104.9 sec)
   => XC response operators                        ... done (    31.3 sec)
   => Completing and storing right hand sides      ... done (     0.3 sec)
   => Total time for right hand sides = 141.1 sec

  geometrical perturbations done (141.2 sec)

Property integrals calculated in 141.2 sec

Maximum memory used throughout the entire PROPINT-calculation: 79.7 MB


-------------------------------------------------------------------------------
                          DFT DISPERSION CORRECTION                            
                                                                               
                                DFTD4 V3.4.0                                   
-------------------------------------------------------------------------------
The R2SCAN3C composite method is recognized
Using three-body term ABC
Active option DFTDOPT                   ...         5   

-------------------------   ----------------
Dispersion correction           -0.002654003
-------------------------   ----------------

------------------   -----------------
gCP correction             0.004623243
------------------   -----------------

-------------------------   --------------------
FINAL SINGLE POINT ENERGY      -195.223935568474
-------------------------   --------------------

------------------------------------------------------------------------------
                            ORCA SCF RESPONSE CALCULATION
------------------------------------------------------------------------------

GBWName                                 ... vacuum_censo.gbw
Number of atoms                         ...     13
Number of basis functions               ...    203
Max core memory                         ...   1024 MB

Electric field perturbation             ...  NO
Quadrupolar field perturbation          ...  NO
Magnetic field perturbation (no GIAO)   ...  NO
Magnetic field perturbation (with GIAO) ...  NO
Linear momentum (velocity) perturbation ...  NO
Spin-orbit coupling perturbation        ...  NO
Choice of electric origin               ... Center of mass
Position of electric origin             ...     0.010164     0.001472    -0.000465
Choice of magnetic origin               ... GIAO
Position of magnetic origin             ...     0.000000     0.000000     0.000000
Nuclear geometric perturbations         ... YES (  39 perturbations)
Nucleus-orbit perturbations             ...  NO (   0 perturbations)
Spin-dipole/Fermi contact perturbations ...  NO (   0 perturbations)

Total number of real perturbations      ...     39
Total number of imaginary perturbations ...      0
Total number of triplet perturbations   ...      0
Total number of SOC perturbations       ...      0


                                **********************
                                * REAL PERTURBATIONS *
                                **********************



-------------------
SHARK CP-SCF DRIVER
-------------------

Dimension of the orbital basis          ...    203
Dimension of the CPSCF-problem          ...   3496
Number of operators                     ...      1
Max. number of iterations               ...    128
Convergence Tolerance                   ... 1.0e-03
Number of perturbations                 ...     39
Perturbation type                       ... REAL

----------------------------
POPLE LINEAR EQUATION SOLVER
----------------------------

  ITERATION   0:   ||err||_max =   4.6465e-01 (   9.5 sec   0/ 39 done)
  ITERATION   1:   ||err||_max =   7.7456e-02 (   9.1 sec   0/ 39 done)
  ITERATION   2:   ||err||_max =   1.6080e-02 (   9.2 sec   1/ 39 done)
  ITERATION   3:   ||err||_max =   3.8927e-03 (  10.5 sec  14/ 39 done)
  ITERATION   4:   ||err||_max =   1.0373e-03 (   8.1 sec  38/ 39 done)
  ITERATION   5:   ||err||_max =   3.1659e-04 (   0.5 sec  39/ 39 done)

CP-SCF equations solved in  48.9 sec
Response densities calculated in   0.1 sec

Maximum memory used throughout the entire SCFRESP-calculation: 42.8 MB

------------------------------------------------------------------------------
                              ORCA PROPERTY CALCULATIONS
------------------------------------------------------------------------------

GBWName                                 ... vacuum_censo.gbw
Number of atoms                         ...     13
Number of basis functions               ...    203
Max core memory                         ...   1024 MB

Electric properties:
Dipole moment                           ... YES
Quadrupole moment                       ...  NO
Static polarizability (Dipole/Dipole)   ...  NO
Static polarizability (Dipole/Quad.)    ...  NO
Static polarizability (Quad./Quad.)     ...  NO
Static polarizability (Velocity)        ...  NO

Atomic electric properties:
Dipole moment                           ...  NO
Quadrupole moment                       ...  NO
Static polarizability                   ...  NO

Choice of electric origin               ... Center of mass
Position of electric origin             ...     0.010164     0.001472    -0.000465

General magnetic properties:
Magnetizability                         ...  NO

EPR properties:
g-Tensor (aka g-matrix)                 ...  NO
Zero-Field splitting spin-orbit         ...  NO
Zero-field splitting spin-spin          ...  NO
Hyperfine couplings                     ...  NO (   0 nuclei)
Quadrupole couplings                    ...  NO (   0 nuclei)
Contact density                         ...  NO (   0 nuclei)

NMR properties:
Chemical shifts                         ...  NO (   0 nuclei)
Spin-rotation constants                 ...  NO (   0 nuclei)
Spin-spin couplings                     ...  NO (   0 nuclei,    0 pairs)

Choice of magnetic origin               ... GIAO
Position of magnetic origin             ...     0.000000     0.000000     0.000000

Properties with geometric perturbations:
SCF Hessian                             ... YES
IR spectrum                             ... YES
VCD spectrum                            ...  NO
X-ray spectroscopy properties:
SCF XES/XAS/RIXS spectra                ...  NO


-------------
DIPOLE MOMENT
-------------

Method             : SCF
Type of density    : Electron Density
Multiplicity       :   1
Irrep              :   0
Energy             :  -195.2259048082474919 Eh
Relativity type    : 
Basis              : AO
                                X                 Y                 Z
Electronic contribution:      5.950753836      -0.045094843      -0.001671942
Nuclear contribution   :     -6.322647204       0.014117717       0.003321349
                        -----------------------------------------
Total Dipole Moment    :     -0.371893368      -0.030977126       0.001649407
                        -----------------------------------------
Magnitude (a.u.)       :      0.373184914
Magnitude (Debye)      :      0.948560667



--------------------
Rotational spectrum 
--------------------
 
Rotational constants in cm-1:             0.781046             0.074591             0.070771 
Rotational constants in MHz :         23415.178394          2236.194086          2121.650618 

Dipole components along the rotational axes: 
x,y,z [a.u.] :    -0.371850     0.031502     0.001532 
x,y,z [Debye]:    -0.945167     0.080072     0.003895 

 

Dipole moment calculation done in   0.0 sec 

-----------
SCF HESSIAN
-----------

Occupied/Occupied contributions to the Hessian:
   => Occupied/Occupied contributions              ... done (  0.0 sec)
Perturbed density contributions to the Hessian:
   => Perturbed density contributions              ... done (  0.0 sec)
Explicit contributions to the Hessian:
   => Nuclear repulsion Hessian                    ... done (  0.0 sec)
   => HCore and overlap Hessian                    ... done (  4.9 sec)
   => RI-J Hessian                                 ... done (  4.4 sec)
   => XC-Hessian                                   ... done ( 40.3 sec)
   => Van der Waals-Hessian                        ... done (  2.2 sec)
   => GCP-Hessian                                  ... done (  0.0 sec)
   => Explicit contributions done
Dipole derivatives                                 ... done (  0.1 sec)
Mass weighting the Hessian           ... done
Calculating normal modes             ... done
Scaling frequencies                  ... done

-----------------------
VIBRATIONAL FREQUENCIES
-----------------------

Scaling factor for frequencies =  1.000000000  (already applied!)

     0:       0.00 cm**-1
     1:       0.00 cm**-1
     2:       0.00 cm**-1
     3:       0.00 cm**-1
     4:       0.00 cm**-1
     5:       0.00 cm**-1
     6:      98.78 cm**-1
     7:     147.64 cm**-1
     8:     251.90 cm**-1
     9:     339.34 cm**-1
    10:     346.15 cm**-1
    11:     503.09 cm**-1
    12:     636.44 cm**-1
    13:     642.81 cm**-1
    14:     749.08 cm**-1
    15:     873.81 cm**-1
    16:     877.53 cm**-1
    17:     972.50 cm**-1
    18:    1041.39 cm**-1
    19:    1106.13 cm**-1
    20:    1119.36 cm**-1
    21:    1255.96 cm**-1
    22:    1296.13 cm**-1
    23:    1321.65 cm**-1
    24:    1368.15 cm**-1
    25:    1403.59 cm**-1
    26:    1461.38 cm**-1
    27:    1485.47 cm**-1
    28:    1493.16 cm**-1
    29:    1499.54 cm**-1
    30:    2198.64 cm**-1
    31:    2993.93 cm**-1
    32:    3005.42 cm**-1
    33:    3024.18 cm**-1
    34:    3028.15 cm**-1
    35:    3060.92 cm**-1
    36:    3086.86 cm**-1
    37:    3090.31 cm**-1
    38:    3479.86 cm**-1


------------
NORMAL MODES
------------

These modes are the Cartesian displacements weighted by the diagonal matrix
M(i,i)=1/sqrt(m[i]) where m[i] is the mass of the displaced atom
Thus, these vectors are normalized but *not* orthogonal

                  0          1          2          3          4          5    
      0       0.000000   0.000000   0.000000   0.000000   0.000000   0.000000
      1       0.000000   0.000000   0.000000   0.000000   0.000000   0.000000
      2       0.000000   0.000000   0.000000   0.000000   0.000000   0.000000
      3       0.000000   0.000000   0.000000   0.000000   0.000000   0.000000
      4       0.000000   0.000000   0.000000   0.000000   0.000000   0.000000
      5       0.000000   0.000000   0.000000   0.000000   0.000000   0.000000
      6       0.000000   0.000000   0.000000   0.000000   0.000000   0.000000
      7       0.000000   0.000000   0.000000   0.000000   0.000000   0.000000
      8       0.000000   0.000000   0.000000   0.000000   0.000000   0.000000
      9       0.000000   0.000000   0.000000   0.000000   0.000000   0.000000
     10       0.000000   0.000000   0.000000   0.000000   0.000000   0.000000
     11       0.000000   0.000000   0.000000   0.000000   0.000000   0.000000
     12       0.000000   0.000000   0.000000   0.000000   0.000000   0.000000
     13       0.000000   0.000000   0.000000   0.000000   0.000000   0.000000
     14       0.000000   0.000000   0.000000   0.000000   0.000000   0.000000
     15       0.000000   0.000000   0.000000   0.000000   0.000000   0.000000
     16       0.000000   0.000000   0.000000   0.000000   0.000000   0.000000
     17       0.000000   0.000000   0.000000   0.000000   0.000000   0.000000
     18       0.000000   0.000000   0.000000   0.000000   0.000000   0.000000
     19       0.000000   0.000000   0.000000   0.000000   0.000000   0.000000
     20       0.000000   0.000000   0.000000   0.000000   0.000000   0.000000
     21       0.000000   0.000000   0.000000   0.000000   0.000000   0.000000
     22       0.000000   0.000000   0.000000   0.000000   0.000000   0.000000
     23       0.000000   0.000000   0.000000   0.000000   0.000000   0.000000
     24       0.000000   0.000000   0.000000   0.000000   0.000000   0.000000
     25       0.000000   0.000000   0.000000   0.000000   0.000000   0.000000
     26       0.000000   0.000000   0.000000   0.000000   0.000000   0.000000
     27       0.000000   0.000000   0.000000   0.000000   0.000000   0.000000
     28       0.000000   0.000000   0.000000   0.000000   0.000000   0.000000
     29       0.000000   0.000000   0.000000   0.000000   0.000000   0.000000
     30       0.000000   0.000000   0.000000   0.000000   0.000000   0.000000
     31       0.000000   0.000000   0.000000   0.000000   0.000000   0.000000
     32       0.000000   0.000000   0.000000   0.000000   0.000000   0.000000
     33       0.000000   0.000000   0.000000   0.000000   0.000000   0.000000
     34       0.000000   0.000000   0.000000   0.000000   0.000000   0.000000
     35       0.000000   0.000000   0.000000   0.000000   0.000000   0.000000
     36       0.000000   0.000000   0.000000   0.000000   0.000000   0.000000
     37       0.000000   0.000000   0.000000   0.000000   0.000000   0.000000
     38       0.000000   0.000000   0.000000   0.000000   0.000000   0.000000
                  6          7          8          9         10         11    
      0       0.000176  -0.040007  -0.000009  -0.003250  -0.208618   0.226721
      1       0.000325  -0.168046   0.000002   0.001878   0.112102   0.020317
      2      -0.189005  -0.000569   0.014756  -0.025541   0.000309   0.000002
      3       0.000333  -0.128702  -0.000004  -0.001103  -0.073165   0.165804
      4      -0.000149   0.096676  -0.000013  -0.003086  -0.195811  -0.106831
      5       0.169174   0.000783  -0.071769   0.068213  -0.000851   0.000148
      6       0.000047  -0.003168  -0.000002   0.001383   0.102130  -0.047863
      7      -0.000410   0.214108  -0.000002  -0.001357  -0.070078  -0.114343
      8       0.170450   0.000398   0.033343   0.080814  -0.001125  -0.000165
      9       0.000069   0.020390  -0.000005   0.000676   0.060099  -0.328064
     10      -0.000336   0.151367   0.000015   0.002335   0.169083   0.425238
     11       0.039240  -0.000287  -0.000932  -0.381756   0.005519  -0.000255
     12      -0.000707   0.168485   0.000025   0.002650   0.137521  -0.136067
     13       0.000450  -0.244448  -0.000000   0.000097  -0.022977  -0.153778
     14      -0.173942  -0.000356   0.014286   0.167394  -0.002504   0.000242
     15      -0.156976   0.082815   0.217529  -0.096157  -0.426603   0.232822
     16      -0.201244  -0.210322  -0.422556   0.032195   0.192951   0.011884
     17      -0.363894  -0.002249  -0.228569  -0.025195   0.006581  -0.003207
     18       0.000495  -0.204334  -0.000030   0.001306   0.079126   0.225605
     19       0.000615  -0.311451   0.000095   0.005864   0.365269   0.016723
     20      -0.127960  -0.000195   0.589738  -0.126803   0.001788   0.000152
     21       0.156863   0.083976  -0.217534   0.082718  -0.429083   0.232871
     22       0.202005  -0.208537   0.422499  -0.025882   0.193954   0.012254
     23      -0.363945  -0.000363  -0.228723  -0.025374  -0.006151   0.002946
     24       0.159994  -0.235828  -0.022078   0.028017  -0.051289   0.285967
     25       0.133888   0.123171  -0.067124   0.004654  -0.179466  -0.134100
     26       0.298092  -0.002001  -0.124257   0.079883   0.012933   0.003794
     27      -0.158914  -0.236866   0.022070  -0.029251  -0.050579   0.285970
     28      -0.134282   0.121726   0.067091  -0.010418  -0.179432  -0.134591
     29       0.298097   0.004804  -0.124265   0.079467  -0.014814  -0.003132
     30      -0.048992   0.021867   0.000007  -0.307430   0.254149   0.108569
     31      -0.031437   0.199373  -0.107905  -0.289822  -0.099386  -0.113286
     32       0.201304   0.004842   0.111504   0.350584  -0.008817  -0.028734
     33       0.048935   0.022698  -0.000033   0.314292   0.245190   0.108787
     34       0.030697   0.199355   0.107886   0.286128  -0.108059  -0.113563
     35       0.201342  -0.003892   0.111505   0.350836  -0.001430   0.028314
     36      -0.000418   0.263132   0.000021   0.002258   0.164999  -0.057038
     37       0.001195  -0.505011  -0.000015  -0.001127  -0.094300  -0.386610
     38      -0.332697  -0.000583   0.015980   0.399435  -0.006160   0.000198
                 12         13         14         15         16         17    
      0      -0.000002  -0.002192  -0.000018  -0.000099   0.108305  -0.168486
      1      -0.000002   0.001135  -0.000008   0.000047  -0.064153  -0.029757
      2       0.000795   0.000017  -0.011678   0.059785   0.000087   0.000007
      3       0.000012  -0.004248   0.000009  -0.000006   0.016829   0.121127
      4      -0.000088   0.011600  -0.000002   0.000111  -0.146931   0.088043
      5       0.002594   0.000147  -0.067666   0.031529   0.000046  -0.000010
      6       0.000185  -0.001560   0.000013   0.000015   0.009194   0.327103
      7       0.000149  -0.001384   0.000003  -0.000164   0.217480   0.094289
      8       0.004227   0.000016  -0.053454  -0.112344  -0.000158  -0.000022
      9       0.000053  -0.010821   0.000018   0.000044  -0.026717  -0.114317
     10      -0.000162   0.035776   0.000044   0.000094  -0.062523  -0.070867
     11       0.038630   0.000034   0.034475   0.053950  -0.000077  -0.000432
     12      -0.000182   0.049047   0.000009   0.000043  -0.068061  -0.211759
     13       0.000542  -0.126334  -0.000095  -0.000068  -0.021867  -0.077902
     14      -0.134739  -0.000542  -0.000913  -0.002723   0.000185   0.000533
     15      -0.003284   0.007426   0.203597  -0.371495  -0.276955  -0.109686
     16       0.000257  -0.002811   0.117939  -0.165095   0.123431  -0.066505
     17       0.000314  -0.000676   0.118469  -0.144654   0.039808  -0.012045
     18       0.000161  -0.014481  -0.000013  -0.000433   0.625689  -0.279596
     19       0.000138  -0.009611   0.000016  -0.000296   0.390141  -0.122917
     20      -0.002174   0.000210   0.091858  -0.211586  -0.000289  -0.000024
     21       0.003039   0.007502  -0.203670   0.371827  -0.276066  -0.109571
     22      -0.000152  -0.002340  -0.117907   0.164881   0.123797  -0.066447
     23       0.000297   0.000365   0.118486  -0.144620  -0.040202   0.012010
     24       0.000940  -0.006458   0.085419  -0.350970  -0.196060   0.140381
     25       0.003255   0.011075   0.444325  -0.018834  -0.069166   0.093623
     26       0.005360  -0.000720   0.274561  -0.055974   0.010029   0.005723
     27      -0.000929  -0.006588  -0.085475   0.351235  -0.195185   0.140488
     28      -0.003391   0.011078  -0.444278   0.018950  -0.069082   0.093534
     29       0.005331   0.001038   0.274630  -0.055940  -0.010211  -0.005702
     30      -0.007373  -0.006229   0.062369   0.004440  -0.027109   0.506494
     31      -0.029728   0.003151  -0.325923  -0.359109   0.192618   0.043697
     32       0.028597  -0.001623   0.175235   0.155008   0.020444   0.000607
     33       0.008411  -0.006430  -0.062500  -0.004611  -0.027087   0.506423
     34       0.029559   0.002125   0.325914   0.358797   0.193562   0.043866
     35       0.028458   0.000850   0.175218   0.155029  -0.020058  -0.000442
     36      -0.001752  -0.334916  -0.000093   0.000045  -0.098474  -0.242874
     37      -0.005179   0.931143   0.000613   0.000467   0.044042  -0.064197
     38       0.988272   0.004481  -0.045993  -0.057081  -0.000511  -0.001027
                 18         19         20         21         22         23    
      0       0.182335  -0.012623   0.000012  -0.000014   0.011052   0.000002
      1       0.107131   0.143362   0.000146   0.000046  -0.066401  -0.000028
      2       0.000028   0.000071  -0.075670   0.101954   0.000075  -0.050858
      3      -0.287078  -0.028511  -0.000085   0.000020  -0.063597  -0.000007
      4       0.017741  -0.199917  -0.000167  -0.000052   0.069109   0.000021
      5      -0.000059  -0.000112   0.109889  -0.118892  -0.000037  -0.026631
      6       0.140203  -0.051437   0.000095   0.000110  -0.128907  -0.000049
      7      -0.074705   0.166956   0.000135   0.000003   0.035213   0.000027
      8       0.000037   0.000132  -0.130315   0.003753  -0.000083   0.053962
      9      -0.019861   0.014057   0.000019   0.000008   0.011039   0.000018
     10      -0.032158  -0.044612  -0.000007   0.000020  -0.025124  -0.000008
     11      -0.000132  -0.000118   0.076657   0.038649   0.000050   0.018197
     12      -0.052491  -0.008312  -0.000075  -0.000047   0.016763  -0.000018
     13      -0.018304   0.000013  -0.000087  -0.000029   0.006883  -0.000009
     14       0.000155   0.000051  -0.004303  -0.002265   0.000009  -0.001725
     15       0.283305   0.404721   0.240878  -0.220372  -0.072739   0.113584
     16       0.080329  -0.111285   0.132063  -0.167987   0.074950   0.070293
     17       0.000834  -0.075385   0.077891  -0.075878   0.069240   0.022152
     18       0.104946  -0.461226  -0.000440  -0.000095   0.202220   0.000057
     19       0.039110  -0.265513  -0.000219  -0.000085   0.103703   0.000041
     20      -0.000075  -0.000179   0.156129  -0.207931  -0.000124   0.055436
     21       0.283546   0.405321  -0.240038   0.220488  -0.072477  -0.113638
     22       0.080427  -0.110946  -0.132233   0.167909   0.075126  -0.070249
     23      -0.000890   0.075268   0.078064  -0.075865  -0.069345   0.022127
     24      -0.430151   0.224375   0.149633   0.313020   0.368714  -0.539348
     25       0.056324  -0.233546  -0.300881   0.153744  -0.057619   0.200578
     26      -0.000577   0.027320  -0.081481   0.055356  -0.003951   0.007654
     27      -0.429919   0.224789  -0.149509  -0.313283   0.367805   0.539586
     28       0.055979  -0.234262   0.300532  -0.153711  -0.057477  -0.200587
     29       0.000647  -0.027079  -0.081599   0.055338   0.004008   0.007715
     30       0.343406   0.130731  -0.476134  -0.489636   0.511263  -0.334315
     31      -0.142898   0.065941  -0.170643   0.135634  -0.199148   0.182837
     32       0.006156   0.030915   0.095776  -0.002480   0.040945  -0.012570
     33       0.343084   0.129550   0.476087   0.488974   0.511830   0.334736
     34      -0.142864   0.065674   0.170737  -0.135418  -0.198986  -0.182990
     35      -0.006039  -0.031019   0.095857  -0.002306  -0.040648  -0.012498
     36      -0.058615  -0.023671  -0.000063  -0.000008   0.014232  -0.000016
     37      -0.022888   0.039853   0.000404   0.000059   0.024951   0.000032
     38      -0.000403  -0.000129  -0.057737  -0.022652  -0.000289  -0.005960
                 24         25         26         27         28         29    
      0       0.018977  -0.134063   0.003158  -0.005574  -0.000001  -0.010961
      1      -0.033755  -0.040219  -0.005460   0.024861   0.000001   0.039774
      2      -0.000008  -0.000002   0.000000  -0.000009   0.046436   0.000006
      3      -0.155428   0.017954  -0.004878  -0.031101  -0.000007  -0.002498
      4       0.020868  -0.000701  -0.010839  -0.045124  -0.000017   0.064637
      5      -0.000007   0.000001   0.000002  -0.000003   0.023375  -0.000001
      6       0.117869   0.006476   0.040573  -0.004342  -0.000003   0.011517
      7      -0.007785  -0.004057   0.068098  -0.014780  -0.000009   0.013048
      8       0.000032   0.000004   0.000023   0.000001  -0.001917   0.000003
      9      -0.005806  -0.001238  -0.003390   0.000519   0.000000  -0.001564
     10       0.007622   0.003123   0.011666  -0.000852  -0.000001   0.002597
     11      -0.000021  -0.000003  -0.000016   0.000002  -0.002018  -0.000001
     12      -0.011432  -0.000461  -0.001726   0.001300   0.000002  -0.000434
     13      -0.005564  -0.000207  -0.001795   0.000524  -0.000000  -0.000487
     14       0.000003  -0.000001   0.000016  -0.000004   0.000105   0.000003
     15      -0.013491   0.537177  -0.013570  -0.021888   0.435760  -0.022062
     16       0.080927   0.035511   0.047709  -0.322079  -0.242829  -0.413542
     17       0.067126   0.183720   0.032182  -0.235031  -0.046723  -0.305101
     18       0.103016   0.402967  -0.032243   0.176763   0.000007   0.216137
     19       0.041285   0.404081  -0.034764   0.163367  -0.000133   0.218600
     20       0.000042  -0.000035  -0.000025   0.000066  -0.698910  -0.000194
     21      -0.013511   0.537194  -0.013612  -0.021805  -0.435740  -0.022297
     22       0.080859   0.035443   0.047716  -0.322058   0.242934  -0.413321
     23      -0.067140  -0.183677  -0.032203   0.235134  -0.046928   0.305195
     24       0.528409  -0.044172   0.036107   0.148409  -0.042364  -0.027111
     25      -0.166973   0.023217   0.101198   0.410170  -0.026148  -0.314300
     26       0.003065   0.001334   0.082415   0.339921  -0.000624  -0.262939
     27       0.528600  -0.044157   0.036138   0.148407   0.042424  -0.027107
     28      -0.167037   0.023211   0.101174   0.410107   0.026379  -0.314252
     29      -0.002993  -0.001337  -0.082419  -0.339962  -0.000822   0.262978
     30      -0.346570  -0.031321  -0.206785   0.017778   0.027319  -0.035225
     31       0.181753  -0.008690  -0.496158   0.040556  -0.009961  -0.092996
     32      -0.043383   0.007136   0.429760  -0.043073   0.003195   0.081066
     33      -0.346830  -0.031355  -0.206792   0.017760  -0.027295  -0.035219
     34       0.181714  -0.008698  -0.496202   0.040564   0.010064  -0.093006
     35       0.043203  -0.007154  -0.429919   0.043089   0.003274  -0.081096
     36      -0.012795   0.000264  -0.001254   0.001659  -0.000005  -0.000163
     37      -0.010732  -0.002891  -0.005498   0.000835   0.000006  -0.001925
     38       0.000105   0.000016  -0.000099   0.000011   0.001326  -0.000022
                 30         31         32         33         34         35    
      0      -0.001067   0.003322   0.042447   0.008182   0.000002  -0.000000
      1       0.001512   0.001396   0.026210  -0.007633  -0.000003   0.000006
      2       0.000004  -0.000000  -0.000004   0.000003  -0.006445   0.061162
      3       0.007093   0.002893  -0.002809   0.017986   0.000001   0.000001
      4      -0.002962   0.011179  -0.006964   0.063583   0.000010  -0.000009
      5      -0.000007  -0.000009   0.000002  -0.000013   0.029342  -0.064136
      6       0.076348  -0.017116   0.000634   0.003426   0.000006   0.000003
      7       0.028135  -0.063602   0.003588   0.012366  -0.000031  -0.000005
      8       0.000090   0.000037  -0.000001   0.000001  -0.086658  -0.027327
      9      -0.513316  -0.001911   0.000032   0.000710   0.000006   0.000002
     10      -0.187849  -0.001068  -0.000168   0.000522   0.000003   0.000001
     11       0.000716   0.000003   0.000000  -0.000001  -0.001028  -0.000191
     12       0.368547   0.000819  -0.000013  -0.000438  -0.000002  -0.000001
     13       0.136751   0.000279  -0.000007  -0.000257  -0.000001  -0.000000
     14      -0.000853  -0.000004  -0.000001   0.000003   0.000017   0.000022
     15       0.001650  -0.004462  -0.099938  -0.002333  -0.010461   0.079455
     16       0.000891  -0.024318  -0.339954  -0.014871  -0.030134   0.268175
     17      -0.000589   0.035149   0.503557   0.016961   0.041640  -0.375329
     18      -0.006819  -0.025320  -0.300752  -0.095188  -0.000013  -0.000030
     19      -0.004145   0.034584   0.366083   0.118193   0.000017   0.000036
     20      -0.000006  -0.000007  -0.000069  -0.000022  -0.000698   0.017048
     21       0.001636  -0.004462  -0.099888  -0.002333   0.010458  -0.079421
     22       0.000884  -0.024332  -0.340091  -0.014888   0.030144  -0.268289
     23       0.000607  -0.035147  -0.503441  -0.016973   0.041629  -0.375253
     24      -0.012547  -0.019820   0.013911  -0.106198   0.039784  -0.077293
     25       0.002097  -0.070078   0.043137  -0.378098   0.133382  -0.282264
     26       0.004971   0.104959  -0.062699   0.560463  -0.182165   0.386372
     27      -0.012492  -0.019789   0.013901  -0.106136  -0.039798   0.077277
     28       0.002068  -0.070015   0.043129  -0.378107  -0.133502   0.282373
     29      -0.004970  -0.104842   0.062670  -0.560314  -0.182294   0.386415
     30       0.043191   0.105244  -0.003972  -0.020134   0.105776   0.031896
     31       0.017522   0.384745  -0.021389  -0.074107   0.389358   0.119209
     32      -0.008094   0.564892  -0.030333  -0.107099   0.527355   0.162082
     33       0.042947   0.105584  -0.003990  -0.020173  -0.105886  -0.031943
     34       0.017341   0.385170  -0.021407  -0.074111  -0.389008  -0.119153
     35       0.008239  -0.565352   0.030351   0.107085   0.526743   0.161970
     36       0.685905   0.005919   0.000632  -0.003393  -0.000007  -0.000002
     37       0.254257   0.001672   0.000495  -0.001194   0.000003  -0.000000
     38       0.000437   0.000033   0.000002  -0.000015  -0.000406  -0.000225
                 36         37         38    
      0      -0.000003  -0.036404  -0.000038
      1       0.000004   0.083612  -0.000061
      2      -0.068776  -0.000000  -0.000002
      3       0.000002   0.002053  -0.000218
      4      -0.000006   0.009296   0.000332
      5      -0.061537   0.000007   0.000000
      6       0.000002   0.000571  -0.001056
      7      -0.000002   0.000465  -0.000192
      8      -0.015439   0.000000  -0.000007
      9       0.000002   0.000059   0.028638
     10       0.000001   0.000009   0.010565
     11       0.000121   0.000000  -0.000061
     12      -0.000001  -0.000054  -0.105584
     13      -0.000000  -0.000016  -0.038564
     14       0.000016   0.000001  -0.000197
     15      -0.093769  -0.066877   0.000006
     16      -0.299732  -0.173791   0.000216
     17       0.419524   0.281686  -0.000241
     18       0.000101   0.565172   0.000778
     19      -0.000118  -0.655083  -0.000373
     20      -0.014971   0.000129   0.000001
     21       0.093709  -0.066890   0.000008
     22       0.299804  -0.174001   0.000222
     23       0.419352  -0.281814   0.000237
     24      -0.075520  -0.014179   0.000108
     25      -0.263211  -0.048290  -0.000870
     26       0.363901   0.069045   0.000933
     27       0.075497  -0.014192   0.000107
     28       0.263281  -0.048364  -0.000873
     29       0.363896  -0.069128  -0.000925
     30       0.015263   0.000123  -0.001056
     31       0.069577  -0.006390  -0.002208
     32       0.091882  -0.008508  -0.002545
     33      -0.015295   0.000121  -0.001047
     34      -0.069563  -0.006386  -0.002209
     35       0.091842   0.008504   0.002539
     36      -0.000005  -0.000810   0.933607
     37      -0.000001  -0.000213   0.338778
     38      -0.000336  -0.000005   0.003167


-----------
IR SPECTRUM
-----------

 Mode   freq       eps      Int      T**2         TX        TY        TZ
       cm**-1   L/(mol*cm) km/mol    a.u.
----------------------------------------------------------------------------
  6:     98.78   0.000000    0.00  0.000001  ( 0.000073  0.000097  0.001005)
  7:    147.64   0.000106    0.53  0.000224  ( 0.001829 -0.014844  0.000055)
  8:    251.90   0.000008    0.04  0.000010  (-0.000004 -0.000004  0.003216)
  9:    339.34   0.001447    7.31  0.001330  (-0.000046 -0.000253  0.036474)
 10:    346.15   0.000270    1.37  0.000244  ( 0.006389 -0.014234 -0.000564)
 11:    503.09   0.001237    6.25  0.000768  ( 0.015312 -0.023089 -0.000006)
 12:    636.44   0.010771   54.43  0.005281  (-0.000742 -0.000581  0.072665)
 13:    642.81   0.010282   51.96  0.004992  (-0.024508  0.066263  0.000265)
 14:    749.08   0.000326    1.65  0.000136  ( 0.000028  0.000049  0.011652)
 15:    873.81   0.000225    1.14  0.000080  ( 0.000068  0.000027 -0.008967)
 16:    877.53   0.000711    3.59  0.000253  (-0.004564  0.015230 -0.000022)
 17:    972.50   0.000196    0.99  0.000063  ( 0.005944 -0.005254 -0.000018)
 18:   1041.39   0.000182    0.92  0.000055  (-0.007346 -0.000842 -0.000004)
 19:   1106.13   0.000398    2.01  0.000112  ( 0.010306 -0.002489 -0.000002)
 20:   1119.36   0.000000    0.00  0.000000  ( 0.000106  0.000036 -0.000060)
 21:   1255.96   0.000004    0.02  0.000001  ( 0.000049  0.000014  0.001046)
 22:   1296.13   0.001267    6.41  0.000305  (-0.016818 -0.004722  0.000010)
 23:   1321.65   0.000004    0.02  0.000001  ( 0.000023  0.000001 -0.000989)
 24:   1368.15   0.000211    1.06  0.000048  (-0.003251  0.006123 -0.000005)
 25:   1403.59   0.000482    2.44  0.000107  ( 0.008675  0.005654  0.000000)
 26:   1461.38   0.000407    2.05  0.000087  ( 0.002017 -0.009097 -0.000005)
 27:   1485.47   0.000199    1.01  0.000042  ( 0.006193  0.001863  0.000004)
 28:   1493.16   0.001711    8.64  0.000358  (-0.000002  0.000001 -0.018908)
 29:   1499.54   0.001572    7.95  0.000327  ( 0.001410 -0.018034 -0.000002)
 30:   2198.64   0.003001   15.17  0.000426  (-0.020158 -0.004426  0.000045)
 31:   2993.93   0.002270   11.47  0.000237  (-0.006682 -0.013856  0.000024)
 32:   3005.42   0.005829   29.46  0.000605  ( 0.022734  0.009403 -0.000005)
 33:   3024.18   0.005719   28.90  0.000590  ( 0.008721  0.022672  0.000001)
 34:   3028.15   0.000729    3.69  0.000075  (-0.000001  0.000001 -0.008670)
 35:   3060.92   0.000049    0.25  0.000005  (-0.000004 -0.000004 -0.002244)
 36:   3086.86   0.011337   57.29  0.001146  (-0.000005 -0.000004 -0.033854)
 37:   3090.31   0.006282   31.75  0.000634  (-0.010523  0.022883  0.000004)
 38:   3479.86   0.014154   71.53  0.001269  ( 0.033956  0.010784  0.000091)

* The epsilon (eps) is given for a Dirac delta lineshape.
** The dipole moment derivative (T) already includes vibrational overlap.

The first frequency considered to be a vibration is 6
The total number of vibrations considered is 33


--------------------------
THERMOCHEMISTRY AT 298.15K
--------------------------

Temperature         ...   298.15 K
Pressure            ...     1.00 atm
Total Mass          ...    68.12 AMU
Quasi RRHO          ...     True
Cut-Off Frequency   ...     1.00 cm^-1

Throughout the following assumptions are being made:
  (1) The electronic state is orbitally nondegenerate
  (2) There are no thermally accessible electronically excited states
  (3) Hindered rotations indicated by low frequency modes are not
      treated as such but are treated as vibrations and this may
      cause some error
  (4) All equations used are the standard statistical mechanics
      equations for an ideal gas
  (5) All vibrations are strictly harmonic

freq.      98.78  E(vib)   ...       0.46 
freq.     147.64  E(vib)   ...       0.41 
freq.     251.90  E(vib)   ...       0.30 
freq.     339.34  E(vib)   ...       0.23 
freq.     346.15  E(vib)   ...       0.23 
freq.     503.09  E(vib)   ...       0.14 
freq.     636.44  E(vib)   ...       0.09 
freq.     642.81  E(vib)   ...       0.09 
freq.     749.08  E(vib)   ...       0.06 
freq.     873.81  E(vib)   ...       0.04 
freq.     877.53  E(vib)   ...       0.04 
freq.     972.50  E(vib)   ...       0.03 
freq.    1041.39  E(vib)   ...       0.02 
freq.    1106.13  E(vib)   ...       0.02 
freq.    1119.36  E(vib)   ...       0.01 
freq.    1255.96  E(vib)   ...       0.01 
freq.    1296.13  E(vib)   ...       0.01 
freq.    1321.65  E(vib)   ...       0.01 
freq.    1368.15  E(vib)   ...       0.01 
freq.    1403.59  E(vib)   ...       0.00 
freq.    1461.38  E(vib)   ...       0.00 
freq.    1485.47  E(vib)   ...       0.00 
freq.    1493.16  E(vib)   ...       0.00 
freq.    1499.54  E(vib)   ...       0.00 
freq.    2198.64  E(vib)   ...       0.00 
freq.    2993.93  E(vib)   ...       0.00 
freq.    3005.42  E(vib)   ...       0.00 
freq.    3024.18  E(vib)   ...       0.00 
freq.    3028.15  E(vib)   ...       0.00 
freq.    3060.92  E(vib)   ...       0.00 
freq.    3086.86  E(vib)   ...       0.00 
freq.    3090.31  E(vib)   ...       0.00 
freq.    3479.86  E(vib)   ...       0.00 

------------
INNER ENERGY
------------

The inner energy is: U= E(el) + E(ZPE) + E(vib) + E(rot) + E(trans)
    E(el)   - is the total energy from the electronic structure calculation
              = E(kin-el) + E(nuc-el) + E(el-el) + E(nuc-nuc)
    E(ZPE)  - the the zero temperature vibrational energy from the frequency calculation
    E(vib)  - the the finite temperature correction to E(ZPE) due to population
              of excited vibrational states
    E(rot)  - is the rotational thermal energy
    E(trans)- is the translational thermal energy

Summary of contributions to the inner energy U:
Electronic energy                ...   -195.22393557 Eh
Zero point energy                ...      0.11222083 Eh      70.42 kcal/mol
Thermal vibrational correction   ...      0.00351252 Eh       2.20 kcal/mol
Thermal rotational correction    ...      0.00141627 Eh       0.89 kcal/mol
Thermal translational correction ...      0.00141627 Eh       0.89 kcal/mol
-----------------------------------------------------------------------
Total thermal energy                   -195.10536967 Eh


Summary of corrections to the electronic energy:
(perhaps to be used in another calculation)
Total thermal correction                  0.00634506 Eh       3.98 kcal/mol
Non-thermal (ZPE) correction              0.11222083 Eh      70.42 kcal/mol
-----------------------------------------------------------------------
Total correction                          0.11856590 Eh      74.40 kcal/mol


--------
ENTHALPY
--------

The enthalpy is H = U + kB*T
                kB is Boltzmann's constant
Total thermal energy              ...   -195.10536967 Eh 
Thermal Enthalpy correction       ...      0.00094421 Eh       0.59 kcal/mol
-----------------------------------------------------------------------
Total Enthalpy                    ...   -195.10442546 Eh


Note: Only C1 symmetry has been detected, increase convergence thresholds 
      if your molecule has a higher symmetry. Symmetry factor of 1.0 is   
      used for the rotational entropy correction. 
 

Note: Rotational entropy computed according to Herzberg 
Infrared and Raman Spectra, Chapter V,1, Van Nostrand Reinhold, 1945 
Point Group:  C1, Symmetry Number:   1  
Rotational constants in cm-1:     0.781046     0.074591     0.070771 

Vibrational entropy computed according to the QRRHO of S. Grimme
Chem.Eur.J. 2012 18 9955 using a reference frequency of 100.0 cm-1


-------
ENTROPY
-------

The entropy contributions are T*S = T*(S(el)+S(vib)+S(rot)+S(trans))
     S(el)   - electronic entropy
     S(vib)  - vibrational entropy
     S(rot)  - rotational entropy
     S(trans)- translational entropy
The entropies will be listed as multiplied by the temperature to get
units of energy

Electronic entropy                ...      0.00000000 Eh      0.00 kcal/mol
Vibrational entropy               ...      0.00589975 Eh      3.70 kcal/mol
Rotational entropy                ...      0.01210314 Eh      7.59 kcal/mol
Translational entropy             ...      0.01832752 Eh     11.50 kcal/mol
-----------------------------------------------------------------------
Final entropy term                ...      0.03633040 Eh     22.80 kcal/mol

In case the symmetry of your molecule has not been determined correctly
or in case you have a reason to use a different symmetry number we print 
out the resulting rotational entropy values for sn=1,12:

 non-linear molecules -----------------------------------
|  sn= 1 | S(rot)=       0.01210314 Eh      7.59 kcal/mol|
|  sn= 2 | S(rot)=       0.01144868 Eh      7.18 kcal/mol|
|  sn= 3 | S(rot)=       0.01106585 Eh      6.94 kcal/mol|
|  sn= 4 | S(rot)=       0.01079422 Eh      6.77 kcal/mol|
|  sn= 5 | S(rot)=       0.01058353 Eh      6.64 kcal/mol|
|  sn= 6 | S(rot)=       0.01041139 Eh      6.53 kcal/mol|
|  sn= 7 | S(rot)=       0.01026584 Eh      6.44 kcal/mol|
|  sn= 8 | S(rot)=       0.01013977 Eh      6.36 kcal/mol|
|  sn= 9 | S(rot)=       0.01002856 Eh      6.29 kcal/mol|
|  sn=10 | S(rot)=       0.00992908 Eh      6.23 kcal/mol|
|  sn=11 | S(rot)=       0.00983909 Eh      6.17 kcal/mol|
|  sn=12 | S(rot)=       0.00975693 Eh      6.12 kcal/mol|
 linear molecules ---------------------------------------
|  Dinfh | S(rot)=       0.00782629 Eh      4.91 kcal/mol|
|  Cinfv | S(rot)=       0.00848075 Eh      5.32 kcal/mol|
 --------------------------------------------------------


-------------------
GIBBS FREE ENERGY
-------------------

The Gibbs free energy is G = H - T*S

Total enthalpy                    ...   -195.10442546 Eh 
Total entropy correction          ...     -0.03633040 Eh    -22.80 kcal/mol
-----------------------------------------------------------------------
Final Gibbs free energy         ...   -195.14075587 Eh

For completeness - the Gibbs free energy minus the electronic energy
G-E(el)                           ...      0.08317970 Eh     52.20 kcal/mol


Maximum memory used throughout the entire PROP-calculation: 38.4 MB

--------------------------------
SUGGESTED CITATIONS FOR THIS RUN
--------------------------------

Below you find a list of papers that are relevant to this ORCA run
We neither can nor want to force you to cite these papers, but we appreciate if you do
You receive ORCA, which is the product of decades of hard work by many enthusiastic individuals, for free
The only thing we kindly ask in return is that you cite our papers,
We deeply appreciate it, if you show your appreciation for ORCA by not just citing the generic ORCA reference.

Please note that relegating all ORCA citations to the supporting information does *not* help us.
SI sections are not indexed - citations you put there will not count into any citation statistics
But we need these citations in order to attract the funding resources that allow us to do what we are doing

Therefore, if you are a happy ORCA user, please consider citing a few of the papers listed below in the main body of your paper

In addition to the list printed below, the program has created the file vacuum_censo.bibtex that contains the list in bibtex format
You can import this file easily into all common literature databanks and citation aid programs


List of essential papers. We consider these as the minimum necessary citations

  1. Neese,F.
     Software update: the ORCA program system, version 5.0
     WIRES Comput. Molec. Sci., 2022 12(1)e1606
     doi.org/10.1002/wcms.1606
  2. Grimme,S.; Hansen,A.; Ehlert,S.; Mewes,J.
     r2SCAN-3c: A 'Swiss army knife' composite electronic-structure method
     J. Chem. Phys., 2021 154 064103
     doi.org/10.1063/5.0040021

List of papers to cite with high priority. The work reported in these papers was absolutely
necessary for this run to complete.
Our perspective: the developers of density functionals and basis sets usually get cited in chemistry papers
Good! But without the algorithms to do something with them, the functionals or basis sets would not do anything.
Hence, in our opinion, the algorithm design and method developments papers are equally worthy of getting cited

  1. Neese,F.
     An improvement of the resolution of the identity approximation for the formation of the Coulomb matrix
     J. Comp. Chem., 2003 24(14)1740-1747
     doi.org/10.1002/jcc.10318
  2. Bykov,D.; Petrenko,T.; Izsak,R.; Kossmann,S.; Becker,U.; Valeev,E.; Neese,F.
     Efficient implementation of the analytic second derivatives of Hartree-Fock and hybrid DFT energies: a detailed analysis of different approximations
     Molec. Phys., 2015 113 1961-1977
     doi.org/10.1080/00268976.2015.1025114
  3. Neese,F.
     The SHARK Integral Generation and Digestion System
     J. Comp. Chem., 2022  1-16
     doi.org/10.1002/jcc.26942
  4. Lehtola,S.; Steigemann,C.; Oliveira,M.; Marques,M.
     Recent developments in Libxc - A comprehensive library of functionals for density functional theory
     Software X, 2018 7 
     doi.org/10.1016/j.softx.2017.11.002
  5. Caldeweyher,E.; Bannwarth,C.; Grimme,S.
     Extension of the D3 dispersion coefficient model
     J. Chem. Phys., 2017 147 034112-XXXX
     doi.org/10.1063/1.4993215
  6. Caldeweyher,E.; Ehlert,S.; Hansen,A.; Neugebauer,H.; Spicher,S.; Bannwarth,C.; Grimme,S.
     A generally applicable atomic-charge dependent London dispersion correction
     J. Chem. Phys., 2019 150 154122-XXXX
     doi.org/10.1063/1.5090222
  7. Caldeweyher,E.; Mewes,J.; Ehlert,S.; Grimme,S.
     Extension and evaluation of the D4 London-dispersion model for periodic systems
     Phys. Chem. Chem. Phys., 2020 22(16)8499-8512
     doi.org/10.1039/D0CP00502A

List of suggested additional citations. These are papers that are important in the 'surrounding' of 
of this run, or papers that preceded the highly important papers. If you like your results we are grateful for a citation.

  1. Neese,F.
     The ORCA program system
     WIRES Comput. Molec. Sci., 2012 2(1)73-78
     doi.org/10.1002/wcms.81
  2. Neese,F.
     Software update: the ORCA program system, version 4.0
     WIRES Comput. Molec. Sci., 2018 8(1)1-6
     doi.org/10.1002/wcms.1327
  3. Neese,F.; Wennmohs,F.; Becker,U.; Riplinger,C.
     The ORCA quantum chemistry program package
     J. Chem. Phys., 2020 152 Art. No. L224108
     doi.org/10.1063/5.0004608

List of optional additional citations

  1. Neese,F.
     Approximate second-order SCF convergence for spin unrestricted wavefunctions
     Chem. Phys. Lett., 2000 325(1-3)93-98
     doi.org/10.1016/s0009-2614(00)00662-x

Timings for individual modules:

Sum of individual times          ...      262.454 sec (=   4.374 min)
Startup calculation              ...        0.817 sec (=   0.014 min)   0.3 %
SCF iterations                   ...       18.418 sec (=   0.307 min)   7.0 %
Property integrals               ...      141.291 sec (=   2.355 min)  53.8 %
SCF Response                     ...       49.903 sec (=   0.832 min)  19.0 %
Property calculations            ...       52.026 sec (=   0.867 min)  19.8 %
                             ****ORCA TERMINATED NORMALLY****
TOTAL RUN TIME: 0 days 0 hours 4 minutes 23 seconds 116 msec
