22
 energy: -42.915740341234 gnorm: 0.026787957895 xtb: 6.7.1 (edcfbbe)
C           -4.41521191651332        0.00011358088349       -0.00063593358189
C           -3.71785872077490       -0.48117829248125       -1.10469189890149
C           -2.32772313406627       -0.48410265477338       -1.10486583039183
C           -1.62494180940451       -0.00022599843787       -0.00042191397386
C           -2.32779258556442        0.48377624165155        1.10393048785037
C           -3.71792065745021        0.48120222469839        1.10354799737945
C           -0.14233259993718       -0.00020274727377       -0.00025414555422
C            0.60239373794507       -1.17779020218523        0.15202077886596
C            1.99213578333851       -1.20238510806975        0.15458140483848
C            2.66683444986430        0.00004980465273        0.00058365140506
C            1.99201539143050        1.20235522133953       -0.15389648766335
C            0.60228119361577        1.17750669406260       -0.15218605999016
Cl          -0.23127135988588        2.69847965482866       -0.37461940337891
Cl           4.41469344418181        0.00022494540339        0.00120965604588
Cl          -0.23103296352841       -2.69891323540940        0.37387498281571
H           -5.50039883101214        0.00028102845204       -0.00073672502800
H           -4.25689750690555       -0.85619161025838       -1.96861287213042
H           -1.78021764431925       -0.86161526200193       -1.96273271297610
H           -1.78031303401321        0.86116518188123        1.96186900123409
H           -4.25699371639788        0.85635766706137        1.96738565098552
H            2.52889045406691       -2.13341848084876        0.27982142535825
H            2.52867369418459        2.13348659450382       -0.27881926499417
22
 energy: -42.916993453910 gnorm: 0.016248761115 xtb: 6.7.1 (edcfbbe)
C           -4.39877158323376        0.00008909132894       -0.00063748259495
C           -3.70444142926539       -0.48246968352081       -1.09818115007516
C           -2.31998346758782       -0.48799754872126       -1.09828779554987
C           -1.61907761576561       -0.00018829919026       -0.00042087082092
C           -2.32007246730968        0.48772311338360        1.09735156337493
C           -3.70452507707681        0.48247783222663        1.09703493623383
C           -0.13899667906261       -0.00018572282108       -0.00023426247808
C            0.59603578414632       -1.17572700878629        0.15134440315193
C            1.98172167648065       -1.19793448366207        0.15533287865671
C            2.65885426929197        0.00003789375344        0.00056045708414
C            1.98162167183008        1.19789557380331       -0.15466486736376
C            0.59594158557020        1.17546222861288       -0.15147409451826
Cl          -0.25109941095403        2.67953600698715       -0.36304629594607
Cl           4.39664192981659        0.00019586147670        0.00116296614696
Cl          -0.25088594079841       -2.67994390705186        0.36235877915036
H           -5.47997796186153        0.00023271673913       -0.00073958471805
H           -4.24249353537563       -0.85610288851826       -1.95823170940919
H           -1.77573539057194       -0.86188087329837       -1.95454032681420
H           -1.77587045810496        0.86147876145011        1.95368995439125
H           -4.24263087952623        0.85622719844216        1.95700103891556
H            2.51547042448324       -2.12652180070606        0.27761109654037
H            2.51528622372971        2.12657118575137       -0.27663784514316
22
 energy: -42.917321591673 gnorm: 0.007536611717 xtb: 6.7.1 (edcfbbe)
C           -4.38881703454282        0.00005929645940       -0.00064375948060
C           -3.69569769567836       -0.48538730590230       -1.09533548766761
C           -2.31342467825629       -0.49080457047612       -1.09586010628528
C           -1.61478976360774       -0.00015511784705       -0.00040947770083
C           -2.31354663059479        0.49057334319714        1.09493577297647
C           -3.69581528263460        0.48537660698662        1.09418149978317
C           -0.13633357728933       -0.00016059421838       -0.00021067702604
C            0.59027607305441       -1.17844709368845        0.14698921241227
C            1.97447776854248       -1.19694180420219        0.15268880850598
C            2.65409197479595        0.00002344923200        0.00053731154274
C            1.97440620682225        1.19689493064000       -0.15203671639322
C            0.59020738861781        1.17821335077678       -0.14708412351093
Cl          -0.26509416532242        2.66739173419710       -0.35180813939349
Cl           4.38107791149743        0.00015230550950        0.00108815601788
Cl          -0.26493589852686       -2.66774579581220        0.35120302637399
H           -5.46810197355165        0.00016316658514       -0.00074599305982
H           -4.23291584151478       -0.86255575921037       -1.95208860812770
H           -1.76963724298837       -0.86833509618242       -1.94861130152813
H           -1.76983435377838        0.86800714707601        1.94777837529664
H           -4.23311534400043        0.86262733252088        1.95084635659756
H            2.50733360399231       -2.12444473533369        0.27428021998558
H            2.50720022381852        2.12447045737169       -0.27334256110425
22
 energy: -42.917381479988 gnorm: 0.002539103317 xtb: 6.7.1 (edcfbbe)
C           -4.38746336130464        0.00003479827762       -0.00064736311995
C           -3.69441131038551       -0.48997228776614       -1.09401368266397
C           -2.31182340044902       -0.49532991340762       -1.09452617053594
C           -1.61402831146264       -0.00013380975882       -0.00039639949023
C           -2.31197209098264        0.49512966901558        1.09361537872531
C           -3.69455602704069        0.48994562764663        1.09285593720666
C           -0.13552689476255       -0.00014348682332       -0.00019345954003
C            0.58843340869777       -1.18118360809026        0.14473517566593
C            1.97307691959261       -1.19754271762049        0.15017062681575
C            2.65370365015914        0.00000736662059        0.00050876667356
C            1.97302440062777        1.19747958954401       -0.14954234186199
C            0.58838444062941        1.18096826728698       -0.14480973563046
Cl          -0.26742126718341        2.66585520530303       -0.34325740964265
Cl           4.37605089947324        0.00014548543882        0.00105310711417
Cl          -0.26731247107763       -2.66616684046064        0.34271305361369
H           -5.46680890357542        0.00011700193058       -0.00075415797538
H           -4.23156279862518       -0.86965700584430       -1.94987728075252
H           -1.76708464294658       -0.87476677126841       -1.94609291446117
H           -1.76733257246995        0.87449164713526        1.94527951965995
H           -4.23181268729046        0.86969889152462        1.94862253806423
H            2.50677568204443       -2.12530131179758        0.26981575312276
H            2.50667900718629        2.12529945079296       -0.26890715277332
22
 energy: -42.917402759423 gnorm: 0.000913237927 xtb: 6.7.1 (edcfbbe)
C           -4.38816971762878        0.00000642314135       -0.00065492335028
C           -3.69508355611253       -0.49436202548117       -1.09273647415361
C           -2.31195918483969       -0.49954342757707       -1.09323715932565
C           -1.61431288680089       -0.00010789431740       -0.00038126448121
C           -2.31214230857303        0.49937329329552        1.09234272410255
C           -3.69526291368223        0.49431126847278        1.09157140248288
C           -0.13533570119838       -0.00011608866536       -0.00017321255279
C            0.58797732749749       -1.18320676183779        0.14101461700969
C            1.97324932573070       -1.19822968469749        0.14657424082613
C            2.65442667020492       -0.00000109942702        0.00050369572264
C            1.97322273705884        1.19816841861921       -0.14594651986819
C            0.58795240942065        1.18302970659756       -0.14106058451430
Cl          -0.26608822703431        2.66705364074567       -0.33541704125982
Cl           4.37476427681593        0.00008669477279        0.00096789844846
Cl          -0.26603484453578       -2.66730380193437        0.33493131083260
H           -5.46791590867271        0.00006062682478       -0.00076690065093
H           -4.23241689878284       -0.87805709773198       -1.94723870774910
H           -1.76636283193022       -0.88260259636963       -1.94318340982617
H           -1.76667443610922        0.88237957688156        1.94239576123038
H           -4.23272990817414        0.87805348562466        1.94596770412837
H            2.50797846527643       -2.12637442088401        0.26399457557551
H            2.50792978092416        2.12635701162651       -0.26311594441274
22
 energy: -42.917416520296 gnorm: 0.001835754868 xtb: 6.7.1 (edcfbbe)
C           -4.38934340823949       -0.00002086778850       -0.00066362637014
C           -3.69622011276506       -0.49967223363871       -1.09064386257386
C           -2.31279093916806       -0.50489859210071       -1.09102350867067
C           -1.61488329151069       -0.00008066438867       -0.00036041574592
C           -2.31301346353292        0.50476366612387        1.09015226031109
C           -3.69643967109329        0.49960080073957        1.08947173657502
C           -0.13550617371310       -0.00009223418906       -0.00014655969314
C            0.58821284487240       -1.18414187167845        0.13702234451526
C            1.97387742358707       -1.19872103472641        0.14236372686702
C            2.65535147773838       -0.00002112594559        0.00045573508294
C            1.97387532507920        1.19864192440996       -0.14176895510794
C            0.58821338761220        1.18399207462824       -0.13703178859351
Cl          -0.26352106398003        2.66927665828117       -0.32656030710220
Cl           4.37547062961603        0.00007042849284        0.00091583281084
Cl          -0.26353072959599       -2.66947097389815        0.32615216904879
H           -5.46942197001344        0.00000682470197       -0.00078405699040
H           -4.23375737193591       -0.88700943786741       -1.94372601670854
H           -1.76679891152602       -0.89147388510362       -1.93946773243666
H           -1.76718420801184        0.89131089171716        1.93871451663041
H           -4.23414422631401        0.88696374691836        1.94243634198615
H            2.50928381316092       -2.12728946486365        0.25669630393991
H            2.50928230858798        2.12724061785489       -0.25585234956001
22
 energy: -42.917429878812 gnorm: 0.001160419428 xtb: 6.7.1 (edcfbbe)
C           -4.39002820941311       -0.00004297210712       -0.00067254293207
C           -3.69685026392228       -0.50331155366336       -1.08883063737657
C           -2.31346184020984       -0.50884257685201       -1.08900713406116
C           -1.61520767786500       -0.00005804618869       -0.00034127737304
C           -2.31371974869021        0.50873606941615        1.08815748723016
C           -3.69710634348901        0.50322334444856        1.08765094043997
C           -0.13583061961238       -0.00007222016993       -0.00012584823892
C            0.58863478867488       -1.18408022520397        0.13351190020100
C            1.97429086917019       -1.19891407112854        0.13898920021630
C            2.65581604688129       -0.00003381044067        0.00043919705435
C            1.97430882901483        1.19882383889776       -0.13841154016014
C            0.58865554348515        1.18395363352475       -0.13350009987218
Cl          -0.26169693223754        2.67099368439563       -0.32012728495712
Cl           4.37680044313790        0.00004825642016        0.00085012548225
Cl          -0.26175621151322       -2.67113978081088        0.31979514105530
H           -5.47017248048926       -0.00003753220795       -0.00080114440579
H           -4.23446044641324       -0.89343677842897       -1.94058405724299
H           -1.76763675797181       -0.89841410654911       -1.93617822676864
H           -1.76808883569751        0.89829914495183        1.93545802114753
H           -4.23491438163534        0.89335577038167        1.93927605124634
H            2.50969888247505       -2.12773817264341        0.25093980201909
H            2.50973701517483        2.12766335163722       -0.25013628448925
22
 energy: -42.917445384153 gnorm: 0.000439677335 xtb: 6.7.1 (edcfbbe)
C           -4.38992288026833       -0.00007265104972       -0.00068578150484
C           -3.69668124355512       -0.50778607575149       -1.08653041213095
C           -2.31350612886673       -0.51359260544015       -1.08651268719859
C           -1.61510241245827       -0.00002714274776       -0.00031393686106
C           -2.31381350760218        0.51352361980248        1.08569381281697
C           -3.69698797503905        0.50767395718688        1.08533977206562
C           -0.13608535992156       -0.00004353150648       -0.00008858480764
C            0.58874746498245       -1.18393703597147        0.12967994742471
C            1.97419188918446       -1.19919680644525        0.13514324813728
C            2.65570990557790       -0.00005027028588        0.00039563559972
C            1.97423722905852        1.19909852714344       -0.13459214609892
C            0.58879468893418        1.18384831808820       -0.12961131638375
Cl          -0.26132101923432        2.67216889298591       -0.31204504306069
Cl           4.37727262988050        0.00000176488742        0.00076113567471
Cl          -0.26143922069248       -2.67225512113274        0.31179864892206
H           -5.46991582667698       -0.00009468694733       -0.00082718476515
H           -4.23420832476297       -0.90098366631798       -1.93672459586822
H           -1.76807002195726       -0.90666403959526       -1.93212519722938
H           -1.76861553936096        0.90660923923564        1.93145349562175
H           -4.23475486745741        0.90085511936203        1.93538994620750
H            2.50919591431477       -2.12839699405409        0.24407587266052
H            2.50928627477519        2.12829643623272       -0.24332284100721
22
 energy: -42.917460330572 gnorm: 0.000574394546 xtb: 6.7.1 (edcfbbe)
C           -4.38955416116477       -0.00009963637112       -0.00070146072536
C           -3.69625025314597       -0.51237878641578       -1.08421838513748
C           -2.31322582999900       -0.51829533200929       -1.08410134081433
C           -1.61484750410313        0.00000186914756       -0.00028654965603
C           -2.31358403452691        0.51826168694811        1.08331361051180
C           -3.69660961358875        0.51224564604199        1.08301400361804
C           -0.13622127326834       -0.00001742907081       -0.00005834824423
C            0.58869372064655       -1.18414201283764        0.12517454037523
C            1.97393918551092       -1.19965621135164        0.13083357671604
C            2.65536842509015       -0.00005862892133        0.00039446837029
C            1.97401153167207        1.19955543895283       -0.13028952183629
C            0.58876668621082        1.18408511128168       -0.12507894738249
Cl          -0.26170853374270        2.67318885848596       -0.30347811367072
Cl           4.37713343526214       -0.00005469793851        0.00063357096625
Cl          -0.26188134894779       -2.67321465365875        0.30334828648024
H           -5.46938726770047       -0.00015081154028       -0.00085596868166
H           -4.23364230191007       -0.90981713729811       -1.93239639834277
H           -1.76809340720443       -0.91549867891803       -1.92782873884007
H           -1.76873499534605        0.91550246327583        1.92720655994830
H           -4.23428492648790        0.90964125546666        1.93103253814520
H            2.50849215142477       -2.12927146584169        0.23660628152070
H            2.50863198417319        2.12914840025148       -0.23591187510623
22
 energy: -42.917473247021 gnorm: 0.000777243558 xtb: 6.7.1 (edcfbbe)
C           -4.38927269579079       -0.00012243462263       -0.00071583514571
C           -3.69592727992599       -0.51727880066848       -1.08187684267776
C           -2.31296913808453       -0.52302327696404       -1.08180453672245
C           -1.61466049753155        0.00002590187754       -0.00026039535103
C           -2.31337261864337        0.52301737589255        1.08104602479202
C           -3.69633227507294        0.51712602542909        1.08066050574533
C           -0.13627802227362        0.00000614389893       -0.00001437853162
C            0.58860571228773       -1.18439976030318        0.12177884887605
C            1.97374152536788       -1.20008473167856        0.12704079640385
C            2.65509644248007       -0.00007222506143        0.00032754987454
C            1.97383549702530        1.19998297572672       -0.12652524251570
C            0.58869838402213        1.18437727150386       -0.12159888646052
Cl          -0.26207466287391        2.67413785167653       -0.29535386705773
Cl           4.37680754702933       -0.00010644751440        0.00055186758781
Cl          -0.26228571468791       -2.67412264967443        0.29529090934547
H           -5.46901505056011       -0.00019053096900       -0.00088532913940
H           -4.23319181010161       -0.91787990519657       -1.92853181843931
H           -1.76799274852254       -0.92316714022364       -1.92412533633958
H           -1.76871901618671        0.92321232882434        1.92355075435224
H           -4.23391735769506        0.91767002300941        1.92713937736335
H            2.50802969593127       -2.13011986579996        0.22961358319076
H            2.50820575266129        2.12998711851647       -0.22895596093614
22
 energy: -42.917484374441 gnorm: 0.000658318024 xtb: 6.7.1 (edcfbbe)
C           -4.38915711050767       -0.00013149733098       -0.00072793761489
C           -3.69581723918276       -0.52107759759967       -1.08005568796935
C           -2.31286396173268       -0.52669834073593       -1.08002344361074
C           -1.61460979787266        0.00003735497116       -0.00024323882754
C           -2.31329670421141        0.52670673971155        1.07928429326207
C           -3.69625246079370        0.52091837370147        1.07882842880653
C           -0.13631500686038        0.00001579617375        0.00000556347818
C            0.58851473296022       -1.18482908750460        0.11842407706116
C            1.97363671301618       -1.20046790421426        0.12361381381804
C            2.65499210682452       -0.00007455329961        0.00032292489551
C            1.97374186438426        1.20036545730022       -0.12310267856274
C            0.58861768364454        1.18481658778388       -0.11822457185655
Cl          -0.26203864647075        2.67496274993185       -0.28858969243028
Cl           4.37647379193314       -0.00013384060261        0.00046927469590
Cl          -0.26226848336715       -2.67492381306364        0.28860930083337
H           -5.46887912111319       -0.00021106243596       -0.00090734627457
H           -4.23303625629321       -0.92524277394286       -1.92506451760512
H           -1.76789419915767       -0.92989544889059       -1.92089066010287
H           -1.76867484594637        0.92996369302218        1.92034765162338
H           -4.23381680764911        0.92501491099288        1.92365073894569
H            2.50788116102233       -2.13081457701516        0.22354690471523
H            2.50807425622788        2.13067408072606       -0.22292140906593
22
 energy: -42.917494727613 gnorm: 0.000428437857 xtb: 6.7.1 (edcfbbe)
C           -4.38929400584208       -0.00013165328326       -0.00073724449104
C           -3.69594437358136       -0.52490607934209       -1.07827300500525
C           -2.31294515115607       -0.53034849013086       -1.07829867967408
C           -1.61467055633859        0.00003844681524       -0.00023080910787
C           -2.31339430334962        0.53035790429814        1.07757374085595
C           -3.69639630025721        0.52474703122803        1.07703769352075
C           -0.13637831175971        0.00001743594724        0.00002068847530
C            0.58848442717078       -1.18525828805946        0.11540892705440
C            1.97366170195841       -1.20078154966133        0.12042924104165
C            2.65509454225549       -0.00007591826532        0.00031115187664
C            1.97376763716333        1.20067800027714       -0.11992407810548
C            0.58858773177586        1.18524687152221       -0.11518799433083
Cl          -0.26153988243084        2.67590188547071       -0.28218391992273
Cl           4.37640257587508       -0.00014355667334        0.00042232860731
Cl          -0.26177230184571       -2.67585686219543        0.28225329360506
H           -5.46906244896954       -0.00021244386444       -0.00092472335009
H           -4.23316528563151       -0.93202041696738       -1.92189798543472
H           -1.76791982189958       -0.93612866195399       -1.91792403932546
H           -1.76873059693063        0.93620132560825        1.91740260050860
H           -4.23397644194661        0.93179181448235        1.92046790129393
H            2.50800592237472       -2.13138685713597        0.21787462930337
H            2.50819691221975        2.13124530956269       -0.21726792918095
22
 energy: -42.917504400399 gnorm: 0.000252201118 xtb: 6.7.1 (edcfbbe)
C           -4.38957519051653       -0.00012447006561       -0.00074169017339
C           -3.69621977268083       -0.52848052864409       -1.07656855464115
C           -2.31317101901186       -0.53389449597061       -1.07659236350792
C           -1.61479785630656        0.00003221311313       -0.00022559055609
C           -2.31362212119943        0.53389686514241        1.07587325907003
C           -3.69667345741116        0.52832724508892        1.07532985500864
C           -0.13646435330373        0.00001164681025        0.00002932537391
C            0.58853337867762       -1.18563781004897        0.11259180825732
C            1.97378941575420       -1.20104197682362        0.11738858681066
C            2.65532564389849       -0.00007642336019        0.00029003499109
C            1.97388744814265        1.20093679266423       -0.11689304483105
C            0.58862881172114        1.18561913598396       -0.11235185260574
Cl          -0.26072996067503        2.67691120852921       -0.27582375400861
Cl           4.37653220970082       -0.00013432033048        0.00042088303865
Cl          -0.26094659324005       -2.67687947446553        0.27590350968565
H           -5.46940571986759       -0.00019511419485       -0.00093487907542
H           -4.23349360881811       -0.93858708485578       -1.91878762810899
H           -1.76811033366761       -0.94230991733709       -1.91498459339217
H           -1.76892413433458        0.94236639280923        1.91447397407145
H           -4.23430782887397        0.93837234130963        1.91734916919718
H            2.50829123487266       -2.13189735573747        0.21243441748056
H            2.50846547599383        2.13176037806245       -0.21182908387015
22
 energy: -42.917513319615 gnorm: 0.000294787441 xtb: 6.7.1 (edcfbbe)
C           -4.38987267079283       -0.00010606335763       -0.00074220669745
C           -3.69650229479790       -0.53217568412305       -1.07479974338530
C           -2.31341451866322       -0.53739058953598       -1.07489084099490
C           -1.61491996250461        0.00001590156578       -0.00023059054121
C           -2.31385018227818        0.53737247280642        1.07416731390184
C           -3.69694063804766        0.53203805793647        1.07356062907106
C           -0.13655659640546       -0.00000407679815        0.00001377977403
C            0.58860317577996       -1.18601952768209        0.10948322370733
C            1.97392267894461       -1.20128701758500        0.11434254105922
C            2.65556218156661       -0.00006638707345        0.00033101208305
C            1.97400477686206        1.20118306878580       -0.11383031299250
C            0.58868348939397        1.18597747176946       -0.10928307928945
Cl          -0.25989386723840        2.67785535538490       -0.26973792424140
Cl           4.37671663162355       -0.00010885653599        0.00042714391189
Cl          -0.26007782951523       -2.67784989768651        0.26982052041550
H           -5.46976048032178       -0.00016597803800       -0.00093341987389
H           -4.23381485415608       -0.94491283472011       -1.91573953113308
H           -1.76836386733099       -0.94834552023381       -1.91208903231563
H           -1.76914904077473        0.94837444540813        1.91156984435575
H           -4.23460173580440        0.94472286482156        1.91430360266620
H            2.50854543659680       -2.13236533743061        0.20710412604864
H            2.50869183671827        2.13223338000102       -0.20649526731522
22
 energy: -42.917521387012 gnorm: 0.000364091062 xtb: 6.7.1 (edcfbbe)
C           -4.39010360231124       -0.00009293901923       -0.00073675076018
C           -3.69673207419873       -0.53534798998813       -1.07321236282941
C           -2.31361960047355       -0.54073660095834       -1.07323468606109
C           -1.61500644241353        0.00000090002853       -0.00023829484138
C           -2.31403397935430        0.54070010308592        1.07250219730487
C           -3.69714786225550        0.53521985496881        1.07197896662910
C           -0.13665694499371       -0.00001628959669        0.00001415383922
C            0.58866590034478       -1.18627168267291        0.10694839086818
C            1.97403196668055       -1.20149762982597        0.11151198111049
C            2.65574867915736       -0.00006819899720        0.00028652302163
C            1.97409570499575        1.20139410284649       -0.11101392045872
C            0.58872841879188        1.18621899174532       -0.10671886787628
Cl          -0.25918725755706        2.67876950894553       -0.26375280778234
Cl           4.37690248432286       -0.00008296791585        0.00050395431837
Cl          -0.25933570733185       -2.67880054491547        0.26376017225076
H           -5.47003138071344       -0.00012942940347       -0.00092765771445
H           -4.23409174657941       -0.95100413119892       -1.91275278723152
H           -1.76860885589306       -0.95416241842289       -1.90928241609046
H           -1.76935384436322        0.95415477370549        1.90875034414814
H           -4.23483676779596        0.95084384546405        1.91132502161269
H            2.50873566472802       -2.13279549928549        0.20207557840490
H            2.50884891606771        2.13267948908955       -0.20143494364807
22
 energy: -42.917528921002 gnorm: 0.000392190296 xtb: 6.7.1 (edcfbbe)
C           -4.39025244245168       -0.00007011086439       -0.00072876597549
C           -3.69687937689578       -0.53874330204958       -1.07151510759895
C           -2.31377252454483       -0.54389409220504       -1.07163987963044
C           -1.61505796550825       -0.00001944304754       -0.00025836822026
C           -2.31415145969633        0.54383422618702        1.07088527022637
C           -3.69725986875065        0.53863514340652        1.07028772237634
C           -0.13674899403045       -0.00003818050363       -0.00002599123491
C            0.58871917437709       -1.18654504850128        0.10406190017151
C            1.97409579342727       -1.20171260176445        0.10873266174009
C            2.65585739630894       -0.00004959859091        0.00037725730407
C            1.97413959702018        1.20161415068362       -0.10819574118840
C            0.58876351846823        1.18645891502514       -0.10392485946595
Cl          -0.25865630272344        2.67954879047655       -0.25815241453628
Cl           4.37701558765091       -0.00004869093823        0.00053661533716
Cl          -0.25876260968927       -2.67961361796617        0.25813499652677
H           -5.47018652233308       -0.00009518380441       -0.00090829966820
H           -4.23424769904442       -0.95678006885006       -1.90984641541336
H           -1.76884726429603       -0.95975881311294       -1.90653580508565
H           -1.76952685443225        0.95971366702002        1.90596997954755
H           -4.23492913105627        0.95664789795245        1.90843774534472
H            2.50881012744912       -2.13323232057195        0.19711038820886
H            2.50888948960533        2.13312352969842       -0.19645110055107
22
 energy: -42.917536016190 gnorm: 0.000346965260 xtb: 6.7.1 (edcfbbe)
C           -4.39032255422690       -0.00005991717628       -0.00071753346240
C           -3.69694844918607       -0.54186233530363       -1.06991144074549
C           -2.31385314136762       -0.54709254600407       -1.07001929125210
C           -1.61505904751955       -0.00003161239416       -0.00027408383569
C           -2.31420256725135        0.54701397226087        1.06924744811514
C           -3.69729761268086        0.54175973717380        1.06869485213973
C           -0.13683110752265       -0.00004674773178       -0.00003040853467
C            0.58875592133646       -1.18674063631404        0.10142275913751
C            1.97411448118775       -1.20192593060266        0.10595006227846
C            2.65589781762845       -0.00005360352374        0.00032676229495
C            1.97414339892340        1.20182991498300       -0.10542494471993
C            0.58878484490715        1.18665090837875       -0.10125190132083
Cl          -0.25828852122963        2.68025942930677       -0.25270432829019
Cl           4.37706913520200       -0.00002652486016        0.00064343989373
Cl          -0.25836126769319       -2.68036033863007        0.25256872905619
H           -5.47024935034200       -0.00006612744223       -0.00089010657203