 Entering Gaussian System
 *********************************************
 Gaussian 98:
 frequency output generated by the xtb code
 *********************************************
                         Standard orientation:
 --------------------------------------------------------------------
  Center     Atomic     Atomic              Coordinates (Angstroms)
  Number     Number      Type              X           Y           Z
 --------------------------------------------------------------------
    1          6             0       -0.711635   -0.617063    0.299225
    2          6             0        0.715239   -0.625041   -0.272790
    3          8             0        1.439531    0.527509    0.093986
    4          8             0       -1.442634    0.514589   -0.116104
    5          1             0       -0.667297   -0.664713    1.394438
    6          1             0       -1.255758   -1.486474   -0.073523
    7          1             0        0.671319   -0.719447   -1.364982
    8          1             0        1.264406   -1.474620    0.136501
    9          1             0        1.069375    1.281057   -0.380357
   10          1             0       -1.076922    1.289778    0.325698
 --------------------------------------------------------------------
     1 basis functions        1 primitive gaussians
     1 alpha electrons        1 beta electrons
 
 Harmonic frequencies (cm**-1), IR intensities (km*mol⁻¹),
 Raman scattering activities (A**4/amu), Raman depolarization ratios,
 reduced masses (AMU), force constants (mDyne/A) and normal coordinates:
                      1                      2                      3
                        a                      a                      a 
 Frequencies --    87.0814               289.6577               296.4038
 Red. masses --    10.1525                 2.5722                10.0920
 Frc consts  --     0.0000                 0.0000                 0.0000
 IR Inten    --    12.4393               350.0301                 0.1361
 Raman Activ --     0.0000                 0.0000                 0.0000
 Depolar     --     0.0000                 0.0000                 0.0000
 Atom AN      X      Y      Z        X      Y      Z        X      Y      Z
   1   6     0.09   0.20   0.20     0.03   0.05   0.06    -0.14   0.04  -0.24
   2   6    -0.09   0.19  -0.20     0.03  -0.05   0.07     0.14   0.05   0.24
   3   8     0.40  -0.22   0.18     0.10  -0.07  -0.18     0.46  -0.00  -0.17
   4   8    -0.40  -0.23  -0.17     0.10   0.06  -0.18    -0.46   0.00   0.17
   5   1     0.13   0.21   0.06    -0.03   0.03   0.02    -0.15  -0.14  -0.07
   6   1     0.05  -0.03   0.22     0.02   0.01   0.02     0.05   0.02  -0.23
   7   1    -0.13   0.21  -0.07    -0.03  -0.03   0.02     0.15  -0.14   0.08
   8   1    -0.05  -0.04  -0.22     0.02  -0.00   0.02    -0.05   0.03   0.23
   9   1     0.14   0.05   0.18    -0.47   0.06   0.46     0.21  -0.03  -0.16
  10   1    -0.14   0.04  -0.18    -0.47  -0.05   0.47    -0.21  -0.02   0.16
                      4                      5                      6
                        a                      a                      a 
 Frequencies --   439.9796               509.5663               869.5463
 Red. masses --     2.6431                 9.4196                 4.3059
 Frc consts  --     0.0000                 0.0000                 0.0000
 IR Inten    --     0.8033                 9.4680                18.5022
 Raman Activ --     0.0000                 0.0000                 0.0000
 Depolar     --     0.0000                 0.0000                 0.0000
 Atom AN      X      Y      Z        X      Y      Z        X      Y      Z
   1   6     0.05   0.01   0.10     0.29   0.29  -0.20     0.24   0.17   0.16
   2   6    -0.05   0.01  -0.10     0.30  -0.29  -0.19     0.24  -0.16   0.17
   3   8    -0.16   0.01   0.14    -0.30  -0.10   0.16    -0.15  -0.07  -0.02
   4   8     0.16   0.01  -0.14    -0.30   0.11   0.15    -0.15   0.07  -0.03
   5   1     0.06   0.06   0.02     0.28   0.20  -0.06    -0.28  -0.22   0.04
   6   1     0.01  -0.03   0.10     0.01   0.05   0.14     0.16   0.14  -0.35
   7   1    -0.06   0.06  -0.03     0.28  -0.20  -0.05    -0.28   0.22   0.03
   8   1    -0.01  -0.03  -0.09     0.01  -0.04   0.15     0.17  -0.16  -0.34
   9   1     0.42  -0.10  -0.49    -0.11  -0.08  -0.02    -0.13  -0.16  -0.16
  10   1    -0.42  -0.09   0.49    -0.11   0.08  -0.02    -0.13   0.16  -0.16
                      7                      8                      9
                        a                      a                      a 
 Frequencies --   898.6319              1037.7897              1043.9430
 Red. masses --     9.7309                 5.6060                10.4547
 Frc consts  --     0.0000                 0.0000                 0.0000
 IR Inten    --    24.3041                28.3355               124.2450
 Raman Activ --     0.0000                 0.0000                 0.0000
 Depolar     --     0.0000                 0.0000                 0.0000
 Atom AN      X      Y      Z        X      Y      Z        X      Y      Z
   1   6     0.38   0.30  -0.13    -0.18   0.07   0.39    -0.17   0.35  -0.09
   2   6    -0.38   0.31   0.11     0.18   0.06  -0.39    -0.16  -0.35  -0.07
   3   8    -0.18  -0.26  -0.06    -0.08  -0.08   0.03     0.22   0.37   0.10
   4   8     0.19  -0.26   0.07     0.08  -0.08  -0.02     0.23  -0.37   0.12
   5   1     0.03  -0.11  -0.04    -0.15  -0.26   0.09     0.04  -0.06  -0.03
   6   1     0.26   0.06  -0.23    -0.16   0.21  -0.19    -0.24   0.22  -0.07
   7   1    -0.03  -0.11   0.04     0.15  -0.26  -0.08     0.04   0.06  -0.03
   8   1    -0.26   0.07   0.22     0.16   0.22   0.18    -0.23  -0.22  -0.06
   9   1     0.06   0.03   0.05     0.21   0.17   0.14    -0.14  -0.07  -0.08
  10   1    -0.06   0.03  -0.05    -0.21   0.17  -0.15    -0.14   0.07  -0.08
                     10                     11                     12
                        a                      a                      a 
 Frequencies --  1119.8434              1164.2515              1167.4319
 Red. masses --    10.6951                 3.9391                 4.0998
 Frc consts  --     0.0000                 0.0000                 0.0000
 IR Inten    --    41.9566                10.5804                37.2400
 Raman Activ --     0.0000                 0.0000                 0.0000
 Depolar     --     0.0000                 0.0000                 0.0000
 Atom AN      X      Y      Z        X      Y      Z        X      Y      Z
   1   6     0.41  -0.33   0.08     0.03  -0.31   0.11     0.04  -0.02  -0.32
   2   6    -0.40  -0.33  -0.06     0.03   0.31   0.09    -0.04  -0.00   0.32
   3   8     0.15   0.30   0.09     0.01  -0.12  -0.05    -0.08  -0.10  -0.10
   4   8    -0.15   0.29  -0.10     0.01   0.12  -0.05     0.08  -0.10   0.10
   5   1     0.12  -0.18   0.00     0.33  -0.22   0.01     0.20   0.08  -0.08
   6   1     0.04  -0.00  -0.07    -0.26   0.09   0.02    -0.43   0.19   0.10
   7   1    -0.12  -0.18   0.00     0.33   0.22  -0.00    -0.20   0.08   0.08
   8   1    -0.04  -0.00   0.07    -0.26  -0.10   0.02     0.43   0.19  -0.11
   9   1     0.13   0.16   0.09    -0.23  -0.25  -0.18     0.21   0.17   0.11
  10   1    -0.13   0.15  -0.10    -0.23   0.23  -0.19    -0.21   0.17  -0.12
                     13                     14                     15
                        a                      a                      a 
 Frequencies --  1308.1016              1316.2478              1326.9416
 Red. masses --     3.7294                 2.7008                 3.4353
 Frc consts  --     0.0000                 0.0000                 0.0000
 IR Inten    --    34.3983                14.1246                78.4128
 Raman Activ --     0.0000                 0.0000                 0.0000
 Depolar     --     0.0000                 0.0000                 0.0000
 Atom AN      X      Y      Z        X      Y      Z        X      Y      Z
   1   6     0.10  -0.21  -0.16    -0.03  -0.12  -0.06    -0.26   0.07  -0.06
   2   6     0.10   0.21  -0.17     0.03  -0.12   0.06    -0.26  -0.07  -0.05
   3   8     0.10   0.02   0.15    -0.13   0.02  -0.16     0.13  -0.02   0.10
   4   8     0.10  -0.01   0.15     0.13   0.03   0.16     0.13   0.03   0.10
   5   1    -0.40   0.31  -0.01    -0.35   0.25   0.01     0.13  -0.01  -0.02
   6   1    -0.13  -0.03   0.12     0.19  -0.20   0.08     0.43  -0.30  -0.01
   7   1    -0.40  -0.31   0.00     0.35   0.26  -0.02     0.13   0.01  -0.02
   8   1    -0.13   0.03   0.12    -0.19  -0.21  -0.07     0.42   0.30  -0.02
   9   1    -0.20  -0.21  -0.14     0.26   0.27   0.17    -0.20  -0.22  -0.15
  10   1    -0.20   0.20  -0.15    -0.26   0.26  -0.18    -0.20   0.22  -0.16
                     16                     17                     18
                        a                      a                      a 
 Frequencies --  1347.1740              1457.2717              1461.1607
 Red. masses --     3.6136                 1.7908                 1.8361
 Frc consts  --     0.0000                 0.0000                 0.0000
 IR Inten    --    29.5430                 1.2434                 0.3869
 Raman Activ --     0.0000                 0.0000                 0.0000
 Depolar     --     0.0000                 0.0000                 0.0000
 Atom AN      X      Y      Z        X      Y      Z        X      Y      Z
   1   6    -0.32   0.03  -0.06     0.08   0.13  -0.10    -0.07  -0.15   0.10
   2   6     0.32   0.03   0.06     0.08  -0.14  -0.10     0.07  -0.15  -0.09
   3   8    -0.08   0.04  -0.02    -0.01  -0.03  -0.02    -0.00  -0.02  -0.02
   4   8     0.08   0.04   0.02    -0.01   0.03  -0.02     0.00  -0.02   0.02
   5   1     0.44  -0.19  -0.04    -0.19  -0.45  -0.02     0.21   0.44   0.01
   6   1     0.25  -0.21   0.01    -0.04  -0.15   0.45     0.06   0.14  -0.45
   7   1    -0.44  -0.19   0.05    -0.20   0.45  -0.03    -0.21   0.44  -0.03
   8   1    -0.25  -0.21   0.00    -0.05   0.17   0.44    -0.06   0.16   0.44
   9   1     0.13   0.14   0.10    -0.00  -0.01  -0.01    -0.00  -0.01  -0.01
  10   1    -0.13   0.14  -0.11    -0.00   0.01  -0.01     0.00  -0.01   0.01
                     19                     20                     21
                        a                      a                      a 
 Frequencies --  2904.7480              2920.4231              2994.9235
 Red. masses --     1.6972                 1.7655                 1.7269
 Frc consts  --     0.0000                 0.0000                 0.0000
 IR Inten    --     4.9469               105.9398                11.8151
 Raman Activ --     0.0000                 0.0000                 0.0000
 Depolar     --     0.0000                 0.0000                 0.0000
 Atom AN      X      Y      Z        X      Y      Z        X      Y      Z
   1   6    -0.01  -0.01  -0.18    -0.00  -0.00  -0.18    -0.09  -0.14  -0.07
   2   6     0.01  -0.00   0.18    -0.00  -0.01  -0.19    -0.10   0.14  -0.07
   3   8     0.00   0.01   0.01    -0.00  -0.01  -0.00     0.00   0.01   0.00
   4   8    -0.00   0.01  -0.01    -0.00   0.01  -0.00     0.00  -0.01   0.00
   5   1     0.03  -0.02   0.68     0.03  -0.02   0.68    -0.01  -0.02  -0.01
   6   1     0.02   0.03  -0.01     0.00   0.00  -0.02     0.33   0.53   0.24
   7   1    -0.03  -0.05  -0.68     0.03   0.05   0.68    -0.01   0.02  -0.01
   8   1    -0.02   0.03   0.01     0.00  -0.00  -0.02     0.35  -0.54   0.27
   9   1     0.00  -0.00  -0.00    -0.00   0.00   0.00    -0.00   0.01  -0.00
  10   1    -0.00  -0.00   0.00    -0.00  -0.00   0.00    -0.00  -0.01  -0.00
                     22                     23                     24
                        a                      a                      a 
 Frequencies --  2998.6760              3535.1620              3535.9989
 Red. masses --     1.7093                 1.8754                 1.8750
 Frc consts  --     0.0000                 0.0000                 0.0000
 IR Inten    --    40.2552                 7.9988                13.3830
 Raman Activ --     0.0000                 0.0000                 0.0000
 Depolar     --     0.0000                 0.0000                 0.0000
 Atom AN      X      Y      Z        X      Y      Z        X      Y      Z
   1   6     0.09   0.15   0.05    -0.00  -0.00  -0.00    -0.00  -0.01  -0.00
   2   6    -0.09   0.14  -0.06     0.00  -0.01   0.00    -0.00   0.00  -0.00
   3   8     0.00   0.00   0.00     0.07  -0.14   0.09    -0.06   0.12  -0.08
   4   8    -0.00   0.00  -0.00    -0.06  -0.13  -0.07    -0.07  -0.14  -0.08
   5   1     0.02   0.02   0.05     0.00   0.00   0.00     0.00   0.00   0.00
   6   1    -0.35  -0.55  -0.25     0.00   0.00   0.00     0.00   0.00   0.00
   7   1    -0.02   0.01  -0.05    -0.00   0.00  -0.00     0.00  -0.00   0.00
   8   1     0.34  -0.52   0.26    -0.01   0.00  -0.00     0.00  -0.00   0.00
   9   1    -0.01   0.01  -0.00    -0.27   0.57  -0.35     0.24  -0.51   0.32
  10   1     0.01   0.01   0.00     0.24   0.52   0.30     0.27   0.58   0.33
