17
 energy: -22.483329297753 gnorm: 0.025323747531 xtb: 6.7.1 (edcfbbe)
C            2.84490436976260        0.67033482280006        0.36378675492065
C            1.98365568911162       -0.39884175869867       -0.30712436040363
C            0.49136472367233       -0.22836082802703       -0.14671967150259
C           -0.36295182429765       -1.32696580236850       -0.25677591095430
C           -1.73275851935239       -1.14992494863535       -0.12881855484108
C           -2.21752678517955        0.13277626298209        0.10875258003310
N           -1.42627298997842        1.20132380340983        0.22301089089349
C           -0.10825760509697        1.00974025169333        0.09739289709612
H            2.72339746952347        1.64949034230068       -0.10769966908521
H            3.90261344864504        0.40265429983695        0.29131537084342
H            2.59178551261490        0.77180323675515        1.42385609556922
H            2.25687051747230       -1.38567746994759        0.08525970821726
H            2.21862441511459       -0.43117182506956       -1.38012026619482
H            0.04946739391391       -2.31640952574449       -0.43874577889566
H           -2.41560974999597       -1.98959428956409       -0.20634346124143
H           -3.28662666310751        0.30855636617437        0.21618829984959
H            0.50583587329010        1.90184129813766        0.20203343991031
17
 energy: -22.484279668917 gnorm: 0.007227263028 xtb: 6.7.1 (edcfbbe)
C            2.83488650466419        0.66739903095424        0.36391607731482
C            1.97955331501497       -0.40055658442278       -0.30616025288022
C            0.49310630246096       -0.22545615275862       -0.14337233031889
C           -0.35611654089903       -1.32370974017577       -0.25453286113097
C           -1.72233844371912       -1.14711917504893       -0.12725359623868
C           -2.20229155193305        0.13224840304275        0.11002180181348
N           -1.41455045176982        1.19008328004442        0.22238058913818
C           -0.10781517321545        1.00683175864413        0.09811985672752
H            2.70877771088122        1.63778304393730       -0.11356519275283
H            3.88698798481433        0.39485278957491        0.29049689109073
H            2.57857572104519        0.76345931062911        1.41848122567585
H            2.25414542312815       -1.38262797902639        0.09261193707811
H            2.20785394728190       -0.42072129026807       -1.37876014335767
H            0.05449594165704       -2.30891230898571       -0.43947618908290
H           -2.40303950126168       -1.98271350468560       -0.20759670234320
H           -3.26466418476375        0.31768951448436        0.21566375326781
H            0.49094827272636        1.90304384009549        0.19827350021330
17
 energy: -22.484354637028 gnorm: 0.001604097837 xtb: 6.7.1 (edcfbbe)
C            2.83225672337825        0.66636182321818        0.36462394038627
C            1.97889415021871       -0.40255540704352       -0.30721552876179
C            0.49466160132511       -0.22407892146353       -0.14347604636691
C           -0.35381463006452       -1.32243711445511       -0.25428595503237
C           -1.71993519242968       -1.14741219763491       -0.12681258657327
C           -2.19829326638402        0.13186484697452        0.11089381515655
N           -1.40962712211922        1.18508438671558        0.22122132165871
C           -0.10628606105491        1.00745748651222        0.09662848927462
H            2.70397345767694        1.63358139598902       -0.11442078532817
H            3.88321687853661        0.39433603966890        0.29429290883167
H            2.57126799436024        0.76089358617882        1.41627642473153
H            2.25222347751772       -1.38377476760019        0.09141033120243
H            2.20442850521242       -0.41903610513270       -1.37923350281740
H            0.05710676373958       -2.30602622275472       -0.43888056221411
H           -2.39877006307494       -1.98265782443665       -0.20755318661455
H           -3.25794163293905        0.32304169796969        0.21888869094518
H            0.48515369221317        1.90693153332925        0.19689059573606
17
 energy: -22.484362994559 gnorm: 0.000798759115 xtb: 6.7.1 (edcfbbe)
C            2.83198920172817        0.66542572804722        0.36571275462537
C            1.97946475470460       -0.40350670711849       -0.30903156305672
C            0.49562303031621       -0.22314477588791       -0.14463960331413
C           -0.35353737497139       -1.32133317794446       -0.25419524527248
C           -1.72016805208626       -1.14827757956210       -0.12591681813772
C           -2.19867848017677        0.13127925390112        0.11227314703140
N           -1.40859023042081        1.18345493525173        0.22072525210310
C           -0.10510650599464        1.00894166624651        0.09516764606959
H            2.70387947204494        1.63189556161343       -0.11427813807903
H            3.88304561017582        0.39361369062358        0.29896520314263
H            2.56641020392140        0.75937553647246        1.41615736037286
H            2.25231924716124       -1.38502162890810        0.08816492380483
H            2.20539516174517       -0.41795884490745       -1.38066707873085
H            0.05829463417125       -2.30446871794725       -0.43856569599635
H           -2.39725875070183       -1.98478324008720       -0.20653129553173
H           -3.25751779018835        0.32527299489848        0.22209744143381
H            0.48295114468365        1.91080954134329        0.19381007374984
17
 energy: -22.484365035550 gnorm: 0.000291828964 xtb: 6.7.1 (edcfbbe)
C            2.83195154240802        0.66476124382626        0.36673507280880
C            1.97971277110275       -0.40315905795768       -0.31045493920665
C            0.49570402060787       -0.22274488675059       -0.14619780444489
C           -0.35375920470997       -1.32080430317414       -0.25421916157964
C           -1.72038564684198       -1.14862868988955       -0.12490241385695
C           -2.19919697334563        0.13089190688028        0.11323321428218
N           -1.40893119118403        1.18351816569117        0.22007203017041
C           -0.10502363229051        1.00960091801366        0.09304861664266
H            2.70615275745748        1.63177643822466       -0.11315785703240
H            3.88303240907970        0.39201245549623        0.30259207989852
H            2.56392818480978        0.75874310122055        1.41673877093706
H            2.25225634468654       -1.38547547612051        0.08524010674913
H            2.20669948324690       -0.41605579845500       -1.38199278184715
H            0.05854151824364       -2.30402136447981       -0.43847641844743
H           -2.39658646704075       -1.98613693258676       -0.20462501887778
H           -3.25789038800382        0.32526483122992        0.22456880359680
H            0.48230974788641        1.91203168486615        0.19104606442177
17
 energy: -22.484366557065 gnorm: 0.000379189296 xtb: 6.7.1 (edcfbbe)
C            2.83162637377438        0.66398193520856        0.36795238998952
C            1.97974315664216       -0.40243026087237       -0.31197450478273
C            0.49574286943882       -0.22245474072958       -0.14739711428394
C           -0.35367844999127       -1.32058840257777       -0.25410787706832
C           -1.72021449886128       -1.14885242226479       -0.12376115507702
C           -2.19912473096203        0.13059962351912        0.11410197444669
N           -1.40902924979607        1.18359024019725        0.21930849449366
C           -0.10508815555902        1.00990121910571        0.09132027332127
H            2.70849950734355        1.63148771005504       -0.11178300043040
H            3.88253491995615        0.38983920159194        0.30645083977071
H            2.56105472439718        0.75797115809423        1.41732754813376
H            2.25214414511522       -1.38569556423718        0.08159655002498
H            2.20724499339218       -0.41289818917306       -1.38347633737592
H            0.05885548556166       -2.30387184206571       -0.43803009326921
H           -2.39583236262075       -1.98697150650461       -0.20238429259281
H           -3.25765765034236        0.32509996570795        0.22673102400333
H            0.48169419862385        1.91286611098011        0.18737364491087
17
 energy: -22.484368479812 gnorm: 0.000399003635 xtb: 6.7.1 (edcfbbe)
C            2.83113626076306        0.66305481233504        0.36950224824046
C            1.97970956390960       -0.40135579851579       -0.31394460576373
C            0.49574372511176       -0.22221368604407       -0.14878935484617
C           -0.35336905084330       -1.32073294143600       -0.25346062241205
C           -1.71981992383494       -1.14910504287118       -0.12201159123481
C           -2.19878747983678        0.13034384809797        0.11519379467434
N           -1.40907054037773        1.18385374433946        0.21818361424897
C           -0.10529137590602        1.01021671725996        0.08870810104171
H            2.71141145076844        1.63117790527520       -0.10992575783492
H            3.88177310241954        0.38710971853183        0.31131072628817
H            2.55732875242013        0.75696337809089        1.41802185570748
H            2.25224950092077       -1.38590517484713        0.07640714453932
H            2.20732289083498       -0.40822036521529       -1.38545545438407
H            0.05918764258828       -2.30407945862776       -0.43703082350779
H           -2.39520081667909       -1.98750352063538       -0.19952066362837
H           -3.25726868831626        0.32463646246422        0.22868614146557
H            0.48146026216994        1.91333363783286        0.18337361162034
17
 energy: -22.484370852363 gnorm: 0.000346898909 xtb: 6.7.1 (edcfbbe)
C            2.83049978883054        0.66179144007005        0.37168374717184
C            1.97967302765066       -0.39987745837036       -0.31678875735972
C            0.49576189571175       -0.22200950645715       -0.15021105014440
C           -0.35285714352148       -1.32110329552098       -0.25250251123513
C           -1.71924275385726       -1.14939136155591       -0.11988745608504
C           -2.19834508354552        0.13021338408046        0.11586133228353
N           -1.40906984260174        1.18428734266618        0.21650951102934
C           -0.10550372302415        1.01054472580987        0.08602451004026
H            2.71458265214796        1.63092029814941       -0.10664718506109
H            3.88081588395308        0.38394958438215        0.31722891031378
H            2.55276104738666        0.75467673008401        1.41923573061183
H            2.25273829225343       -1.38619348497335        0.06868706477326
H            2.20698308568678       -0.40131281951632       -1.38838720873109
H            0.05963529099251       -2.30465602083892       -0.43472422358696
H           -2.39466704436366       -1.98793770541228       -0.19512855178604
H           -3.25681642134554        0.32382060914455        0.23073784018541
H            0.48156632375838        1.91385177429342        0.17755666179466
17
 energy: -22.484373084005 gnorm: 0.000221092589 xtb: 6.7.1 (edcfbbe)
C            2.82995382403225        0.66049328862278        0.37382059627591
C            1.97965334078620       -0.39849893496374       -0.31964351747617
C            0.49578759812390       -0.22170051522070       -0.15181639323440
C           -0.35232813349093       -1.32140459903802       -0.25116907874254
C           -1.71864689928400       -1.14977382164450       -0.11735447333947
C           -2.19794967374005        0.13005450320166        0.11674355148862
N           -1.40903540408841        1.18462617228666        0.21460083634876
C           -0.10571068059987        1.01108661612033        0.08285328842346
H            2.71659897137370        1.63083115673692       -0.10255517229221
H            3.88003131868754        0.38147973541881        0.32184841326913
H            2.54913454019010        0.75123657510581        1.42070482186172
H            2.25324631376416       -1.38642843015509        0.06114434159471
H            2.20666049125143       -0.39463095483477       -1.39126686043047
H            0.06016094347857       -2.30512995615853       -0.43211132747786
H           -2.39418037564626       -1.98837656331965       -0.19070458702641
H           -3.25646174866963        0.32327737108669        0.23168573355571
H            0.48160084994370        1.91443259279020        0.17246819141595
17
 energy: -22.484375491749 gnorm: 0.000224009200 xtb: 6.7.1 (edcfbbe)
C            2.82955344447258        0.65916053247766        0.37587262636717
C            1.97963345695962       -0.39720992073282       -0.32227724190390
C            0.49582658298762       -0.22136414216788       -0.15310339611821
C           -0.35181948880645       -1.32165079146602       -0.24953958449956
C           -1.71812546939171       -1.15013066611945       -0.11506421819424
C           -2.19773088581858        0.13002029987466        0.11681959875571
N           -1.40911853975751        1.18500555821623        0.21233496145007
C           -0.10594818239767        1.01169111546831        0.07985439632870
H            2.71734416015897        1.63107524479144       -0.09744313195027
H            3.87950922418128        0.37978629921507        0.32456709564481
H            2.54710711801037        0.74657197462144        1.42256487861021
H            2.25371598234239       -1.38668375696129        0.05395504668698
H            2.20628827994233       -0.38824452029692       -1.39390196315619
H            0.06075226836910       -2.30555220166296       -0.42912779716969
H           -2.39370130357525       -1.98887758993028       -0.18619548622998
H           -3.25625708861730        0.32284000757790        0.23222674997239
H            0.48148571705263        1.91513679312977        0.16770582962044
17
 energy: -22.484379152062 gnorm: 0.000385326360 xtb: 6.7.1 (edcfbbe)
C            2.82921826137266        0.65728814840532        0.37858176955102
C            1.97958116450099       -0.39551527044291       -0.32559650962145
C            0.49585225427798       -0.22084996292546       -0.15463194115754
C           -0.35118701988106       -1.32188903223447       -0.24726124807242
C           -1.71749328898872       -1.15060986281332       -0.11201977972874
C           -2.19758012186107        0.12998636358326        0.11671585549834
N           -1.40937177690832        1.18553637526734        0.20910125934813
C           -0.10633493876919        1.01255102200581        0.07601249456739
H            2.71708105068138        1.63167223839984       -0.08954574514080
H            3.87916044222052        0.37828963268099        0.32629152420111
H            2.54610163645803        0.73904266182488        1.42552628257432
H            2.25428795146159       -1.38700643269217        0.04463275954817
H            2.20569693151252       -0.37988116092797       -1.39721704935061
H            0.06160572922025       -2.30607715602135       -0.42458515839159
H           -2.39305353508533       -1.98960474874363       -0.18021392837824
H           -3.25617692211092        0.32241022447962        0.23202311445243
H            0.48112745801109        1.91623119618907        0.16143466431493
17
 energy: -22.484382960609 gnorm: 0.000524996545 xtb: 6.7.1 (edcfbbe)
C            2.82888708862379        0.65535707747847        0.38133608557544
C            1.97951339932608       -0.39377539326983       -0.32891341891293
C            0.49586772732342       -0.22029498920702       -0.15619107689071
C           -0.35056287965453       -1.32208695810352       -0.24495805560388
C           -1.71686802068284       -1.15107535195026       -0.10896516678880
C           -2.19743726370290        0.12991470460702        0.11665849534929
N           -1.40967446258745        1.18607615832345        0.20584662011778
C           -0.10676171837197        1.01341752203312        0.07203904259330
H            2.71703706355471        1.63219863499865       -0.08168907565746
H            3.87882949969677        0.37661941250365        0.32823779613947
H            2.54500856030362        0.73158966397051        1.42849934618140
H            2.25478843584293       -1.38731879041151        0.03530441573783
H            2.20515603761808       -0.37147346685223       -1.40053008029901
H            0.06246530496127       -2.30652516914311       -0.42019296637641
H           -2.39227806035659       -1.99041699289273       -0.17429968009098
H           -3.25607332120464        0.32195390731858        0.23218161941788
H            0.48061788542264        1.91741426663161        0.15488446372223
17
 energy: -22.484387059687 gnorm: 0.000630675561 xtb: 6.7.1 (edcfbbe)
C            2.82853471104379        0.65335611709220        0.38414779257195
C            1.97944554873959       -0.39198741618333       -0.33226389955981
C            0.49588221266659       -0.21969979444221       -0.15785853816334
C           -0.34993316894808       -1.32223110886596       -0.24275800056490
C           -1.71623070023874       -1.15153359192904       -0.10587913595387
C           -2.19729510585179        0.12980836281523        0.11673300646447
N           -1.41000687326752        1.18661949897316        0.20257341630344
C           -0.10721037668321        1.01430569335648        0.06792879018332
H            2.71709703162056        1.63266614506408       -0.07371711813181
H            3.87846310223953        0.37481049024580        0.33034110342282
H            2.54380984497021        0.72406439132099        1.43147449486780
H            2.25524447538664       -1.38759002770185        0.02585175118384
H            2.20469784964872       -0.36295085248326       -1.40381300612824
H            0.06336522729274       -2.30692712337301       -0.41580142441287
H           -2.39141012405114       -1.99128620944612       -0.16829049051521
H           -3.25596194882012        0.32148107265563        0.23254064502440
H            0.48002357036464        1.91866858893607        0.14803897762246
17
 energy: -22.484391529710 gnorm: 0.000709689464 xtb: 6.7.1 (edcfbbe)
C            2.82815846586413        0.65127123665563        0.38704275261486
C            1.97937847298070       -0.39014085847750       -0.33569003831977
C            0.49589720694070       -0.21906493799847       -0.15963134729116
C           -0.34928689011999       -1.32234191220773       -0.24054714476484
C           -1.71557053750706       -1.15199239166522       -0.10271335431620
C           -2.19714674966103        0.12967931052141        0.11687781312050
N           -1.41036050374274        1.18716921829092        0.19923693635078
C           -0.10767846649672        1.01522148914817        0.06365844693669
H            2.71719686948570        1.63307579793593       -0.06556663834037
H            3.87807737707864        0.37289756016081        0.33258243721766
H            2.54251758914035        0.71637582589119        1.43449937547933
H            2.25566031447197       -1.38780995843593        0.01623722479560
H            2.20430461246848       -0.35426966774575       -1.40712090247443
H            0.06430272755268       -2.30728051844797       -0.41142542825119
H           -2.39045743557460       -1.99219907202956       -0.16216481900627
H           -3.25582946979415        0.32098713386326        0.23310714972959
H            0.47935169302535        1.91999598057566        0.14086590073368
17
 energy: -22.484396435634 gnorm: 0.000778649007 xtb: 6.7.1 (edcfbbe)
C            2.82775332811489        0.64909455721251        0.39002843273505
C            1.97931382835314       -0.38823274136166       -0.33920343089480
C            0.49591461364739       -0.21839365506452       -0.16148986708111
C           -0.34861636032903       -1.32242050636855       -0.23833320118892
C           -1.71488207013977       -1.15245335939513       -0.09944817321101
C           -2.19699062631684        0.12953453235803        0.11709147993241
N           -1.41073718948559        1.18773359583474        0.19579261584158
C           -0.10817106117684        1.01617014960652        0.05921124638962
H            2.71729936152831        1.63345073560917       -0.05714618393296
H            3.87766416560042        0.37089413126367        0.33492340654342
H            2.54115273909191        0.70843147145392        1.43758348517194
H            2.25606311318421       -1.38799693025798        0.00636850954988
H            2.20396189697175       -0.34534793480912       -1.41046142522397
H            0.06528883720683       -2.30760093615578       -0.40699373148296
H           -2.38943066662472       -1.99314987037329       -0.15584526168472
H           -3.25568341218044        0.32047279584686        0.23381259755861
H            0.47861477866681        1.92138820063549        0.13335786519241
17
 energy: -22.484401817509 gnorm: 0.000835031392 xtb: 6.7.1 (edcfbbe)
C            2.82732115155439        0.64682469914877        0.39310774547744
C            1.97924974602597       -0.38625648339232       -0.34280648658551
C            0.49593228976007       -0.21768316553453       -0.16346662873842
C           -0.34792110223433       -1.32247160300873       -0.23610399266487
C           -1.71416286258175       -1.15291327115928       -0.09610046886033
C           -2.19682516243816        0.12937598997263        0.11735318449993
N           -1.41113169172086        1.18830661255625        0.19226144028069
C           -0.10868386693238        1.01715178123541        0.05457961259799
H            2.71737549003559        1.63377654712075       -0.04845946517699
H            3.87723085541867        0.36881810665470        0.33734719849348
H            2.53972659888402        0.70022563735522        1.44073444496677
H            2.25644255891674       -1.38812580622314       -0.00373006503392
H            2.20366891800162       -0.33620884447754       -1.41382893844175
H            0.06632174600147       -2.30788930664795       -0.40249658720488
H           -2.38833302305529       -1.99412799519933       -0.14934261109570
H           -3.25551821145240        0.31993395779176        0.23466950541286
H            0.47782184192903        1.92283737984218        0.12553047628767
17
 energy: -22.484407724250 gnorm: 0.000891179576 xtb: 6.7.1 (edcfbbe)
C            2.82685733910719        0.64445318034196        0.39628347494939
C            1.97918749115615       -0.38421155200824       -0.34651083582707
C            0.49595321143053       -0.21693842169093       -0.16551438603022
C           -0.34719283051199       -1.32249934485142       -0.23382458226916
C           -1.71340767860714       -1.15337723896183       -0.09262815249398
C           -2.19664955075770        0.12920890143874        0.11766030505911
N           -1.41154875630686        1.18889742248645        0.18860044553819
C           -0.10922298317533        1.01816655521149        0.04977379964281
H            2.71740293875169        1.63406657162580       -0.03944951735897
H            3.87677236934694        0.36667352216075        0.33982521290131
H            2.53825872571209        0.69169690453034        1.44395770426763
H            2.25682223168385       -1.38821206010393       -0.01412069983397
H            2.20340994943558       -0.32679206266732       -1.41724020141950
H            0.06740889839504       -2.30814894092896       -0.39791283644929
H           -2.38716669740704       -1.99513053083493       -0.14263311239541
H           -3.25533999128204        0.31937610362049        0.23561758448815
H            0.47697060914143        1.92434522666642        0.11736416144544
17
 energy: -22.484414189171 gnorm: 0.000943591048 xtb: 6.7.1 (edcfbbe)
C            2.82636941979916        0.64198375869599        0.39954804911607
C            1.97912466584566       -0.38209587448003       -0.35029989032692
C            0.49597401087866       -0.21615563648376       -0.16766499268173
C           -0.34643575373241       -1.32249965681727       -0.23152204492704
C           -1.71261911759488       -1.15383745866330       -0.08907343571903
C           -2.19646508525322        0.12903304578081        0.11799858728293
N           -1.41198614693650        1.18949737397503        0.18483857633986
C           -0.10978641630640        1.01921344939683        0.04478783364015
H            2.71736717980380        1.63430464505764       -0.03014387837009
H            3.87629979284248        0.36447651464389        0.34233967426365
H            2.53676436228463        0.68286505923536        1.44724461046132
H            2.25718763357582       -1.38823304153887       -0.02475285874784
H            2.20318674273547       -0.31714182118962       -1.42066658728453
H            0.06854790167547       -2.30837882241434       -0.39323622423400
H           -2.38593316157025       -1.99615196571325       -0.13572583455453
H           -3.25514629535215        0.31879488974075        0.23667597099990
H            0.47606554341708        1.92589977680902        0.10890080895630
17
 energy: -22.484421244797 gnorm: 0.000996582851 xtb: 6.7.1 (edcfbbe)
C            2.82584820951837        0.63941892484330        0.40289409793665
C            1.97906362340016       -0.37991793844723       -0.35417323118814
C            0.49599781906742       -0.21533982615889       -0.16989018231929
C           -0.34564563487479       -1.32247622238691       -0.22917450830976
C           -1.71179356390483       -1.15429551612604       -0.08541757234493
C           -2.19626961152153        0.12885150968350        0.11837076569414
N           -1.41244302153788        1.19011027386702        0.18096815922442
C           -0.11037284674842        1.02028947440047        0.03964235377508
H            2.71724914169347        1.63449736737845       -0.02053501727674
H            3.87580345434085        0.36223600650102        0.34486889499944
H            2.53525166236396        0.67371870036580        1.45058892504090
H            2.25754883125948       -1.38819742761292       -0.03562896891044
H            2.20299848247820       -0.30725625936538       -1.42410988641484
H            0.06974122122587       -2.30857805581214       -0.38847148859916
H           -2.38463375541822       -1.99718470096642       -0.12863937959379
H           -3.25493780000229        0.31819733032747        0.23781478737444
H            0.47510906477259        1.92750059554380        0.10014061512647
17
 energy: -22.484428919212 gnorm: 0.001048963046 xtb: 6.7.1 (edcfbbe)
C            2.82530407037969        0.63676157897298        0.40631091889964
C            1.97900250829066       -0.37767816686182       -0.35811229589565
C            0.49602179631153       -0.21449045437338       -0.17219154358928
C           -0.34482635092294       -1.32242500332894       -0.22680048547875
C           -1.71093514625553       -1.15474687960855       -0.08168473552513
C           -2.19606595374664        0.12866512965103        0.11876708581977
N           -1.41292097297195        1.19073135990514        0.17700207906373
C           -0.11098418938722        1.02139156031009        0.03434650999352
H            2.71703888083862        1.63463050231603       -0.01065129629172
H            3.87529746073643        0.35996763409968        0.34739325773380
H            2.53374129770998        0.66427857772224        1.45397728363025
H            2.25790114998838       -1.38809075754651       -0.04670303357493
H            2.20284327270638       -0.29717263158764       -1.42754566724899
H            0.07098621189867       -2.30874346787890       -0.38362951715766
H           -2.38327204769940       -1.99822569619454       -0.12138756914205
H           -3.25471635495912        0.31758273064029        0.23903517480197
H            0.47409964319486        1.92913821979769        0.09112219817596
17
 energy: -22.484437235660 gnorm: 0.001102515515 xtb: 6.7.1 (edcfbbe)
C            2.82473049182091        0.63401853392115        0.40978863770301
C            1.97894291435054       -0.37538582174486       -0.36210842413742
C            0.49604815928243       -0.21361076115720       -0.17455559022395
C           -0.34397648084099       -1.32234729873128       -0.22439437604992
C           -1.71004254402584       -1.15519017639246       -0.07787570069266
C           -2.19585241878653        0.12847579951898        0.11918776935607
N           -1.41341764061878        1.19136063774774        0.17294686246975
C           -0.11161746823788        1.02251634827329        0.02891846449587
H            2.71672292988907        1.63470731755603       -0.00050443040200
H            3.87477465725084        0.35768190031220        0.34989299786632
H            2.53224227703301        0.65455334882886        1.45740079150774
H            2.25824661774325       -1.38791786051736       -0.05795454682781
H            2.20272038551779       -0.28691039178433       -1.43096576042534
H            0.07228247343862       -2.30887394775956       -0.37871831249793
H           -2.38184895437002       -1.99926807017347       -0.11399282706898
H           -3.25448142998322        0.31695556994620        0.24032094171820
H            0.47304130664924        1.93080910819096        0.08186186742351
17
 energy: -22.484445054154 gnorm: 0.000411819244 xtb: 6.7.1 (edcfbbe)
C            2.82431282189355        0.63202610153544        0.41180169487331
C            1.97903225507560       -0.37420579175417       -0.36347070580644
C            0.49600995123010       -0.21247910907037       -0.17709323312241
C           -0.34380561284279       -1.32118577266021       -0.22551458753200
C           -1.70962693584295       -1.15514478683900       -0.07635473018066
C           -2.19594442582109        0.12812349219834        0.12046862157419
N           -1.41417766202088        1.19171251608965        0.17089541769509