
                                 *****************
                                 * O   R   C   A *
                                 *****************

                                            #,                                       
                                            ###                                      
                                            ####                                     
                                            #####                                    
                                            ######                                   
                                           ########,                                 
                                     ,,################,,,,,                         
                               ,,#################################,,                 
                          ,,##########################################,,             
                       ,#########################################, ''#####,          
                    ,#############################################,,   '####,        
                  ,##################################################,,,,####,       
                ,###########''''           ''''###############################       
              ,#####''   ,,,,##########,,,,          '''####'''          '####       
            ,##' ,,,,###########################,,,                        '##       
           ' ,,###''''                  '''############,,,                           
         ,,##''                                '''############,,,,        ,,,,,,###''
      ,#''                                            '''#######################'''  
     '                                                          ''''####''''         
             ,#######,   #######,   ,#######,      ##                                
            ,#'     '#,  ##    ##  ,#'     '#,    #''#        ,####,   ,####,        
            ##       ##  ##   ,#'  ##            #'  '#       #'       #'  '#        
            ##       ##  #######   ##           ,######,      #####,   #    #        
            '#,     ,#'  ##    ##  '#,     ,#' ,#      #,     #,   #   #,  ,#        
             '#######'   ##     ##  '#######'  #'      '#     '####' # '####'        



                #########################################################
                #                        -***-                          #
                #          Department of theory and spectroscopy        #
                #                                                       #
                #                      Frank Neese                      #
                #                                                       #
                #     Directorship, Architecture, Infrastructure        #
                #                    SHARK, DRIVERS                     #
                #        Core code/Algorithms in most modules           #
                #                                                       #
                #        Max Planck Institute fuer Kohlenforschung      #
                #                Kaiser Wilhelm Platz 1                 #
                #                 D-45470 Muelheim/Ruhr                 #
                #                      Germany                          #
                #                                                       #
                #                  All rights reserved                  #
                #                        -***-                          #
                #########################################################


                         Program Version 6.0.0  -   RELEASE  -


 With contributions from (in alphabetic order):
   Daniel Aravena         : Magnetic Suceptibility
   Michael Atanasov       : Ab Initio Ligand Field Theory (pilot matlab implementation)
   Alexander A. Auer      : GIAO ZORA, VPT2 properties, NMR spectrum
   Ute Becker             : All parallelization in ORCA, NUMFREQ, NUMCALC
   Giovanni Bistoni       : ED, misc. LED, open-shell LED, HFLD
   Martin Brehm           : Molecular dynamics
   Dmytro Bykov           : pre 5.0 version of the SCF Hessian
   Marcos Casanova-Páez   : Triplet and SCS-CIS(D). UHF-(DLPNO)-IP/EA/STEOM-CCSD. UHF-CVS-IP/STEOM-CCSD
   Vijay G. Chilkuri      : MRCI spin determinant printing, contributions to CSF-ICE
   Pauline Colinet        : FMM embedding
   Dipayan Datta          : RHF DLPNO-CCSD density
   Achintya Kumar Dutta   : EOM-CC, STEOM-CC
   Nicolas Foglia         : Exact transition moments, OPA infrastructure, MCD improvements
   Dmitry Ganyushin       : Spin-Orbit,Spin-Spin,Magnetic field MRCI
   Miquel Garcia          : C-PCM and meta-GGA Hessian, CCSD/C-PCM, Gaussian charge scheme
   Tiago L. C. Gouveia    : GS-ROHF, GS-ROCIS
   Yang Guo               : DLPNO-NEVPT2, F12-NEVPT2, CIM, IAO-localization
   Andreas Hansen         : Spin unrestricted coupled pair/coupled cluster methods
   Ingolf Harden          : AUTO-CI MPn and infrastructure 
   Benjamin Helmich-Paris : MC-RPA, TRAH-(SCF,CASSCF), AVAS, COSX integrals, SCF dyn. polar.
   Lee Huntington         : MR-EOM, pCC
   Robert Izsak           : Overlap fitted RIJCOSX, COSX-SCS-MP3, EOM
   Riya Kayal             : Wick's Theorem for AUTO-CI, AUTO-CI UHF-CCSDT
   Emily Kempfer          : AUTO-CI, RHF CISDT and CCSDT
   Christian Kollmar      : KDIIS, OOCD, Brueckner-CCSD(T), CCSD density, CASPT2, CASPT2-K, improved NEVPT2
   Axel Koslowski         : Symmetry handling
   Simone Kossmann        : Meta GGA functionals, TD-DFT gradient, OOMP2, (MP2 Hessian; deprecated post 5.0)
   Lucas Lang             : DCDCAS
   Marvin Lechner         : AUTO-CI (C++ implementation), FIC-MRCC
   Spencer Leger          : CASSCF response
   Dagmar Lenk            : GEPOL surface, SMD, ORCA-2-JSON
   Dimitrios Liakos       : Extrapolation schemes; Compound Job, initial MDCI parallelization
   Dimitrios Manganas     : Further ROCIS development; embedding schemes. LFT, Crystal Embedding
   Dimitrios Pantazis     : SARC Basis sets
   Anastasios Papadopoulos: AUTO-CI, single reference methods and gradients
   Taras Petrenko         : pre 6.0 DFT Hessian and TD-DFT gradient, (ASA, deprecated), ECA, 1-Electron XAS/XES, NRVS
   Peter Pinski           : DLPNO-MP2, DLPNO-MP2 Gradient
   Christoph Reimann      : Effective Core Potentials
   Marius Retegan         : Local ZFS, SOC
   Christoph Riplinger    : Optimizer, TS searches, QM/MM, DLPNO-CCSD(T), (RO)-DLPNO pert. Triples
   Michael Roemelt        : Original ROCIS implementation
   Masaaki Saitow         : Open-shell DLPNO-CCSD energy and density
   Barbara Sandhoefer     : DKH picture change effects
   Kantharuban Sivalingam : CASSCF convergence/infrastructure, NEVPT2 and variants, FIC-MRCI
   Bernardo de Souza      : ESD, SOC TD-DFT
   Georgi Stoychev        : AutoAux, RI-MP2 NMR, DLPNO-MP2 response, X2C
   Van Anh Tran           : RI-MP2 g-tensors
   Willem Van den Heuvel  : Paramagnetic NMR
   Zikuan Wang            : NOTCH, Electric field optimization 
   Frank Wennmohs         : Technical directorship and infrastructure
   Hang Xu                : AUTO-CI-Response properties 


 We gratefully acknowledge several colleagues who have allowed us to
 interface, adapt or use parts of their codes:
   Stefan Grimme, W. Hujo, H. Kruse, P. Pracht,  : VdW corrections, initial TS optimization,
                  C. Bannwarth, S. Ehlert,         DFT functionals, gCP, sTDA/sTD-DF
                  L. Wittmann, M. Mueller
   Ed Valeev, F. Pavosevic, A. Kumar             : LibInt (2-el integral package), F12 methods
   Garnet Chan, S. Sharma, J. Yang, R. Olivares  : DMRG
   Ulf Ekstrom                                   : XCFun DFT Library
   Mihaly Kallay                                 : mrcc  (arbitrary order and MRCC methods)
   Frank Weinhold                                : gennbo (NPA and NBO analysis)
   Simon Mueller                                 : openCOSMO-RS
   Christopher J. Cramer and Donald G. Truhlar   : smd solvation model
   Lars Goerigk                                  : TD-DFT with DH, B97 family of functionals
   V. Asgeirsson, H. Jonsson                     : NEB implementation
   FAccTs GmbH                                   : IRC, NEB, NEB-TS, DLPNO-Multilevel, CI-OPT
                                                   MM, QMMM, 2- and 3-layer-ONIOM, Crystal-QMMM,
                                                   LR-CPCM, SF, NACMEs, symmetry and pop. for TD-DFT,
                                                   nearIR, NL-DFT gradient (VV10), updates on ESD,
                                                   ML-optimized integration grids, MBIS, APM,
                                                   GOAT, DOCKER, SOLVATOR, interface openCOSMO-RS
   S Lehtola, MJT Oliveira, MAL Marques          : LibXC Library
   Liviu Ungur et al                             : ANISO software


 Your calculation uses the libint2 library for the computation of 2-el integrals
 For citations please refer to: http://libint.valeyev.net

 Your ORCA version has been built with support for libXC version: 6.2.2
 For citations please refer to: https://libxc.gitlab.io

 This ORCA versions uses:
   CBLAS   interface :  Fast vector & matrix operations
   LAPACKE interface :  Fast linear algebra routines
   SCALAPACK package :  Parallel linear algebra routines
   Shared memory     :  Shared parallel matrices
   BLAS/LAPACK       :  OpenBLAS 0.3.27  USE64BITINT DYNAMIC_ARCH NO_AFFINITY SkylakeX SINGLE_THREADED
        Core in use  :  SkylakeX
   Copyright (c) 2011-2014, The OpenBLAS Project




***************************************
The coordinates will be read from file: vacuum_censo.xyz
***************************************


Your calculation utilizes the geometrical counterpoise correction gCP
Please cite in your paper:
H.Kruse, S. Grimme J.Chem.Phys., 136, (2012), 154101 
   

Your calculation utilizes the atom-pairwise dispersion correction
based on EEQ partial charges (D4)


================================================================================

----- Orbital basis set information -----
Your calculation utilizes the basis: def2-TZVP
   F. Weigend and R. Ahlrichs, Phys. Chem. Chem. Phys. 7, 3297 (2005).

----- AuxJ basis set information -----
Your calculation utilizes the basis: def2-mTZVPP/J
   Stefan Grimme, Andreas Hansen, Sebastian Ehlert, and Jan-Michael Mewes 
   J. Chem. Phys. 154, 000000 (2021). DOI: 10.1063/5.0040021

================================================================================
                                        WARNINGS
                       Please study these warnings very carefully!
================================================================================

Using LibXC functional ID 497 : Re-regularized SCAN exchange by Furness et al
[ 1]  J. W. Furness, A. D. Kaplan, J. Ning, J. P. Perdew, and J. Sun.,  J. Phys. Chem. Lett. 11, 8208-8215 (2020)
[ 2]  J. W. Furness, A. D. Kaplan, J. Ning, J. P. Perdew, and J. Sun.,  J. Phys. Chem. Lett. 11, 9248-9248 (2020)
Using LibXC functional ID 498 : Re-regularized SCAN correlation by Furness et al
[ 1]  J. W. Furness, A. D. Kaplan, J. Ning, J. P. Perdew, and J. Sun.,  J. Phys. Chem. Lett. 11, 8208-8215 (2020)
[ 2]  J. W. Furness, A. D. Kaplan, J. Ning, J. P. Perdew, and J. Sun.,  J. Phys. Chem. Lett. 11, 9248-9248 (2020)
Using LibXC functional ID 497 : Re-regularized SCAN exchange by Furness et al
[ 1]  J. W. Furness, A. D. Kaplan, J. Ning, J. P. Perdew, and J. Sun.,  J. Phys. Chem. Lett. 11, 8208-8215 (2020)
[ 2]  J. W. Furness, A. D. Kaplan, J. Ning, J. P. Perdew, and J. Sun.,  J. Phys. Chem. Lett. 11, 9248-9248 (2020)
Using LibXC functional ID 498 : Re-regularized SCAN correlation by Furness et al
[ 1]  J. W. Furness, A. D. Kaplan, J. Ning, J. P. Perdew, and J. Sun.,  J. Phys. Chem. Lett. 11, 8208-8215 (2020)
[ 2]  J. W. Furness, A. D. Kaplan, J. Ning, J. P. Perdew, and J. Sun.,  J. Phys. Chem. Lett. 11, 9248-9248 (2020)

================================================================================
                                       INPUT FILE
================================================================================
NAME = vacuum_censo.inp
|  1> ! r2SCAN-3c DEF2-TZVP FREQ
|  2> * xyzfile 0 1 vacuum_censo.xyz
|  3> 
|  4>                          ****END OF INPUT****
================================================================================

                       ****************************
                       * Single Point Calculation *
                       ****************************

---------------------------------
CARTESIAN COORDINATES (ANGSTROEM)
---------------------------------
  C     -2.449905   -0.000016    0.010907
  C     -0.945483   -0.000057   -0.011547
  C     -0.229062   -1.199253   -0.008681
  C      1.162194   -1.201786    0.002591
  C      1.863856    0.000043    0.008723
  C      1.162095    1.201844    0.002438
  C     -0.229133    1.199213   -0.008826
  H     -2.855014   -0.887492   -0.482785
  H     -2.823394    0.002481    1.041733
  H     -2.855005    0.885127   -0.486993
  H     -0.769316   -2.142260   -0.016523
  H      1.699701   -2.145084    0.002259
  H      2.949084    0.000099    0.014036
  H      1.699561    2.145165    0.002020
  H     -0.769477    2.142172   -0.016784

----------------------------
CARTESIAN COORDINATES (A.U.)
----------------------------
  NO LB      ZA    FRAG     MASS         X           Y           Z
   0 C     6.0000    0    12.011   -4.629650   -0.000031    0.020611
   1 C     6.0000    0    12.011   -1.786704   -0.000108   -0.021821
   2 C     6.0000    0    12.011   -0.432865   -2.266259   -0.016405
   3 C     6.0000    0    12.011    2.196229   -2.271047    0.004897
   4 C     6.0000    0    12.011    3.522178    0.000082    0.016484
   5 C     6.0000    0    12.011    2.196042    2.271157    0.004607
   6 C     6.0000    0    12.011   -0.432998    2.266185   -0.016679
   7 H     1.0000    0     1.008   -5.395195   -1.677116   -0.912331
   8 H     1.0000    0     1.008   -5.335442    0.004688    1.968590
   9 H     1.0000    0     1.008   -5.395178    1.672647   -0.920283
  10 H     1.0000    0     1.008   -1.453797   -4.048286   -0.031224
  11 H     1.0000    0     1.008    3.211970   -4.053621    0.004269
  12 H     1.0000    0     1.008    5.572960    0.000188    0.026525
  13 H     1.0000    0     1.008    3.211705    4.053775    0.003817
  14 H     1.0000    0     1.008   -1.454101    4.048119   -0.031718

--------------------------------
INTERNAL COORDINATES (ANGSTROEM)
--------------------------------
 C      0   0   0     0.000000000000     0.00000000     0.00000000
 C      1   0   0     1.504590147361     0.00000000     0.00000000
 C      2   1   0     1.396902609520   120.85046568     0.00000000
 C      3   2   1     1.391304445187   120.95909292   181.53709129
 C      4   3   2     1.391675683130   120.17419174   359.88072967
 C      5   4   3     1.391701436543   119.43877083   359.95061724
 C      6   5   4     1.391276071839   120.17433976     0.04973246
 H      1   2   3     1.093369773640   111.32833841   329.97136187
 H      1   2   3     1.096404042782   110.77152928    89.49122096
 H      1   2   3     1.093384071337   111.32672107   209.00432542
 H      3   2   1     1.086830231534   119.33464935     1.60660030
 H      4   3   2     1.085690582892   119.77830948   180.14444670
 H      5   4   3     1.085240395903   120.28123425   180.21274748
 H      6   5   4     1.085690605652   120.04535068   180.31171821
 H      7   6   5     1.086833427904   119.70765178   180.18876205

---------------------------
INTERNAL COORDINATES (A.U.)
---------------------------
 C      0   0   0     0.000000000000     0.00000000     0.00000000
 C      1   0   0     2.843263322309     0.00000000     0.00000000
 C      2   1   0     2.639763367752   120.85046568     0.00000000
 C      3   2   1     2.629184370311   120.95909292   181.53709129
 C      4   3   2     2.629885908354   120.17419174   359.88072967
 C      5   4   3     2.629934575251   119.43877083   359.95061724
 C      6   5   4     2.629130752453   120.17433976     0.04973246
 H      1   2   3     2.066169435286   111.32833841   329.97136187
 H      1   2   3     2.071903372981   110.77152928    89.49122096
 H      1   2   3     2.066196454019   111.32672107   209.00432542
 H      3   2   1     2.053811491666   119.33464935     1.60660030
 H      4   3   2     2.051657867843   119.77830948   180.14444670
 H      5   4   3     2.050807137726   120.28123425   180.21274748
 H      6   5   4     2.051657910854   120.04535068   180.31171821
 H      7   6   5     2.053817531930   119.70765178   180.18876205

---------------------
BASIS SET INFORMATION
---------------------
There are 2 groups of distinct atoms

 Group   1 Type C   : 11s6p2d1f contracted to 5s3p2d1f pattern {62111/411/11/1}
 Group   2 Type H   : 5s1p contracted to 3s1p pattern {311/1}

Atom   0C    basis set group =>   1
Atom   1C    basis set group =>   1
Atom   2C    basis set group =>   1
Atom   3C    basis set group =>   1
Atom   4C    basis set group =>   1
Atom   5C    basis set group =>   1
Atom   6C    basis set group =>   1
Atom   7H    basis set group =>   2
Atom   8H    basis set group =>   2
Atom   9H    basis set group =>   2
Atom  10H    basis set group =>   2
Atom  11H    basis set group =>   2
Atom  12H    basis set group =>   2
Atom  13H    basis set group =>   2
Atom  14H    basis set group =>   2
---------------------------------
AUXILIARY/J BASIS SET INFORMATION
---------------------------------
There are 2 groups of distinct atoms

 Group   1 Type C   : 8s3p3d contracted to 6s3p3d pattern {311111/111/111}
 Group   2 Type H   : 5s2p1d contracted to 3s1p1d pattern {311/2/1}

Atom   0C    basis set group =>   1
Atom   1C    basis set group =>   1
Atom   2C    basis set group =>   1
Atom   3C    basis set group =>   1
Atom   4C    basis set group =>   1
Atom   5C    basis set group =>   1
Atom   6C    basis set group =>   1
Atom   7H    basis set group =>   2
Atom   8H    basis set group =>   2
Atom   9H    basis set group =>   2
Atom  10H    basis set group =>   2
Atom  11H    basis set group =>   2
Atom  12H    basis set group =>   2
Atom  13H    basis set group =>   2
Atom  14H    basis set group =>   2
------------------------------------------------------------------------------
                             ORCA STARTUP CALCULATIONS
                           -- RI-GTO INTEGRALS CHOSEN --
------------------------------------------------------------------------------
------------------------------------------------------------------------------
                   ___                                                        
                  /   \      - P O W E R E D   B Y -                         
                 /     \                                                     
                 |  |  |   _    _      __       _____    __    __             
                 |  |  |  | |  | |    /  \     |  _  \  |  |  /  |          
                  \  \/   | |  | |   /    \    | | | |  |  | /  /          
                 / \  \   | |__| |  /  /\  \   | |_| |  |  |/  /          
                |  |  |   |  __  | /  /__\  \  |    /   |      \           
                |  |  |   | |  | | |   __   |  |    \   |  |\   \          
                \     /   | |  | | |  |  |  |  | |\  \  |  | \   \       
                 \___/    |_|  |_| |__|  |__|  |_| \__\ |__|  \__/        
                                                                              
                      - O R C A' S   B I G   F R I E N D -                    
                                      &                                       
                       - I N T E G R A L  F E E D E R -                       
                                                                              
 v1 FN, 2020, v2 2021, v3 2022-2024                                           
------------------------------------------------------------------------------


----------------------
SHARK INTEGRAL PACKAGE
----------------------

Number of atoms                             ...     15
Number of basis functions                   ...    265
Number of shells                            ...    109
Maximum angular momentum                    ...      3
Integral batch strategy                     ... SHARK/LIBINT Hybrid
RI-J (if used) integral strategy            ... SPLIT-RIJ (Revised 2003 algorithm where possible)
Printlevel                                  ...      1
Contraction scheme used                     ... SEGMENTED contraction
Prescreening option                         ... SCHWARTZ
   Thresh                                   ... 1.000e-10
   Tcut                                     ... 1.000e-11
   Tpresel                                  ... 1.000e-11 
Coulomb Range Separation                    ... NOT USED
Exchange Range Separation                   ... NOT USED
Multipole approximations                    ... NOT USED
Finite Nucleus Model                        ... NOT USED
CABS basis                                  ... NOT available
Auxiliary Coulomb fitting basis             ... AVAILABLE
   # of basis functions in Aux-J            ...    298
   # of shells in Aux-J                     ...    124
   Maximum angular momentum in Aux-J        ...      2
Auxiliary J/K fitting basis                 ... NOT available
Auxiliary Correlation fitting basis         ... NOT available
Auxiliary 'external' fitting basis          ... NOT available

Checking pre-screening integrals            ... done (  0.0 sec) Dimension = 109
Check shell pair data                       ... done (  0.0 sec)
Shell pair information
Shell pair cut-off parameter TPreSel        ...   1.0e-11
Total number of shell pairs                 ...      5995
Shell pairs after pre-screening             ...      5609
Total number of primitive shell pairs       ...     17944
Primitive shell pairs kept                  ...     12963
          la=0 lb=0:   1583 shell pairs
          la=1 lb=0:   1601 shell pairs
          la=1 lb=1:    416 shell pairs
          la=2 lb=0:    795 shell pairs
          la=2 lb=1:    394 shell pairs
          la=2 lb=2:    104 shell pairs
          la=3 lb=0:    391 shell pairs
          la=3 lb=1:    199 shell pairs
          la=3 lb=2:     98 shell pairs
          la=3 lb=3:     28 shell pairs

Calculating one electron integrals          ... done (  0.0 sec)
Calculating RI/J V-Matrix + Cholesky decomp.... done (  0.0 sec)
Calculating Nuclear repulsion               ... done (  0.0 sec) ENN=    269.480598868630 Eh

Diagonalization of the overlap matrix:
Smallest eigenvalue                        ... 8.649e-06
Time for diagonalization                   ...    0.007 sec
Threshold for overlap eigenvalues          ... 1.000e-07
Number of eigenvalues below threshold      ... 0
Time for construction of square roots      ...    0.016 sec
Total time needed                          ...    0.031 sec

-------------------
DFT GRID GENERATION
-------------------

General Integration Accuracy     IntAcc      ... 4.388
Radial Grid Type                 RadialGrid  ... OptM3 with GC (2021)
Angular Grid (max. ang.)         AngularGrid ... 4 (Lebedev-302)
Angular grid pruning method      GridPruning ... 4 (adaptive)
Weight generation scheme         WeightScheme... mBecke (2022)
Basis function cutoff            BFCut       ... 1.0000e-10
Integration weight cutoff        WCut        ... 1.0000e-14
Partially contracted basis set               ... off
Rotationally invariant grid construction     ... off
Angular grids for H and He will be reduced by one unit

Total number of grid points                  ...    67855
Total number of batches                      ...     1067
Average number of points per batch           ...       63
Average number of grid points per atom       ...     4524
Initializing property integral containers    ... done (  0.0 sec)

SHARK setup successfully completed in   1.1 seconds

Maximum memory used throughout the entire STARTUP-calculation: 36.8 MB
-------------------------------------------------------------------------------
                                 ORCA GUESS
                   Start orbitals & Density for SCF / CASSCF
-------------------------------------------------------------------------------

------------
SCF SETTINGS
------------
Hamiltonian:
 Density Functional     Method          .... DFT(GTOs)
  Functional kind                       .... Exchange
  Functional name                       .... Re-regularized SCAN exchange by Furness et al
  Functional family                     .... MGGA
  Functional refs                              
    [ 0] J. W. Furness, A. D. Kaplan, J. Ning, J. P. Perdew, and J. Sun.,  J. Phys. Chem. Lett. 11, 8208-8215 (2020), doi: 10.1021/acs.jpclett.0c02405
    [ 1] J. W. Furness, A. D. Kaplan, J. Ning, J. P. Perdew, and J. Sun.,  J. Phys. Chem. Lett. 11, 9248-9248 (2020), doi: 10.1021/acs.jpclett.0c03077
  Functional external parameters        .... 6
    Parameter  0 _c1        =  6.670000e-01 : c1 parameter        
    Parameter  1 _c2        =  8.000000e-01 : c2 parameter        
    Parameter  2 _d         =  1.240000e+00 : d parameter         
    Parameter  3 _k1        =  6.500000e-02 : k1 parameter        
    Parameter  4 _eta       =  1.000000e-03 : eta parameter       
    Parameter  5 _dp2       =  3.610000e-01 : dp2 parameter       
  Functional kind                       .... Correlation
  Functional name                       .... Re-regularized SCAN correlation by Furness et al
  Functional family                     .... MGGA
  Functional refs                              
    [ 0] J. W. Furness, A. D. Kaplan, J. Ning, J. P. Perdew, and J. Sun.,  J. Phys. Chem. Lett. 11, 8208-8215 (2020), doi: 10.1021/acs.jpclett.0c02405
    [ 1] J. W. Furness, A. D. Kaplan, J. Ning, J. P. Perdew, and J. Sun.,  J. Phys. Chem. Lett. 11, 9248-9248 (2020), doi: 10.1021/acs.jpclett.0c03077
  Functional external parameters        .... 1
    Parameter  0 _eta       =  1.000000e-03 : Regularization parameter
 Gradients option       PostSCFGGA      .... off
 RI-approximation to the Coulomb term is turned on
   Number of AuxJ basis functions       .... 298


General Settings:
 Integral files         IntName         .... vacuum_censo
 Hartree-Fock type      HFTyp           .... RHF
 Total Charge           Charge          ....    0
 Multiplicity           Mult            ....    1
 Number of Electrons    NEL             ....   50
 Basis Dimension        Dim             ....  265
 Nuclear Repulsion      ENuc            ....    269.4805988686 Eh

Convergence Acceleration:
 AO-DIIS                CNVDIIS         .... on
   Start iteration      DIISMaxIt       ....    12
   Startup error        DIISStart       ....  0.200000
   # of expansion vecs  DIISMaxEq       ....     5
   Bias factor          DIISBfac        ....   1.050
   Max. coefficient     DIISMaxC        ....  10.000
 MO-DIIS                CNVKDIIS        .... off
 Trust-Rad. Augm. Hess. CNVTRAH         .... auto
   Auto Start mean grad. ratio tolernc. ....  1.125000
   Auto Start start iteration           ....    50
   Auto Start num. interpolation iter.  ....    10
   Max. Number of Micro iterations      ....    24
   Max. Number of Macro iterations      .... Maxiter - #DIIS iter
   Number of Davidson start vectors     ....     2
   Converg. threshold    (grad. norm)   ....   5.000e-05
   Grad. Scal. Fac. for Micro threshold ....   0.100
   Minimum threshold for Micro iter.    ....   1.000e-02
   NR start threshold (gradient norm)   ....   1.000e-04
   Initial trust radius                 ....   0.400
   Minimum AH scaling param. (alpha)    ....   1.000
   Maximum AH scaling param. (alpha)    .... 1000.000
   Quad. conv. algorithm                .... NR
   White noise on init. David. guess    .... on
   Maximum white noise                  ....   0.010
   Pseudo random numbers                .... off
   Inactive MOs                         .... canonical
   Orbital update algorithm             .... Taylor
   Preconditioner                       .... Diag
   Full preconditioner red. dimension   ....   250
   COSX micro iterations for RIJONX calc.... off
 SOSCF                  CNVSOSCF        .... on
   Start iteration      SOSCFMaxIt      ....   150
   Startup grad/error   SOSCFStart      ....  0.003300
   Hessian update       SOSCFHessUp     .... L-BFGS
 Level Shifting         CNVShift        .... on
   Level shift para.    LevelShift      ....    0.2500
   Turn off err/grad.   ShiftErr        ....    0.0010
 Zerner damping         CNVZerner       .... off
 Static damping         CNVDamp         .... on
   Fraction old density DampFac         ....    0.7000
   Max. Damping (<1)    DampMax         ....    0.9800
   Min. Damping (>=0)   DampMin         ....    0.0000
   Turn off err/grad.   DampErr         ....    0.1000

SCF Procedure:
 Maximum # iterations   MaxIter         ....   125
 SCF integral mode      SCFMode         .... Direct
   Integral package                     .... SHARK and LIBINT hybrid scheme
 Reset frequency        DirectResetFreq ....    20
 Integral Threshold     Thresh          ....  1.000e-10 Eh
 Primitive CutOff       TCut            ....  1.000e-11 Eh

Convergence Tolerance:
 Convergence Check Mode ConvCheckMode   .... Total+1el-Energy
 Convergence forced     ConvForced      .... 0
 Energy Change          TolE            ....  1.000e-06 Eh
 1-El. energy change                    ....  1.000e-03 Eh
 Orbital Gradient       TolG            ....  5.000e-05
 Orbital Rotation angle TolX            ....  5.000e-05
 DIIS Error             TolErr          ....  1.000e-06

------------------------------
INITIAL GUESS: MODEL POTENTIAL
------------------------------
Loading Hartree-Fock densities                     ... done
Calculating cut-offs                               ... done
Initializing the effective Hamiltonian             ... done
Setting up the integral package (SHARK)            ... done
Starting the Coulomb interaction                   ... done (   0.3 sec)
Making the grid                                    ... done (   0.2 sec)
Mapping shells                                     ... done
Starting the XC term evaluation                    ... done (   0.3 sec)
  promolecular density results
     # of electrons  =     49.996368774
     EX              =    -38.141783101
     EC              =     -1.631906280
     EX+EC           =    -39.773689381
Transforming the Hamiltonian                       ... done (   0.0 sec)
Diagonalizing the Hamiltonian                      ... done (   0.0 sec)
Back transforming the eigenvectors                 ... done (   0.0 sec)
Now organizing SCF variables                       ... done
                      ------------------
                      INITIAL GUESS DONE (   0.8 sec)
                      ------------------
             **** ENERGY FILE WAS UPDATED (vacuum_censo.en.tmp) ****
Finished Guess after   1.1 sec
Maximum memory used throughout the entire GUESS-calculation: 23.8 MB

-------------------------------------------------------------------------------------------
                                      ORCA LEAN-SCF
                              memory conserving SCF solver
-------------------------------------------------------------------------------------------

----------------------------------------D-I-I-S--------------------------------------------
Iteration    Energy (Eh)           Delta-E    RMSDP     MaxDP     DIISErr   Damp  Time(sec)
-------------------------------------------------------------------------------------------
               ***  Starting incremental Fock matrix formation  ***
    1    -271.3164282467109274     0.00e+00  1.51e-03  3.30e-02  1.78e-01  0.700   3.3
    2    -271.4027225951475089    -8.63e-02  1.11e-03  2.20e-02  9.38e-02  0.700   3.0
                               ***Turning on AO-DIIS***
    3    -271.4379787734196157    -3.53e-02  5.84e-04  1.17e-02  3.59e-02  0.700   2.9
    4    -271.4581835700799388    -2.02e-02  1.19e-03  2.41e-02  1.66e-02  0.000   2.8
    5    -271.5021584158310475    -4.40e-02  1.47e-04  3.97e-03  6.65e-03  0.000   2.9
                              *** Initializing SOSCF ***
---------------------------------------S-O-S-C-F--------------------------------------
Iteration    Energy (Eh)           Delta-E    RMSDP     MaxDP     MaxGrad    Time(sec)
--------------------------------------------------------------------------------------
    6    -271.5024713190296666    -3.13e-04  7.95e-05  2.53e-03  1.03e-03     2.8
               *** Restarting incremental Fock matrix formation ***
    7    -271.5024885398874517    -1.72e-05  5.96e-05  1.87e-03  2.06e-04     3.2
    8    -271.5024883092353889     2.31e-07  1.75e-05  5.19e-04  3.63e-04     2.5
                 **** Energy Check signals convergence ****

               *****************************************************
               *                     SUCCESS                       *
               *           SCF CONVERGED AFTER   8 CYCLES          *
               *****************************************************

             **** ENERGY FILE WAS UPDATED (vacuum_censo.en.tmp) ****

----------------
TOTAL SCF ENERGY
----------------

Total Energy       :       -271.50248830923539 Eh           -7387.95830 eV

Components:
Nuclear Repulsion  :        269.48059886862967 Eh            7332.93989 eV
Electronic Energy  :       -540.98308717786506 Eh          -14720.89820 eV
One Electron Energy:       -898.21239596127714 Eh          -24441.60188 eV
Two Electron Energy:        357.22930878341208 Eh            9720.70368 eV

Virial components:
Potential Energy   :       -541.66655638253246 Eh          -14739.49634 eV
Kinetic Energy     :        270.16406807329707 Eh            7351.53804 eV
Virial Ratio       :          2.00495410157792

DFT components:
N(Alpha)           :       24.999998680134 electrons
N(Beta)            :       24.999998680134 electrons
N(Total)           :       49.999997360268 electrons
E(X)               :      -39.276620696371 Eh       
E(C)               :       -1.580497764274 Eh       
E(XC)              :      -40.857118460645 Eh       

---------------
SCF CONVERGENCE
---------------

  Last Energy change         ...   -2.3065e-07  Tolerance :   1.0000e-06
  Last MAX-Density change    ...    5.1887e-04  Tolerance :   1.0000e-05
  Last RMS-Density change    ...    1.7481e-05  Tolerance :   1.0000e-06
  Last DIIS Error            ...    1.0290e-03  Tolerance :   1.0000e-06
  Last Orbital Gradient      ...    3.6319e-04  Tolerance :   5.0000e-05
  Last Orbital Rotation      ...    6.9938e-04  Tolerance :   5.0000e-05


----------------
ORBITAL ENERGIES
----------------

  NO   OCC          E(Eh)            E(eV) 
   0   2.0000     -10.045726      -273.3581 
   1   2.0000     -10.033653      -273.0296 
   2   2.0000     -10.033626      -273.0288 
   3   2.0000     -10.031571      -272.9729 
   4   2.0000     -10.031560      -272.9726 
   5   2.0000     -10.031133      -272.9610 
   6   2.0000     -10.029177      -272.9078 
   7   2.0000      -0.821680       -22.3591 
   8   2.0000      -0.738154       -20.0862 
   9   2.0000      -0.710217       -19.3260 
  10   2.0000      -0.651808       -17.7366 
  11   2.0000      -0.571435       -15.5495 
  12   2.0000      -0.550468       -14.9790 
  13   2.0000      -0.477685       -12.9985 
  14   2.0000      -0.426886       -11.6162 
  15   2.0000      -0.421246       -11.4627 
  16   2.0000      -0.391563       -10.6550 
  17   2.0000      -0.385672       -10.4947 
  18   2.0000      -0.375806       -10.2262 
  19   2.0000      -0.353462        -9.6182 
  20   2.0000      -0.330521        -8.9939 
  21   2.0000      -0.309590        -8.4244 
  22   2.0000      -0.305747        -8.3198 
  23   2.0000      -0.234295        -6.3755 
  24   2.0000      -0.224808        -6.1173 
  25   0.0000      -0.032507        -0.8846 
  26   0.0000      -0.029191        -0.7943 
  27   0.0000       0.056073         1.5258 
  28   0.0000       0.072726         1.9790 
  29   0.0000       0.092495         2.5169 
  30   0.0000       0.102508         2.7894 
  31   0.0000       0.115395         3.1400 
  32   0.0000       0.128431         3.4948 
  33   0.0000       0.136295         3.7088 
  34   0.0000       0.139013         3.7827 
  35   0.0000       0.148229         4.0335 
*Only the first 10 virtual orbitals were printed.

                    ********************************
                    * MULLIKEN POPULATION ANALYSIS *
                    ********************************

-----------------------
MULLIKEN ATOMIC CHARGES
-----------------------
   0 C :   -0.345584
   1 C :    0.183652
   2 C :   -0.198866
   3 C :   -0.083963
   4 C :   -0.136959
   5 C :   -0.083970
   6 C :   -0.198913
   7 H :    0.112527
   8 H :    0.121252
   9 H :    0.112583
  10 H :    0.099449
  11 H :    0.106263
  12 H :    0.106798
  13 H :    0.106259
  14 H :    0.099470
Sum of atomic charges:   -0.0000000

--------------------------------
MULLIKEN REDUCED ORBITAL CHARGES
--------------------------------
  0 C s       :     3.298741  s :     3.298741
      pz      :     1.048138  p :     2.997800
      px      :     0.889345
      py      :     1.060317
      dz2     :     0.002345  d :     0.045236
      dxz     :     0.020129
      dyz     :     0.001961
      dx2y2   :     0.003689
      dxy     :     0.017112
      f0      :     0.000821  f :     0.003807
      f+1     :     0.000412
      f-1     :     0.000055
      f+2     :     0.000713
      f-2     :    -0.000133
      f+3     :     0.001013
      f-3     :     0.000926

  1 C s       :     3.188225  s :     3.188225
      pz      :     0.905461  p :     2.487975
      px      :     0.763205
      py      :     0.819309
      dz2     :     0.004963  d :     0.128409
      dxz     :     0.025204
      dyz     :     0.023541
      dx2y2   :     0.031643
      dxy     :     0.043058
      f0      :     0.001882  f :     0.011738
      f+1     :     0.000856
      f-1     :     0.000600
      f+2     :     0.001030
      f-2     :     0.001236
      f+3     :     0.002188
      f-3     :     0.003948

  2 C s       :     3.262388  s :     3.262388
      pz      :     0.987400  p :     2.850119
      px      :     0.943053
      py      :     0.919666
      dz2     :     0.003248  d :     0.077651
      dxz     :     0.018201
      dyz     :     0.008340
      dx2y2   :     0.021211
      dxy     :     0.026652
      f0      :     0.001724  f :     0.008708
      f+1     :     0.000656
      f-1     :     0.000619
      f+2     :     0.000920
      f-2     :     0.000463
      f+3     :     0.001775
      f-3     :     0.002551

  3 C s       :     3.195294  s :     3.195294
      pz      :     0.960939  p :     2.801991
      px      :     0.914541
      py      :     0.926512
      dz2     :     0.003746  d :     0.077948
      dxz     :     0.019485
      dyz     :     0.009014
      dx2y2   :     0.021912
      dxy     :     0.023791
      f0      :     0.001765  f :     0.008730
      f+1     :     0.000642
      f-1     :     0.000662
      f+2     :     0.000987
      f-2     :     0.000469
      f+3     :     0.001716
      f-3     :     0.002488

  4 C s       :     3.226414  s :     3.226414
      pz      :     0.976216  p :     2.825354
      px      :     0.948887
      py      :     0.900251
      dz2     :     0.003654  d :     0.076557
      dxz     :     0.004607
      dyz     :     0.022264
      dx2y2   :     0.024270
      dxy     :     0.021763
      f0      :     0.001760  f :     0.008633
      f+1     :     0.000674
      f-1     :     0.000624
      f+2     :     0.000177
      f-2     :     0.001197
      f+3     :     0.001715
      f-3     :     0.002486

  5 C s       :     3.195306  s :     3.195306
      pz      :     0.960939  p :     2.801990
      px      :     0.914556
      py      :     0.926496
      dz2     :     0.003745  d :     0.077943
      dxz     :     0.019485
      dyz     :     0.009013
      dx2y2   :     0.021908
      dxy     :     0.023791
      f0      :     0.001765  f :     0.008730
      f+1     :     0.000642
      f-1     :     0.000662
      f+2     :     0.000987
      f-2     :     0.000469
      f+3     :     0.001716
      f-3     :     0.002488

  6 C s       :     3.262519  s :     3.262519
      pz      :     0.987389  p :     2.850066
      px      :     0.942987
      py      :     0.919689
      dz2     :     0.003247  d :     0.077620
      dxz     :     0.018195
      dyz     :     0.008341
      dx2y2   :     0.021188
      dxy     :     0.026649
      f0      :     0.001724  f :     0.008708
      f+1     :     0.000657
      f-1     :     0.000619
      f+2     :     0.000920
      f-2     :     0.000463
      f+3     :     0.001775
      f-3     :     0.002551

  7 H s       :     0.864386  s :     0.864386
      pz      :     0.006712  p :     0.023087
      px      :     0.006452
      py      :     0.009923

  8 H s       :     0.855564  s :     0.855564
      pz      :     0.011551  p :     0.023184
      px      :     0.006302
      py      :     0.005331

  9 H s       :     0.864332  s :     0.864332
      pz      :     0.006737  p :     0.023085
      px      :     0.006451
      py      :     0.009896

 10 H s       :     0.877113  s :     0.877113
      pz      :     0.005642  p :     0.023438
      px      :     0.006615
      py      :     0.011181

 11 H s       :     0.870284  s :     0.870284
      pz      :     0.005563  p :     0.023453
      px      :     0.006674
      py      :     0.011216

 12 H s       :     0.869727  s :     0.869727
      pz      :     0.005702  p :     0.023475
      px      :     0.013343
      py      :     0.004430

 13 H s       :     0.870288  s :     0.870288
      pz      :     0.005563  p :     0.023453
      px      :     0.006674
      py      :     0.011216

 14 H s       :     0.877094  s :     0.877094
      pz      :     0.005641  p :     0.023437
      px      :     0.006615
      py      :     0.011180



                     *******************************
                     * LOEWDIN POPULATION ANALYSIS *
                     *******************************

----------------------
LOEWDIN ATOMIC CHARGES
----------------------
   0 C :   -0.254214
   1 C :   -0.172769
   2 C :   -0.120001
   3 C :   -0.141477
   4 C :   -0.148592
   5 C :   -0.141478
   6 C :   -0.119974
   7 H :    0.126725
   8 H :    0.131054
   9 H :    0.126751
  10 H :    0.143946
  11 H :    0.142300
  12 H :    0.141475
  13 H :    0.142300
  14 H :    0.143955

-------------------------------
LOEWDIN REDUCED ORBITAL CHARGES
-------------------------------
  0 C s       :     2.825953  s :     2.825953
      pz      :     1.068537  p :     3.152920
      px      :     1.020490
      py      :     1.063893
      dz2     :     0.035694  d :     0.250683
      dxz     :     0.069467
      dyz     :     0.024143
      dx2y2   :     0.049523
      dxy     :     0.071856
      f0      :     0.003980  f :     0.024658
      f+1     :     0.003446
      f-1     :     0.000321
      f+2     :     0.004230
      f-2     :     0.002623
      f+3     :     0.004614
      f-3     :     0.005445

  1 C s       :     2.720560  s :     2.720560
      pz      :     0.826592  p :     2.860411
      px      :     0.984068
      py      :     1.049751
      dz2     :     0.033417  d :     0.533056
      dxz     :     0.074096
      dyz     :     0.078013
      dx2y2   :     0.183557
      dxy     :     0.163974
      f0      :     0.004118  f :     0.058741
      f+1     :     0.004093
      f-1     :     0.004338
      f+2     :     0.006129
      f-2     :     0.007665
      f+3     :     0.009391
      f-3     :     0.023007

  2 C s       :     2.764676  s :     2.764676
      pz      :     0.897101  p :     2.926752
      px      :     1.037672
      py      :     0.991979
      dz2     :     0.026386  d :     0.385567
      dxz     :     0.059764
      dyz     :     0.026319
      dx2y2   :     0.121138
      dxy     :     0.151960
      f0      :     0.003119  f :     0.043006
      f+1     :     0.004102
      f-1     :     0.003482
      f+2     :     0.005947
      f-2     :     0.002831
      f+3     :     0.008238
      f-3     :     0.015287

  3 C s       :     2.770584  s :     2.770584
      pz      :     0.881815  p :     2.934618
      px      :     1.046644
      py      :     1.006159
      dz2     :     0.025699  d :     0.392477
      dxz     :     0.065415
      dyz     :     0.028564
      dx2y2   :     0.121560
      dxy     :     0.151239
      f0      :     0.003204  f :     0.043797
      f+1     :     0.004151
      f-1     :     0.003538
      f+2     :     0.006253
      f-2     :     0.002983
      f+3     :     0.008187
      f-3     :     0.015481

  4 C s       :     2.770520  s :     2.770520
      pz      :     0.893326  p :     2.945247
      px      :     0.985432
      py      :     1.066489
      dz2     :     0.025773  d :     0.389005
      dxz     :     0.012008
      dyz     :     0.077346
      dx2y2   :     0.168865
      dxy     :     0.105013
      f0      :     0.003223  f :     0.043820
      f+1     :     0.003285
      f-1     :     0.004427
      f+2     :     0.001236
      f-2     :     0.007715
      f+3     :     0.008197
      f-3     :     0.015736

  5 C s       :     2.770583  s :     2.770583
      pz      :     0.881812  p :     2.934614
      px      :     1.046659
      py      :     1.006143
      dz2     :     0.025699  d :     0.392483
      dxz     :     0.065421
      dyz     :     0.028561
      dx2y2   :     0.121561
      dxy     :     0.151240
      f0      :     0.003204  f :     0.043798
      f+1     :     0.004151
      f-1     :     0.003537
      f+2     :     0.006253
      f-2     :     0.002984
      f+3     :     0.008187
      f-3     :     0.015482

  6 C s       :     2.764674  s :     2.764674
      pz      :     0.897090  p :     2.926737
      px      :     1.037665
      py      :     0.991981
      dz2     :     0.026385  d :     0.385558
      dxz     :     0.059753
      dyz     :     0.026324
      dx2y2   :     0.121123
      dxy     :     0.151973
      f0      :     0.003119  f :     0.043006
      f+1     :     0.004102
      f-1     :     0.003481
      f+2     :     0.005948
      f-2     :     0.002831
      f+3     :     0.008238
      f-3     :     0.015288

  7 H s       :     0.810880  s :     0.810880
      pz      :     0.018685  p :     0.062394
      px      :     0.015299
      py      :     0.028410

  8 H s       :     0.806253  s :     0.806253
      pz      :     0.033222  p :     0.062693
      px      :     0.015249
      py      :     0.014223

  9 H s       :     0.810852  s :     0.810852
      pz      :     0.018762  p :     0.062397
      px      :     0.015301
      py      :     0.028334

 10 H s       :     0.795797  s :     0.795797
      pz      :     0.014620  p :     0.060257
      px      :     0.016887
      py      :     0.028750

 11 H s       :     0.797612  s :     0.797612
      pz      :     0.014131  p :     0.060088
      px      :     0.017059
      py      :     0.028897

 12 H s       :     0.798111  s :     0.798111
      pz      :     0.014490  p :     0.060415
      px      :     0.034537
      py      :     0.011388

 13 H s       :     0.797613  s :     0.797613
      pz      :     0.014131  p :     0.060087
      px      :     0.017058
      py      :     0.028899

 14 H s       :     0.795789  s :     0.795789
      pz      :     0.014620  p :     0.060256
      px      :     0.016888
      py      :     0.028748



                      *****************************
                      * MAYER POPULATION ANALYSIS *
                      *****************************

  NA   - Mulliken gross atomic population
  ZA   - Total nuclear charge
  QA   - Mulliken gross atomic charge
  VA   - Mayer's total valence
  BVA  - Mayer's bonded valence
  FA   - Mayer's free valence

  ATOM       NA         ZA         QA         VA         BVA        FA
  0 C      6.3456     6.0000    -0.3456     3.8570     3.8570     0.0000
  1 C      5.8163     6.0000     0.1837     3.6077     3.6077    -0.0000
  2 C      6.1989     6.0000    -0.1989     3.9114     3.9114    -0.0000
  3 C      6.0840     6.0000    -0.0840     3.8818     3.8818    -0.0000
  4 C      6.1370     6.0000    -0.1370     3.9107     3.9107     0.0000
  5 C      6.0840     6.0000    -0.0840     3.8818     3.8818    -0.0000
  6 C      6.1989     6.0000    -0.1989     3.9112     3.9112    -0.0000
  7 H      0.8875     1.0000     0.1125     0.9791     0.9791     0.0000
  8 H      0.8787     1.0000     0.1213     0.9693     0.9693     0.0000
  9 H      0.8874     1.0000     0.1126     0.9790     0.9790     0.0000
 10 H      0.9006     1.0000     0.0994     0.9776     0.9776     0.0000
 11 H      0.8937     1.0000     0.1063     0.9756     0.9756    -0.0000
 12 H      0.8932     1.0000     0.1068     0.9771     0.9771    -0.0000
 13 H      0.8937     1.0000     0.1063     0.9756     0.9756     0.0000
 14 H      0.9005     1.0000     0.0995     0.9776     0.9776     0.0000

  Mayer bond orders larger than 0.100000
B(  0-C ,  1-C ) :   0.9103 B(  0-C ,  7-H ) :   0.9835 B(  0-C ,  8-H ) :   0.9537 
B(  0-C ,  9-H ) :   0.9834 B(  1-C ,  2-C ) :   1.3451 B(  1-C ,  6-C ) :   1.3447 
B(  2-C ,  3-C ) :   1.4139 B(  2-C , 10-H ) :   0.9792 B(  3-C ,  4-C ) :   1.3905 
B(  3-C , 11-H ) :   0.9709 B(  4-C ,  5-C ) :   1.3903 B(  4-C , 12-H ) :   0.9691 
B(  5-C ,  6-C ) :   1.4141 B(  5-C , 13-H ) :   0.9710 B(  6-C , 14-H ) :   0.9793 


-------
TIMINGS
-------

Total SCF time: 0 days 0 hours 0 min 23 sec 

Total time                  ....      23.833 sec
Sum of individual times     ....      23.424 sec  ( 98.3%)

SCF preparation             ....       0.243 sec  (  1.0%)
Fock matrix formation       ....      22.324 sec  ( 93.7%)
  Startup                   ....       0.055 sec  (  0.2% of F)
  Split-RI-J                ....       2.429 sec  ( 10.9% of F)
  XC integration            ....      19.370 sec  ( 86.8% of F)
    XC Preparation          ....       0.000 sec  (  0.0% of XC)
    Basis function eval.    ....       2.829 sec  ( 14.6% of XC)
    Density eval.           ....       5.877 sec  ( 30.3% of XC)
    XC-Functional eval.     ....       1.542 sec  (  8.0% of XC)
    XC-Potential eval.      ....       8.385 sec  ( 43.3% of XC)
Diagonalization             ....       0.000 sec  (  0.0%)
Density matrix formation    ....       0.190 sec  (  0.8%)
Total Energy calculation    ....       0.025 sec  (  0.1%)
Population analysis         ....       0.035 sec  (  0.1%)
Orbital Transformation      ....       0.072 sec  (  0.3%)
Orbital Orthonormalization  ....       0.000 sec  (  0.0%)
DIIS solution               ....       0.409 sec  (  1.7%)
SOSCF solution              ....       0.126 sec  (  0.5%)
Finished LeanSCF after  23.9 sec

Maximum memory used throughout the entire LEANSCF-calculation: 28.7 MB

------------------------------------------------------------------------------
                         ORCA PROPERTY INTEGRAL CALCULATIONS
------------------------------------------------------------------------------

GBWName                                   ... vacuum_censo.gbw
Number of atoms                           ...     15
Number of basis functions                 ...    265
Max core memory                           ...   1024 MB

Dipole integrals                          ... YES
Quadrupole integrals                      ...  NO
Linear momentum integrals                 ...  NO
Angular momentum integrals                ...  NO
Higher moments length integrals           ...  NO
Higher moments velocity integrals         ...  NO
Kinetic energy integrals                  ...  NO
GIAO right hand sides                     ...  NO
GIAO dipole derivative integrals          ...  NO
SOC integrals                             ...  NO
EPR diamagnetic integrals (GIAO)          ...  NO
EPR gauge integrals                       ...  NO
Field gradient integrals                  ...  NO (   0 nuclei)
Spin-dipole/Fermi contact integrals       ...  NO (   0 nuclei)
Contact density integrals                 ...  NO (   0 nuclei)
Nucleus-orbit integrals                   ...  NO (   0 nuclei)
Geometric perturbations                   ... YES (  15 nuclei)

Choice of electric origin   ... Center of mass
Position of electric origin ... (  0.0054,  0.0000,  0.0001) 
Choice of magnetic origin   ... GIAO
Position of magnetic origin ... (  0.0000,  0.0000,  0.0000) 

Calculating integrals                     ... Electric Dipole (Length)     done (  0.1 sec)
Calculating integrals                     ... Geometrical perturbation right hand sides

-----------------------
GEOMETRIC PERTURBATIONS (15 nuclei)
-----------------------

MaxCore                            ...   1024 MB
Number of batches                  ...      1

BATCH   0: Atoms    0 -   14 ( 45 perturbations)
   => H(core) and overlap derivative integrals     ... done (     0.4 sec)
   => Making and storing internal U-coefficients   ... done (     0.4 sec)
   => RI-J derivative integrals                    ... done (     3.8 sec)
   => RI-J response operators                      ... done (     1.0 sec)
   => XC derivative integrals                      ... done (   260.3 sec)
   => XC response operators                        ... done (    69.8 sec)
   => Completing and storing right hand sides      ... done (     0.2 sec)
   => Total time for right hand sides = 338.5 sec

  geometrical perturbations done (338.5 sec)

Property integrals calculated in 338.6 sec

Maximum memory used throughout the entire PROPINT-calculation: 133.4 MB


-------------------------------------------------------------------------------
                          DFT DISPERSION CORRECTION                            
                                                                               
                                DFTD4 V3.4.0                                   
-------------------------------------------------------------------------------
The R2SCAN3C composite method is recognized
Using three-body term ABC
Active option DFTDOPT                   ...         5   

-------------------------   ----------------
Dispersion correction           -0.004422534
-------------------------   ----------------

------------------   -----------------
gCP correction             0.004094340
------------------   -----------------

-------------------------   --------------------
FINAL SINGLE POINT ENERGY      -271.502816502993
-------------------------   --------------------

------------------------------------------------------------------------------
                            ORCA SCF RESPONSE CALCULATION
------------------------------------------------------------------------------

GBWName                                 ... vacuum_censo.gbw
Number of atoms                         ...     15
Number of basis functions               ...    265
Max core memory                         ...   1024 MB

Electric field perturbation             ...  NO
Quadrupolar field perturbation          ...  NO
Magnetic field perturbation (no GIAO)   ...  NO
Magnetic field perturbation (with GIAO) ...  NO
Linear momentum (velocity) perturbation ...  NO
Spin-orbit coupling perturbation        ...  NO
Choice of electric origin               ... Center of mass
Position of electric origin             ...     0.005430     0.000002     0.000095
Choice of magnetic origin               ... GIAO
Position of magnetic origin             ...     0.000000     0.000000     0.000000
Nuclear geometric perturbations         ... YES (  45 perturbations)
Nucleus-orbit perturbations             ...  NO (   0 perturbations)
Spin-dipole/Fermi contact perturbations ...  NO (   0 perturbations)

Total number of real perturbations      ...     45
Total number of imaginary perturbations ...      0
Total number of triplet perturbations   ...      0
Total number of SOC perturbations       ...      0


                                **********************
                                * REAL PERTURBATIONS *
                                **********************



-------------------
SHARK CP-SCF DRIVER
-------------------

Dimension of the orbital basis          ...    265
Dimension of the CPSCF-problem          ...   6000
Number of operators                     ...      1
Max. number of iterations               ...    128
Convergence Tolerance                   ... 1.0e-03
Number of perturbations                 ...     45
Perturbation type                       ... REAL

----------------------------
POPLE LINEAR EQUATION SOLVER
----------------------------

  ITERATION   0:   ||err||_max =   3.4771e-01 (  20.5 sec   0/ 45 done)
  ITERATION   1:   ||err||_max =   4.5288e-02 (  20.9 sec   0/ 45 done)
  ITERATION   2:   ||err||_max =   1.4592e-02 (  21.7 sec   4/ 45 done)
  ITERATION   3:   ||err||_max =   3.1307e-03 (  21.3 sec  22/ 45 done)
  ITERATION   4:   ||err||_max =   1.2732e-03 (  12.4 sec  36/ 45 done)
  ITERATION   5:   ||err||_max =   4.9476e-04 (   5.6 sec  45/ 45 done)

CP-SCF equations solved in 104.6 sec
Response densities calculated in   0.2 sec

Maximum memory used throughout the entire SCFRESP-calculation: 80.6 MB

------------------------------------------------------------------------------
                              ORCA PROPERTY CALCULATIONS
------------------------------------------------------------------------------

GBWName                                 ... vacuum_censo.gbw
Number of atoms                         ...     15
Number of basis functions               ...    265
Max core memory                         ...   1024 MB

Electric properties:
Dipole moment                           ... YES
Quadrupole moment                       ...  NO
Static polarizability (Dipole/Dipole)   ...  NO
Static polarizability (Dipole/Quad.)    ...  NO
Static polarizability (Quad./Quad.)     ...  NO
Static polarizability (Velocity)        ...  NO

Atomic electric properties:
Dipole moment                           ...  NO
Quadrupole moment                       ...  NO
Static polarizability                   ...  NO

Choice of electric origin               ... Center of mass
Position of electric origin             ...     0.005430     0.000002     0.000095

General magnetic properties:
Magnetizability                         ...  NO

EPR properties:
g-Tensor (aka g-matrix)                 ...  NO
Zero-Field splitting spin-orbit         ...  NO
Zero-field splitting spin-spin          ...  NO
Hyperfine couplings                     ...  NO (   0 nuclei)
Quadrupole couplings                    ...  NO (   0 nuclei)
Contact density                         ...  NO (   0 nuclei)

NMR properties:
Chemical shifts                         ...  NO (   0 nuclei)
Spin-rotation constants                 ...  NO (   0 nuclei)
Spin-spin couplings                     ...  NO (   0 nuclei,    0 pairs)

Choice of magnetic origin               ... GIAO
Position of magnetic origin             ...     0.000000     0.000000     0.000000

Properties with geometric perturbations:
SCF Hessian                             ... YES
IR spectrum                             ... YES
VCD spectrum                            ...  NO
X-ray spectroscopy properties:
SCF XES/XAS/RIXS spectra                ...  NO


-------------
DIPOLE MOMENT
-------------

Method             : SCF
Type of density    : Electron Density
Multiplicity       :   1
Irrep              :   0
Energy             :  -271.5024883092353889 Eh
Relativity type    : 
Basis              : AO
                                X                 Y                 Z
Electronic contribution:      3.357158895      -0.000063564      -0.036364308
Nuclear contribution   :     -3.515206998       0.000189080       0.053064480
                        -----------------------------------------
Total Dipole Moment    :     -0.158048104       0.000125516       0.016700172
                        -----------------------------------------
Magnitude (a.u.)       :      0.158928017
Magnitude (Debye)      :      0.403962916



--------------------
Rotational spectrum 
--------------------
 
Rotational constants in cm-1:             0.185390             0.084253             0.058561 
Rotational constants in MHz :          5557.865591          2525.845654          1755.615324 

Dipole components along the rotational axes: 
x,y,z [a.u.] :     0.158046     0.000125     0.016720 
x,y,z [Debye]:     0.401721     0.000317     0.042499 

 

Dipole moment calculation done in   0.0 sec 

-----------
SCF HESSIAN
-----------

Occupied/Occupied contributions to the Hessian:
   => Occupied/Occupied contributions              ... done (  0.0 sec)
Perturbed density contributions to the Hessian:
   => Perturbed density contributions              ... done (  0.0 sec)
Explicit contributions to the Hessian:
   => Nuclear repulsion Hessian                    ... done (  0.0 sec)
   => HCore and overlap Hessian                    ... done ( 11.2 sec)
   => RI-J Hessian                                 ... done (  9.8 sec)
   => XC-Hessian                                   ... done ( 76.9 sec)
   => Van der Waals-Hessian                        ... done (  3.0 sec)
   => GCP-Hessian                                  ... done (  0.1 sec)
   => Explicit contributions done
Dipole derivatives                                 ... done (  0.1 sec)
Mass weighting the Hessian           ... done
Calculating normal modes             ... done
Scaling frequencies                  ... done

-----------------------
VIBRATIONAL FREQUENCIES
-----------------------

Scaling factor for frequencies =  1.000000000  (already applied!)

     0:       0.00 cm**-1
     1:       0.00 cm**-1
     2:       0.00 cm**-1
     3:       0.00 cm**-1
     4:       0.00 cm**-1
     5:       0.00 cm**-1
     6:      70.30 cm**-1
     7:     208.07 cm**-1
     8:     349.17 cm**-1
     9:     411.18 cm**-1
    10:     471.18 cm**-1
    11:     530.33 cm**-1
    12:     639.21 cm**-1
    13:     712.74 cm**-1
    14:     737.63 cm**-1
    15:     801.91 cm**-1
    16:     848.06 cm**-1
    17:     896.55 cm**-1
    18:     952.03 cm**-1
    19:     978.03 cm**-1
    20:     999.19 cm**-1
    21:    1023.19 cm**-1
    22:    1051.68 cm**-1
    23:    1056.36 cm**-1
    24:    1109.73 cm**-1
    25:    1181.47 cm**-1
    26:    1202.31 cm**-1
    27:    1229.18 cm**-1
    28:    1339.79 cm**-1
    29:    1354.52 cm**-1
    30:    1400.78 cm**-1
    31:    1462.25 cm**-1
    32:    1482.87 cm**-1
    33:    1497.21 cm**-1
    34:    1524.61 cm**-1
    35:    1619.79 cm**-1
    36:    1638.00 cm**-1
    37:    3007.09 cm**-1
    38:    3073.15 cm**-1
    39:    3101.88 cm**-1
    40:    3146.21 cm**-1
    41:    3146.94 cm**-1
    42:    3159.99 cm**-1
    43:    3168.18 cm**-1
    44:    3180.76 cm**-1


------------
NORMAL MODES
------------

These modes are the Cartesian displacements weighted by the diagonal matrix
M(i,i)=1/sqrt(m[i]) where m[i] is the mass of the displaced atom
Thus, these vectors are normalized but *not* orthogonal

                  0          1          2          3          4          5    
      0       0.000000   0.000000   0.000000   0.000000   0.000000   0.000000
      1       0.000000   0.000000   0.000000   0.000000   0.000000   0.000000
      2       0.000000   0.000000   0.000000   0.000000   0.000000   0.000000
      3       0.000000   0.000000   0.000000   0.000000   0.000000   0.000000
      4       0.000000   0.000000   0.000000   0.000000   0.000000   0.000000
      5       0.000000   0.000000   0.000000   0.000000   0.000000   0.000000
      6       0.000000   0.000000   0.000000   0.000000   0.000000   0.000000
      7       0.000000   0.000000   0.000000   0.000000   0.000000   0.000000
      8       0.000000   0.000000   0.000000   0.000000   0.000000   0.000000
      9       0.000000   0.000000   0.000000   0.000000   0.000000   0.000000
     10       0.000000   0.000000   0.000000   0.000000   0.000000   0.000000
     11       0.000000   0.000000   0.000000   0.000000   0.000000   0.000000
     12       0.000000   0.000000   0.000000   0.000000   0.000000   0.000000
     13       0.000000   0.000000   0.000000   0.000000   0.000000   0.000000
     14       0.000000   0.000000   0.000000   0.000000   0.000000   0.000000
     15       0.000000   0.000000   0.000000   0.000000   0.000000   0.000000
     16       0.000000   0.000000   0.000000   0.000000   0.000000   0.000000
     17       0.000000   0.000000   0.000000   0.000000   0.000000   0.000000
     18       0.000000   0.000000   0.000000   0.000000   0.000000   0.000000
     19       0.000000   0.000000   0.000000   0.000000   0.000000   0.000000
     20       0.000000   0.000000   0.000000   0.000000   0.000000   0.000000
     21       0.000000   0.000000   0.000000   0.000000   0.000000   0.000000
     22       0.000000   0.000000   0.000000   0.000000   0.000000   0.000000
     23       0.000000   0.000000   0.000000   0.000000   0.000000   0.000000
     24       0.000000   0.000000   0.000000   0.000000   0.000000   0.000000
     25       0.000000   0.000000   0.000000   0.000000   0.000000   0.000000
     26       0.000000   0.000000   0.000000   0.000000   0.000000   0.000000
     27       0.000000   0.000000   0.000000   0.000000   0.000000   0.000000
     28       0.000000   0.000000   0.000000   0.000000   0.000000   0.000000
     29       0.000000   0.000000   0.000000   0.000000   0.000000   0.000000
     30       0.000000   0.000000   0.000000   0.000000   0.000000   0.000000
     31       0.000000   0.000000   0.000000   0.000000   0.000000   0.000000
     32       0.000000   0.000000   0.000000   0.000000   0.000000   0.000000
     33       0.000000   0.000000   0.000000   0.000000   0.000000   0.000000
     34       0.000000   0.000000   0.000000   0.000000   0.000000   0.000000
     35       0.000000   0.000000   0.000000   0.000000   0.000000   0.000000
     36       0.000000   0.000000   0.000000   0.000000   0.000000   0.000000
     37       0.000000   0.000000   0.000000   0.000000   0.000000   0.000000
     38       0.000000   0.000000   0.000000   0.000000   0.000000   0.000000
     39       0.000000   0.000000   0.000000   0.000000   0.000000   0.000000
     40       0.000000   0.000000   0.000000   0.000000   0.000000   0.000000
     41       0.000000   0.000000   0.000000   0.000000   0.000000   0.000000
     42       0.000000   0.000000   0.000000   0.000000   0.000000   0.000000
     43       0.000000   0.000000   0.000000   0.000000   0.000000   0.000000
     44       0.000000   0.000000   0.000000   0.000000   0.000000   0.000000
                  6          7          8          9         10         11    
      0       0.000006  -0.008315   0.000060  -0.000004   0.027728   0.369361
      1      -0.007826  -0.000036   0.230319  -0.013977  -0.000013  -0.000092
      2       0.000125  -0.212341  -0.000023  -0.000004   0.012618  -0.010662
      3       0.000001  -0.000195   0.000038  -0.000002   0.013113   0.215346
      4       0.007913   0.000030  -0.152434   0.009096  -0.000009   0.000056
      5      -0.000140   0.151618   0.000001   0.000005  -0.284413   0.039138
      6      -0.002099   0.000807   0.059521  -0.003884  -0.005408  -0.053300
      7       0.003536   0.000744  -0.130127   0.007132  -0.007439  -0.129567
      8       0.024002   0.190097   0.009906   0.209761   0.041961   0.002185
      9      -0.004950   0.002500   0.080431  -0.003245  -0.008949  -0.108339
     10      -0.000502   0.000295   0.014224  -0.001059  -0.006582  -0.120181
     11       0.024502  -0.010773  -0.008858  -0.208372   0.121205  -0.014746
     12      -0.000002   0.004406  -0.000040   0.000004  -0.016089  -0.295812
     13      -0.000459  -0.000015   0.066012  -0.003350  -0.000018  -0.000045
     14       0.000109  -0.203537  -0.000019  -0.000015  -0.186849   0.021035
     15       0.004946   0.002524  -0.080474   0.003248  -0.008945  -0.108312
     16      -0.000505  -0.000298   0.014247  -0.001036   0.006596   0.120161
     17      -0.024442  -0.010894   0.008869   0.208400   0.121202  -0.014759
     18       0.002096   0.000821  -0.059549   0.003885  -0.005401  -0.053287
     19       0.003533  -0.000699  -0.130104   0.007105   0.007462   0.129691
     20      -0.024209   0.190061  -0.009869  -0.209737   0.041950   0.002172
     21       0.004617   0.139060  -0.331172   0.009589  -0.127872   0.382598
     22       0.263441   0.004500   0.409110  -0.018640  -0.005631   0.001668
     23      -0.495724  -0.341520  -0.049256   0.000540   0.152607  -0.021344
     24       0.000219  -0.320905   0.000997  -0.000138   0.363557   0.331039
     25      -0.599046  -0.001109   0.327826  -0.014977   0.000130  -0.000091
     26       0.001647  -0.326379   0.000082  -0.000049   0.136053  -0.022854
     27      -0.004819   0.140253   0.330514  -0.009474  -0.129229   0.382673
     28       0.265810  -0.003625   0.409385  -0.018652   0.005472  -0.001846
     29       0.494926  -0.339685   0.049095  -0.000640   0.152277  -0.021330
     30      -0.005935   0.001243   0.150491  -0.011241  -0.019192  -0.247501
     31       0.005022  -0.000019  -0.182804   0.009370  -0.002076  -0.014209
     32       0.042690   0.243838   0.021885   0.451051   0.324580  -0.047914
     33      -0.007088   0.001507   0.169754  -0.007511  -0.002735   0.051866
     34      -0.001744  -0.000224   0.064566  -0.003344  -0.003048  -0.026957
     35       0.043889  -0.073524  -0.017224  -0.456178   0.396114  -0.069386
     36      -0.000002   0.005662  -0.000043   0.000005  -0.015558  -0.296005
     37      -0.004543  -0.000041   0.137156  -0.006387  -0.000027  -0.000061
     38       0.000170  -0.455586  -0.000056  -0.000140  -0.305818   0.009870
     39       0.007086   0.001549  -0.169766   0.007507  -0.002720   0.051991
     40      -0.001749   0.000204   0.064566  -0.003295   0.003079   0.026887
     41      -0.043851  -0.073744   0.017219   0.456052   0.396242  -0.069406
     42       0.005938   0.001277  -0.150624   0.011249  -0.019179  -0.247443
     43       0.005016   0.000078  -0.182844   0.009319   0.002136   0.014338
     44      -0.043119   0.243782  -0.021837  -0.451091   0.324706  -0.047936
                 12         13         14         15         16         17    
      0      -0.000016  -0.000119   0.008777   0.280337  -0.000002   0.004446
      1       0.053011   0.000001  -0.000005  -0.000084  -0.004766   0.000000
      2      -0.000004  -0.011074  -0.031316  -0.009680   0.000024   0.027076
      3      -0.000013   0.002965  -0.007395  -0.053736  -0.000001   0.001907
      4       0.134859  -0.000001  -0.000011  -0.000000  -0.000992   0.000002
      5      -0.000003  -0.066324  -0.152096   0.028583  -0.000045   0.014857
      6       0.238547  -0.000404  -0.004642  -0.077884   0.000141   0.000359
      7       0.197699  -0.001279   0.008321   0.185108   0.001731   0.004945
      8       0.001570   0.068004   0.118794  -0.008127  -0.078570  -0.084436
      9       0.258702   0.000918  -0.003763  -0.128214   0.000237  -0.002537
     10      -0.241194  -0.000995   0.010952   0.216552   0.000716   0.003148
     11       0.002086  -0.146077  -0.035909  -0.000650  -0.069277   0.005899
     12       0.000027  -0.002462   0.011016   0.161164   0.000003   0.000049
     13      -0.136818   0.000003   0.000006  -0.000007  -0.000837   0.000006
     14       0.000002   0.068563   0.137693  -0.017003   0.000002   0.105858
     15      -0.258681   0.000911  -0.003764  -0.128168  -0.000236  -0.002536
     16      -0.241230   0.000972  -0.010957  -0.216534   0.000725  -0.003149
     17      -0.002042  -0.146060  -0.035938  -0.000615   0.069288   0.005852
     18      -0.238566  -0.000409  -0.004641  -0.077849  -0.000143   0.000357
     19       0.197659   0.001291  -0.008302  -0.185060   0.001747  -0.004954
     20      -0.001600   0.067968   0.118804  -0.008104   0.078598  -0.084406
     21      -0.026895  -0.011287  -0.119421   0.306944  -0.011608   0.089262
     22       0.073695   0.005036  -0.012999  -0.012487   0.005470   0.015535
     23      -0.012328  -0.008882   0.099392   0.000040  -0.005503  -0.072276
     24       0.000070   0.022652   0.293481   0.295272   0.000007  -0.178172
     25       0.064551  -0.000080   0.000060   0.000127   0.014733   0.000045
     26       0.000004  -0.002455   0.074031  -0.004105  -0.000029  -0.041216
     27       0.026830  -0.011381  -0.120519   0.307370   0.011599   0.089981
     28       0.073786  -0.004963   0.012968   0.012637   0.005449  -0.015585
     29       0.012312  -0.008666   0.099097   0.000078   0.005406  -0.072057
     30       0.096153  -0.005821   0.006141   0.013420  -0.006215  -0.008596
     31       0.277069  -0.001796   0.004394   0.141386   0.000205   0.004801
     32      -0.000910   0.479156  -0.106350  -0.007238   0.522737   0.520885
     33       0.114538   0.000086  -0.013329  -0.400482  -0.004809  -0.005862
     34      -0.322559  -0.001510   0.005731   0.065590  -0.002261   0.001458
     35       0.003112   0.197402  -0.556600   0.062357   0.464065  -0.072916
     36       0.000005  -0.005180   0.013391   0.154519   0.000003   0.003467
     37       0.308102   0.000044  -0.000025  -0.000034  -0.001471  -0.000039
     38      -0.000041   0.632988  -0.377177   0.079637  -0.000041  -0.599645
     39      -0.114545   0.000078  -0.013322  -0.400396   0.004822  -0.005861
     40      -0.322571   0.001520  -0.005787  -0.065606  -0.002307  -0.001464
     41      -0.003076   0.197447  -0.556421   0.062314  -0.464164  -0.072746
     42      -0.096159  -0.005824   0.006142   0.013488   0.006216  -0.008597
     43       0.277051   0.001859  -0.004399  -0.141303   0.000150  -0.004738
     44       0.000824   0.479099  -0.106243  -0.007237  -0.522702   0.520790
                 18         19         20         21         22         23    
      0       0.000001  -0.000234   0.000042  -0.032598   0.021802  -0.006873
      1      -0.001453  -0.000003   0.143241  -0.000421   0.000004  -0.000023
      2       0.000023  -0.006143   0.000002   0.037900   0.039306  -0.153556
      3      -0.000001  -0.000705   0.000016  -0.003572  -0.024799  -0.006731
      4      -0.000181  -0.000001   0.055292  -0.000168  -0.000013  -0.000001
      5      -0.000014   0.010264  -0.000017  -0.039632  -0.036346   0.141758
      6       0.000332  -0.000544  -0.019060   0.197690  -0.039271   0.006515
      7       0.000499  -0.001756  -0.066729   0.325851   0.083147   0.034869
      8      -0.084788   0.032954  -0.002053   0.014947   0.010284  -0.038489
      9      -0.000315   0.000637   0.031428   0.019134   0.026387   0.009634
     10      -0.000387   0.000038  -0.029614  -0.018353  -0.183994  -0.039438
     11       0.094050  -0.079665  -0.002519  -0.001583  -0.000448   0.000702
     12      -0.000002   0.000376  -0.000281  -0.401431   0.118230  -0.005874
     13      -0.000111   0.000005   0.040127  -0.000126  -0.000041  -0.000014
     14      -0.000017   0.088985  -0.000003  -0.003935   0.000139   0.004555
     15       0.000316   0.000637  -0.031444   0.019415   0.026375   0.009639
     16      -0.000397  -0.000045  -0.029617   0.018538   0.184045   0.039457
     17      -0.094063  -0.079642   0.002518  -0.001591  -0.000473   0.000710
     18      -0.000330  -0.000544   0.019330   0.197462  -0.039288   0.006503
     19       0.000503   0.001762  -0.067260  -0.325436  -0.083120  -0.034853
     20       0.084820   0.032946   0.002078   0.014964   0.010285  -0.038454
     21      -0.002673  -0.018344   0.606858   0.059867   0.109329  -0.322763
     22       0.002714  -0.006397  -0.176099   0.013985   0.022534  -0.088786
     23      -0.002920   0.020396   0.060573  -0.066012  -0.075956   0.282972
     24      -0.000049   0.037305  -0.001741  -0.177754  -0.149122   0.689118
     25       0.007016  -0.000024  -0.279963   0.000994   0.000100  -0.000449
     26      -0.000024   0.007847   0.000360  -0.020855  -0.027044   0.113716
     27       0.002723  -0.018473  -0.605334   0.064170   0.110009  -0.325381
     28       0.002692   0.006432  -0.176731  -0.013033  -0.022702   0.089337
     29       0.002827   0.020320  -0.060931  -0.065485  -0.075775   0.282194
     30      -0.006118   0.004002  -0.030271   0.202242  -0.336872  -0.047124
     31      -0.000572  -0.001815  -0.066000   0.337033   0.249876   0.063825
     32       0.459640  -0.264065   0.018612  -0.052723  -0.044367   0.150718
     33       0.005513  -0.003769   0.133963   0.055131  -0.297176  -0.047632
     34       0.003050  -0.002648   0.025378   0.025037  -0.378214  -0.072601
     35      -0.521892   0.516219   0.007475   0.001885  -0.006091   0.014620
     36      -0.000003   0.003542  -0.000296  -0.415177   0.132303  -0.004148
     37       0.000804  -0.000037   0.173197  -0.000663  -0.000147  -0.000060
     38       0.000081  -0.549207  -0.000023   0.002751   0.008578  -0.022965
     39      -0.005524  -0.003772  -0.134019   0.056196  -0.297119  -0.047582
     40       0.003103   0.002698   0.025355  -0.025269   0.378207   0.072593
     41       0.522048   0.516116  -0.007461   0.001856  -0.006158   0.014672
     42       0.006121   0.004002   0.030478   0.201791  -0.337051  -0.047174
     43      -0.000634   0.001786  -0.066591  -0.336712  -0.249973  -0.063814
     44      -0.459886  -0.264041  -0.018673  -0.052492  -0.044248   0.150380
                 24         25         26         27         28         29    
      0       0.000015   0.000025   0.000045  -0.142027  -0.000060  -0.000090
      1      -0.059278   0.003121   0.000002  -0.000039   0.069328  -0.014879
      2       0.000004   0.000000  -0.000265   0.002900  -0.000002   0.000006
      3      -0.000059  -0.000068  -0.006589   0.362996   0.000114   0.000079
      4       0.031494   0.004516  -0.000010   0.000148  -0.257814  -0.017857
      5      -0.000002  -0.000001  -0.000754  -0.000530   0.000015   0.000001
      6      -0.100067  -0.000692   0.048677   0.056919  -0.056057  -0.146510
      7      -0.024546   0.007349  -0.028050  -0.009065   0.060596   0.067608
      8       0.000308   0.000539  -0.000047   0.001419   0.000348  -0.000111
      9       0.050114   0.038017  -0.043042  -0.091831   0.121609   0.064856
     10      -0.048465   0.022789  -0.029306   0.080095   0.090998   0.024362
     11       0.000611  -0.000048  -0.000023  -0.000079   0.000674   0.000563
     12      -0.000033  -0.000017  -0.008716   0.028887  -0.000011  -0.000014
     13       0.076359  -0.065030   0.000009   0.000058  -0.083598  -0.158357
     14      -0.000004   0.000003   0.000108   0.000106   0.000005   0.000010
     15      -0.050047  -0.038000  -0.043030  -0.091735  -0.121680  -0.064889
     16      -0.048377   0.022810   0.029300  -0.080191   0.090893   0.024305
     17      -0.000605   0.000045  -0.000027  -0.000068  -0.000685  -0.000567
     18       0.100068   0.000696   0.048654   0.056840   0.056145   0.146553
     19      -0.024611   0.007344   0.028042   0.008977   0.060610   0.067608
     20      -0.000305  -0.000539  -0.000050   0.001419  -0.000355   0.000102
     21      -0.184875   0.013352   0.009698  -0.281601   0.137674  -0.008832
     22       0.045181  -0.002019  -0.008039   0.054044  -0.060285   0.005537
     23      -0.030407  -0.001903   0.007031  -0.000183   0.095987  -0.021260
     24       0.000527  -0.000010  -0.006204  -0.215661  -0.000398   0.000171
     25       0.099329  -0.005511   0.000051  -0.000121  -0.251780   0.026963
[...]
     21       0.018514   0.160544   0.194634  -0.258654   0.005221   0.009579
     22       0.022368   0.377897   0.443965  -0.568548   0.006024   0.018825
     23      -0.033464   0.218610   0.225835  -0.327401   0.003920   0.010493
     24       0.063151   0.241144  -0.221549   0.000541   0.000993  -0.000003
     25      -0.000246  -0.001705   0.001536   0.023520   0.000026  -0.001206
     26       0.018936  -0.711111   0.605259  -0.001533   0.000917   0.000058
     27       0.019007   0.160724   0.196140   0.257370   0.005497  -0.009380
     28      -0.022506  -0.377300  -0.446196  -0.564089  -0.006552   0.018508
     29      -0.033712   0.220670   0.229837   0.328560   0.004261  -0.010418
     30      -0.311817  -0.004607  -0.004928   0.013547   0.269358   0.323206
     31       0.262644  -0.005625  -0.007605   0.019132   0.475134   0.566585
     32       0.001210  -0.000259  -0.001364   0.001144   0.004298   0.004911
     33       0.243052   0.000006  -0.000196   0.002482   0.188896   0.142553
     34       0.230189  -0.000986  -0.000185  -0.004528  -0.334853  -0.253915
     35       0.003751  -0.000180  -0.000140   0.000018  -0.000049  -0.000056
     36       0.148014   0.001447  -0.000523   0.000006  -0.267214  -0.004504
     37       0.000017  -0.000000  -0.000000  -0.000400  -0.000014   0.000106
     38       0.002922  -0.000172  -0.000555   0.000000  -0.001433  -0.000024
     39       0.243299   0.000004  -0.000198  -0.002483   0.193109  -0.136342
     40      -0.230314   0.000983   0.000181  -0.004537   0.342399  -0.242940
     41       0.003781  -0.000180  -0.000141  -0.000017  -0.000082   0.000076
     42      -0.311754  -0.004612  -0.004943  -0.013482   0.279386  -0.314935
     43      -0.262878   0.005628   0.007624   0.019030  -0.492621   0.551891
     44       0.001240  -0.000258  -0.001379  -0.001143   0.004509  -0.004845
                 42         43         44    
      0      -0.000316  -0.000001  -0.000246
      1      -0.000006  -0.000807  -0.000001
      2      -0.000608  -0.000000  -0.000126
      3      -0.002331  -0.000002  -0.001061
      4       0.000000   0.002013   0.000000
      5      -0.000026  -0.000000  -0.000027
      6      -0.017339  -0.014385  -0.008924
      7      -0.030675  -0.021439  -0.012423
      8      -0.000281  -0.000202  -0.000128
      9       0.016556   0.029046   0.019812
     10      -0.024628  -0.048553  -0.038248
     11       0.000030   0.000017  -0.000004
     12      -0.055724  -0.000029   0.062870
     13      -0.000005   0.003567   0.000004
     14      -0.000291  -0.000001   0.000326
     15       0.016593  -0.029042   0.019803
     16       0.024695  -0.048555   0.038236
     17       0.000027  -0.000013  -0.000008
     18      -0.017324   0.014368  -0.008917
     19       0.030635  -0.021400   0.012408
     20      -0.000284   0.000204  -0.000130
     21       0.004379   0.001678   0.002098
     22       0.004764   0.003947   0.002747
     23       0.003193   0.002204   0.001508
     24       0.001077  -0.000002   0.001036
     25       0.000006  -0.000501  -0.000003
     26       0.000966   0.000009  -0.001352
     27       0.004351  -0.001666   0.002090
     28      -0.004694   0.003913  -0.002724
     29       0.003189  -0.002211   0.001512
     30       0.197373   0.142783   0.082987
     31       0.346184   0.245092   0.140452
     32       0.003139   0.002171   0.001326
     33      -0.174557  -0.320703  -0.232504
     34       0.299811   0.559394   0.413376
     35       0.000102   0.000142   0.000123
     36       0.658780   0.000342  -0.699234
     37       0.000035  -0.005220  -0.000035
     38       0.003192   0.000002  -0.003468
     39      -0.174980   0.320667  -0.232406
     40      -0.300588   0.559402  -0.413253
     41       0.000130  -0.000193   0.000161
     42       0.197146  -0.142560   0.082905
     43      -0.345719   0.244653  -0.140285
     44       0.003177  -0.002196   0.001342


-----------
IR SPECTRUM
-----------

 Mode   freq       eps      Int      T**2         TX        TY        TZ
       cm**-1   L/(mol*cm) km/mol    a.u.
----------------------------------------------------------------------------
  6:     70.30   0.000049    0.25  0.000215  (-0.000004 -0.014673  0.000124)
  7:    208.07   0.000453    2.29  0.000680  (-0.000716 -0.000025 -0.026066)
  8:    349.17   0.000075    0.38  0.000067  (-0.000018  0.008169 -0.000006)
  9:    411.18   0.000001    0.01  0.000001  ( 0.000003 -0.000959 -0.000009)
 10:    471.18   0.001908    9.64  0.001264  (-0.000793 -0.000009  0.035537)
 11:    530.33   0.000104    0.53  0.000061  ( 0.006305  0.000006 -0.004649)
 12:    639.21   0.000020    0.10  0.000010  (-0.000000  0.003100 -0.000002)
 13:    712.74   0.008299   41.94  0.003634  (-0.000853  0.000004  0.060274)
 14:    737.63   0.006158   31.12  0.002605  (-0.001189  0.000010 -0.051027)
 15:    801.91   0.000166    0.84  0.000064  (-0.006496  0.000006  0.004722)
 16:    848.06   0.000005    0.02  0.000002  ( 0.000003 -0.001306 -0.000004)
 17:    896.55   0.000094    0.48  0.000033  ( 0.002604  0.000007  0.005108)
 18:    952.03   0.000000    0.00  0.000000  ( 0.000001  0.000248  0.000004)
 19:    978.03   0.000007    0.04  0.000002  (-0.001298 -0.000003 -0.000767)
 20:    999.19   0.000015    0.08  0.000005  ( 0.000091  0.002175  0.000001)
 21:   1023.19   0.000068    0.34  0.000021  ( 0.003901 -0.000009 -0.002317)
 22:   1051.68   0.000357    1.80  0.000106  (-0.009777 -0.000003 -0.003216)
 23:   1056.36   0.001849    9.34  0.000546  (-0.019029  0.000002  0.013565)
 24:   1109.73   0.001255    6.34  0.000353  (-0.000032  0.018786 -0.000002)
 25:   1181.47   0.000017    0.08  0.000004  ( 0.000004  0.002092  0.000001)
 26:   1202.31   0.000107    0.54  0.000028  (-0.005275  0.000002  0.000154)
 27:   1229.18   0.000355    1.80  0.000090  ( 0.009163 -0.000009 -0.002497)
 28:   1339.79   0.000007    0.03  0.000002  ( 0.000038  0.001258  0.000002)
 29:   1354.52   0.000000    0.00  0.000000  ( 0.000003  0.000250 -0.000001)
 30:   1400.78   0.000314    1.59  0.000070  (-0.008219  0.000011  0.001533)
 31:   1462.25   0.000109    0.55  0.000023  (-0.000009  0.004814 -0.000032)
 32:   1482.87   0.001353    6.84  0.000285  ( 0.000441 -0.000034  0.016866)
 33:   1497.21   0.002723   13.76  0.000568  ( 0.000002  0.023823  0.000020)
 34:   1524.61   0.002715   13.72  0.000556  (-0.023552 -0.000000  0.000993)
 35:   1619.79   0.000061    0.31  0.000012  (-0.000009  0.003431  0.000001)
 36:   1638.00   0.001854    9.37  0.000353  (-0.018785 -0.000000  0.000582)
 37:   3007.09   0.005707   28.84  0.000592  (-0.024012  0.000012  0.003963)
 38:   3073.15   0.003308   16.72  0.000336  (-0.007164  0.000013 -0.016871)
 39:   3101.88   0.003056   15.44  0.000307  ( 0.000038  0.017533  0.000006)
 40:   3146.21   0.001745    8.82  0.000173  (-0.013155  0.000170 -0.000114)
 41:   3146.94   0.001135    5.73  0.000113  (-0.000202 -0.010606 -0.000001)
 42:   3159.99   0.001232    6.22  0.000122  (-0.011026  0.000004 -0.000226)
 43:   3168.18   0.006976   35.26  0.000687  (-0.000010 -0.026214  0.000001)
 44:   3180.76   0.002703   13.66  0.000265  ( 0.016286 -0.000004  0.000061)

* The epsilon (eps) is given for a Dirac delta lineshape.
** The dipole moment derivative (T) already includes vibrational overlap.

The first frequency considered to be a vibration is 6
The total number of vibrations considered is 39


--------------------------
THERMOCHEMISTRY AT 298.15K
--------------------------

Temperature         ...   298.15 K
Pressure            ...     1.00 atm
Total Mass          ...    92.14 AMU
Quasi RRHO          ...     True
Cut-Off Frequency   ...     1.00 cm^-1

Throughout the following assumptions are being made:
  (1) The electronic state is orbitally nondegenerate
  (2) There are no thermally accessible electronically excited states
  (3) Hindered rotations indicated by low frequency modes are not
      treated as such but are treated as vibrations and this may
      cause some error
  (4) All equations used are the standard statistical mechanics
      equations for an ideal gas
  (5) All vibrations are strictly harmonic

freq.      70.30  E(vib)   ...       0.50 
freq.     208.07  E(vib)   ...       0.34 
freq.     349.17  E(vib)   ...       0.23 
freq.     411.18  E(vib)   ...       0.19 
freq.     471.18  E(vib)   ...       0.15 
freq.     530.33  E(vib)   ...       0.13 
freq.     639.21  E(vib)   ...       0.09 
freq.     712.74  E(vib)   ...       0.07 
freq.     737.63  E(vib)   ...       0.06 
freq.     801.91  E(vib)   ...       0.05 
freq.     848.06  E(vib)   ...       0.04 
freq.     896.55  E(vib)   ...       0.03 
freq.     952.03  E(vib)   ...       0.03 
freq.     978.03  E(vib)   ...       0.03 
freq.     999.19  E(vib)   ...       0.02 
freq.    1023.19  E(vib)   ...       0.02 
freq.    1051.68  E(vib)   ...       0.02 
freq.    1056.36  E(vib)   ...       0.02 
freq.    1109.73  E(vib)   ...       0.02 
freq.    1181.47  E(vib)   ...       0.01 
freq.    1202.31  E(vib)   ...       0.01 
freq.    1229.18  E(vib)   ...       0.01 
freq.    1339.79  E(vib)   ...       0.01 
freq.    1354.52  E(vib)   ...       0.01 
freq.    1400.78  E(vib)   ...       0.00 
freq.    1462.25  E(vib)   ...       0.00 
freq.    1482.87  E(vib)   ...       0.00 
freq.    1497.21  E(vib)   ...       0.00 
freq.    1524.61  E(vib)   ...       0.00 
freq.    1619.79  E(vib)   ...       0.00 
freq.    1638.00  E(vib)   ...       0.00 
freq.    3007.09  E(vib)   ...       0.00 
freq.    3073.15  E(vib)   ...       0.00 
freq.    3101.88  E(vib)   ...       0.00 
freq.    3146.21  E(vib)   ...       0.00 
freq.    3146.94  E(vib)   ...       0.00 
freq.    3159.99  E(vib)   ...       0.00 
freq.    3168.18  E(vib)   ...       0.00 
freq.    3180.76  E(vib)   ...       0.00 

------------
INNER ENERGY
------------

The inner energy is: U= E(el) + E(ZPE) + E(vib) + E(rot) + E(trans)
    E(el)   - is the total energy from the electronic structure calculation
              = E(kin-el) + E(nuc-el) + E(el-el) + E(nuc-nuc)
    E(ZPE)  - the the zero temperature vibrational energy from the frequency calculation
    E(vib)  - the the finite temperature correction to E(ZPE) due to population
              of excited vibrational states
    E(rot)  - is the rotational thermal energy
    E(trans)- is the translational thermal energy

Summary of contributions to the inner energy U:
Electronic energy                ...   -271.50281650 Eh
Zero point energy                ...      0.12703859 Eh      79.72 kcal/mol
Thermal vibrational correction   ...      0.00333551 Eh       2.09 kcal/mol
Thermal rotational correction    ...      0.00141627 Eh       0.89 kcal/mol
Thermal translational correction ...      0.00141627 Eh       0.89 kcal/mol
-----------------------------------------------------------------------
Total thermal energy                   -271.36960986 Eh


Summary of corrections to the electronic energy:
(perhaps to be used in another calculation)
Total thermal correction                  0.00616805 Eh       3.87 kcal/mol
Non-thermal (ZPE) correction              0.12703859 Eh      79.72 kcal/mol
-----------------------------------------------------------------------
Total correction                          0.13320664 Eh      83.59 kcal/mol


--------
ENTHALPY
--------

The enthalpy is H = U + kB*T
                kB is Boltzmann's constant
Total thermal energy              ...   -271.36960986 Eh 
Thermal Enthalpy correction       ...      0.00094421 Eh       0.59 kcal/mol
-----------------------------------------------------------------------
Total Enthalpy                    ...   -271.36866565 Eh


Note: Only C1 symmetry has been detected, increase convergence thresholds 
      if your molecule has a higher symmetry. Symmetry factor of 1.0 is   
      used for the rotational entropy correction. 
 

Note: Rotational entropy computed according to Herzberg 
Infrared and Raman Spectra, Chapter V,1, Van Nostrand Reinhold, 1945 
Point Group:  C1, Symmetry Number:   1  
Rotational constants in cm-1:     0.185390     0.084253     0.058561 

Vibrational entropy computed according to the QRRHO of S. Grimme
Chem.Eur.J. 2012 18 9955 using a reference frequency of 100.0 cm-1


-------
ENTROPY
-------

The entropy contributions are T*S = T*(S(el)+S(vib)+S(rot)+S(trans))
     S(el)   - electronic entropy
     S(vib)  - vibrational entropy
     S(rot)  - rotational entropy
     S(trans)- translational entropy
The entropies will be listed as multiplied by the temperature to get
units of energy

Electronic entropy                ...      0.00000000 Eh      0.00 kcal/mol
Vibrational entropy               ...      0.00531610 Eh      3.34 kcal/mol
Rotational entropy                ...      0.01281398 Eh      8.04 kcal/mol
Translational entropy             ...      0.01875532 Eh     11.77 kcal/mol
-----------------------------------------------------------------------
Final entropy term                ...      0.03688541 Eh     23.15 kcal/mol

In case the symmetry of your molecule has not been determined correctly
or in case you have a reason to use a different symmetry number we print 
out the resulting rotational entropy values for sn=1,12:

 non-linear molecules -----------------------------------
|  sn= 1 | S(rot)=       0.01281398 Eh      8.04 kcal/mol|
|  sn= 2 | S(rot)=       0.01215953 Eh      7.63 kcal/mol|
|  sn= 3 | S(rot)=       0.01177669 Eh      7.39 kcal/mol|
|  sn= 4 | S(rot)=       0.01150507 Eh      7.22 kcal/mol|
|  sn= 5 | S(rot)=       0.01129438 Eh      7.09 kcal/mol|
|  sn= 6 | S(rot)=       0.01112224 Eh      6.98 kcal/mol|
|  sn= 7 | S(rot)=       0.01097669 Eh      6.89 kcal/mol|
|  sn= 8 | S(rot)=       0.01085061 Eh      6.81 kcal/mol|
|  sn= 9 | S(rot)=       0.01073941 Eh      6.74 kcal/mol|
|  sn=10 | S(rot)=       0.01063993 Eh      6.68 kcal/mol|
|  sn=11 | S(rot)=       0.01054994 Eh      6.62 kcal/mol|
|  sn=12 | S(rot)=       0.01046778 Eh      6.57 kcal/mol|
 linear molecules ---------------------------------------
|  Dinfh | S(rot)=       0.00800510 Eh      5.02 kcal/mol|
|  Cinfv | S(rot)=       0.00865955 Eh      5.43 kcal/mol|
 --------------------------------------------------------


-------------------
GIBBS FREE ENERGY
-------------------

The Gibbs free energy is G = H - T*S

Total enthalpy                    ...   -271.36866565 Eh 
Total entropy correction          ...     -0.03688541 Eh    -23.15 kcal/mol
-----------------------------------------------------------------------
Final Gibbs free energy         ...   -271.40555106 Eh

For completeness - the Gibbs free energy minus the electronic energy
G-E(el)                           ...      0.09726544 Eh     61.03 kcal/mol


Maximum memory used throughout the entire PROP-calculation: 55.1 MB

--------------------------------
SUGGESTED CITATIONS FOR THIS RUN
--------------------------------

Below you find a list of papers that are relevant to this ORCA run
We neither can nor want to force you to cite these papers, but we appreciate if you do
You receive ORCA, which is the product of decades of hard work by many enthusiastic individuals, for free
The only thing we kindly ask in return is that you cite our papers,
We deeply appreciate it, if you show your appreciation for ORCA by not just citing the generic ORCA reference.

Please note that relegating all ORCA citations to the supporting information does *not* help us.
SI sections are not indexed - citations you put there will not count into any citation statistics
But we need these citations in order to attract the funding resources that allow us to do what we are doing

Therefore, if you are a happy ORCA user, please consider citing a few of the papers listed below in the main body of your paper

In addition to the list printed below, the program has created the file vacuum_censo.bibtex that contains the list in bibtex format
You can import this file easily into all common literature databanks and citation aid programs


List of essential papers. We consider these as the minimum necessary citations

  1. Neese,F.
     Software update: the ORCA program system, version 5.0
     WIRES Comput. Molec. Sci., 2022 12(1)e1606
     doi.org/10.1002/wcms.1606
  2. Grimme,S.; Hansen,A.; Ehlert,S.; Mewes,J.
     r2SCAN-3c: A 'Swiss army knife' composite electronic-structure method
     J. Chem. Phys., 2021 154 064103
     doi.org/10.1063/5.0040021

List of papers to cite with high priority. The work reported in these papers was absolutely
necessary for this run to complete.
Our perspective: the developers of density functionals and basis sets usually get cited in chemistry papers
Good! But without the algorithms to do something with them, the functionals or basis sets would not do anything.
Hence, in our opinion, the algorithm design and method developments papers are equally worthy of getting cited

  1. Neese,F.
     An improvement of the resolution of the identity approximation for the formation of the Coulomb matrix
     J. Comp. Chem., 2003 24(14)1740-1747
     doi.org/10.1002/jcc.10318
  2. Bykov,D.; Petrenko,T.; Izsak,R.; Kossmann,S.; Becker,U.; Valeev,E.; Neese,F.
     Efficient implementation of the analytic second derivatives of Hartree-Fock and hybrid DFT energies: a detailed analysis of different approximations
     Molec. Phys., 2015 113 1961-1977
     doi.org/10.1080/00268976.2015.1025114
  3. Neese,F.
     The SHARK Integral Generation and Digestion System
     J. Comp. Chem., 2022  1-16
     doi.org/10.1002/jcc.26942
  4. Lehtola,S.; Steigemann,C.; Oliveira,M.; Marques,M.
     Recent developments in Libxc - A comprehensive library of functionals for density functional theory
     Software X, 2018 7 
     doi.org/10.1016/j.softx.2017.11.002
  5. Caldeweyher,E.; Bannwarth,C.; Grimme,S.
     Extension of the D3 dispersion coefficient model
     J. Chem. Phys., 2017 147 034112-XXXX
     doi.org/10.1063/1.4993215
  6. Caldeweyher,E.; Ehlert,S.; Hansen,A.; Neugebauer,H.; Spicher,S.; Bannwarth,C.; Grimme,S.
     A generally applicable atomic-charge dependent London dispersion correction
     J. Chem. Phys., 2019 150 154122-XXXX
     doi.org/10.1063/1.5090222
  7. Caldeweyher,E.; Mewes,J.; Ehlert,S.; Grimme,S.
     Extension and evaluation of the D4 London-dispersion model for periodic systems
     Phys. Chem. Chem. Phys., 2020 22(16)8499-8512
     doi.org/10.1039/D0CP00502A

List of suggested additional citations. These are papers that are important in the 'surrounding' of 
of this run, or papers that preceded the highly important papers. If you like your results we are grateful for a citation.

  1. Neese,F.
     The ORCA program system
     WIRES Comput. Molec. Sci., 2012 2(1)73-78
     doi.org/10.1002/wcms.81
  2. Neese,F.
     Software update: the ORCA program system, version 4.0
     WIRES Comput. Molec. Sci., 2018 8(1)1-6
     doi.org/10.1002/wcms.1327
  3. Neese,F.; Wennmohs,F.; Becker,U.; Riplinger,C.
     The ORCA quantum chemistry program package
     J. Chem. Phys., 2020 152 Art. No. L224108
     doi.org/10.1063/5.0004608

List of optional additional citations

  1. Neese,F.
     Approximate second-order SCF convergence for spin unrestricted wavefunctions
     Chem. Phys. Lett., 2000 325(1-3)93-98
     doi.org/10.1016/s0009-2614(00)00662-x

Timings for individual modules:

Sum of individual times          ...      571.800 sec (=   9.530 min)
Startup calculation              ...        1.087 sec (=   0.018 min)   0.2 %
SCF iterations                   ...       25.079 sec (=   0.418 min)   4.4 %
Property integrals               ...      338.640 sec (=   5.644 min)  59.2 %
SCF Response                     ...      105.739 sec (=   1.762 min)  18.5 %
Property calculations            ...      101.255 sec (=   1.688 min)  17.7 %
                             ****ORCA TERMINATED NORMALLY****
TOTAL RUN TIME: 0 days 0 hours 9 minutes 32 seconds 560 msec
