 Entering Gaussian System
 *********************************************
 Gaussian 98:
 frequency output generated by the xtb code
 *********************************************
                         Standard orientation:
 --------------------------------------------------------------------
  Center     Atomic     Atomic              Coordinates (Angstroms)
  Number     Number      Type              X           Y           Z
 --------------------------------------------------------------------
    1          6             0       -1.088552   -1.888203   -0.000142
    2          6             0       -0.010279   -0.858341   -0.000095
    3          6             0        1.324458   -1.245974    0.000057
    4          6             0        2.347670   -0.315845    0.000115
    5          6             0        2.055680    1.040163    0.000001
    6          6             0        0.738735    1.447429   -0.000156
    7          6             0       -0.304664    0.517072   -0.000187
    8          6             0       -1.675533    1.031331   -0.000282
    9          8             0       -2.697666    0.390942   -0.000152
   10          1             0       -1.728259   -1.767323    0.872708
   11          1             0       -1.728473   -1.767053   -0.872793
   12          1             0       -0.666432   -2.890376   -0.000339
   13          1             0        1.564217   -2.299761    0.000143
   14          1             0        3.375703   -0.647136    0.000246
   15          1             0        2.852112    1.768904    0.000030
   16          1             0        0.498959    2.501606   -0.000258
   17          1             0       -1.712819    2.141253   -0.000652
 --------------------------------------------------------------------
     1 basis functions        1 primitive gaussians
     1 alpha electrons        1 beta electrons
 
 Harmonic frequencies (cm**-1), IR intensities (km*mol⁻¹),
 Raman scattering activities (A**4/amu), Raman depolarization ratios,
 reduced masses (AMU), force constants (mDyne/A) and normal coordinates:
                      1                      2                      3
                        a                      a                      a 
 Frequencies --    88.1894               142.6103               182.6497
 Red. masses --    11.7128                 4.4507                 5.8795
 Frc consts  --     0.0000                 0.0000                 0.0000
 IR Inten    --     5.4496                 0.0906                 2.5717
 Raman Activ --     0.0000                 0.0000                 0.0000
 Depolar     --     0.0000                 0.0000                 0.0000
 Atom AN      X      Y      Z        X      Y      Z        X      Y      Z
   1   6    -0.00   0.00   0.31    -0.00   0.00  -0.28     0.00  -0.00  -0.20
   2   6    -0.00   0.00   0.13    -0.00   0.00   0.02    -0.00  -0.00   0.09
   3   6     0.00  -0.00  -0.16    -0.00   0.00   0.23    -0.00   0.00   0.28
   4   6     0.00  -0.00  -0.31    -0.00  -0.00   0.11     0.00   0.00   0.10
   5   6     0.00  -0.00  -0.05     0.00  -0.00  -0.21     0.00  -0.00  -0.30
   6   6     0.00   0.00   0.25     0.00   0.00  -0.17    -0.00  -0.00  -0.13
   7   6    -0.00   0.00   0.26     0.00   0.00  -0.01    -0.00  -0.00   0.13
   8   6    -0.00   0.00   0.20    -0.00  -0.00   0.31    -0.00   0.00   0.31
   9   8    -0.00  -0.00  -0.64     0.00  -0.00   0.02    -0.00   0.00  -0.25
  10   1    -0.05   0.09   0.04    -0.30   0.21  -0.33     0.19  -0.27   0.12
  11   1     0.05  -0.09   0.04     0.30  -0.21  -0.33    -0.19   0.27   0.12
  12   1    -0.00  -0.00   0.21    -0.00  -0.00   0.29     0.00   0.00  -0.44
  13   1     0.00  -0.00  -0.09    -0.00   0.00   0.12    -0.00   0.00   0.13
  14   1     0.00  -0.00  -0.17    -0.00  -0.00   0.06    -0.00   0.00   0.05
  15   1     0.00  -0.00  -0.03     0.00  -0.00  -0.12     0.00  -0.00  -0.18
  16   1    -0.00   0.00   0.12     0.00   0.00  -0.08    -0.00  -0.00  -0.08
  17   1     0.00   0.00   0.24    -0.00   0.00   0.28     0.00   0.00   0.28
                      4                      5                      6
                        a                      a                      a 
 Frequencies --   235.0807               242.0403               367.3576
 Red. masses --    12.9760                 8.4039                 9.0122
 Frc consts  --     0.0000                 0.0000                 0.0000
 IR Inten    --     5.8895                 5.7967                 0.7990
 Raman Activ --     0.0000                 0.0000                 0.0000
 Depolar     --     0.0000                 0.0000                 0.0000
 Atom AN      X      Y      Z        X      Y      Z        X      Y      Z
   1   6     0.24  -0.36  -0.00     0.00  -0.00   0.24     0.31  -0.42   0.00
   2   6     0.09  -0.19   0.00     0.00  -0.00  -0.35    -0.25   0.19  -0.00
   3   6     0.15  -0.01   0.00     0.00  -0.00  -0.25    -0.30   0.10   0.00
   4   6     0.07   0.08  -0.00    -0.00   0.00   0.27    -0.14  -0.12  -0.00
   5   6    -0.09   0.04  -0.00    -0.00   0.00   0.22     0.06  -0.08   0.00
   6   6    -0.14  -0.14   0.00    -0.00  -0.00  -0.29     0.11   0.10   0.00
   7   6    -0.08  -0.21   0.00    -0.00  -0.00  -0.35    -0.06   0.26  -0.00
   8   6     0.01   0.12  -0.00     0.00   0.00   0.31    -0.04   0.24  -0.00
   9   8    -0.30   0.65   0.00    -0.00   0.00  -0.07     0.19  -0.09   0.00
  10   1     0.07  -0.13   0.00     0.11   0.07   0.14     0.07  -0.26   0.00
  11   1     0.07  -0.13  -0.00    -0.11  -0.07   0.14     0.07  -0.26  -0.00
  12   1     0.11  -0.09   0.00     0.00  -0.00   0.10     0.30  -0.03   0.00
  13   1     0.08   0.00   0.00     0.00  -0.00  -0.08    -0.13   0.02   0.00
  14   1     0.03   0.05  -0.00    -0.00   0.00   0.21    -0.06  -0.09  -0.00
  15   1    -0.06   0.04  -0.00    -0.00   0.00   0.17     0.05  -0.06   0.00
  16   1    -0.07  -0.05   0.00    -0.00  -0.00  -0.11     0.08   0.04   0.00
  17   1     0.13   0.04  -0.00     0.00   0.00   0.39    -0.08   0.07  -0.00
                      7                      8                      9
                        a                      a                      a 
 Frequencies --   400.7178               410.4579               477.1331
 Red. masses --     8.9887                12.1310                 9.1467
 Frc consts  --     0.0000                 0.0000                 0.0000
 IR Inten    --     1.6495                 0.2230                 0.0994
 Raman Activ --     0.0000                 0.0000                 0.0000
 Depolar     --     0.0000                 0.0000                 0.0000
 Atom AN      X      Y      Z        X      Y      Z        X      Y      Z
   1   6     0.00   0.00  -0.04     0.28   0.22   0.00    -0.00  -0.00   0.04
   2   6    -0.00   0.00   0.32     0.17   0.25  -0.00    -0.00  -0.00  -0.45
   3   6     0.00   0.00  -0.41     0.11  -0.01   0.00    -0.00   0.00  -0.14
   4   6     0.00  -0.00   0.24     0.26  -0.23  -0.00    -0.00   0.00   0.38
   5   6     0.00  -0.00   0.08     0.10  -0.26  -0.00     0.00   0.00  -0.44
   6   6     0.00  -0.00  -0.39     0.11  -0.06   0.00    -0.00   0.00   0.25
   7   6    -0.00   0.00   0.48    -0.15   0.18  -0.00     0.00   0.00   0.33
   8   6    -0.00  -0.00   0.03    -0.39  -0.05  -0.00     0.00  -0.00  -0.04
   9   8    -0.00  -0.00  -0.05    -0.50  -0.03   0.00     0.00   0.00  -0.00
  10   1    -0.08  -0.05  -0.06     0.08   0.05   0.00     0.08   0.12   0.06
  11   1     0.08   0.05  -0.06     0.08   0.05  -0.00    -0.08  -0.12   0.06
  12   1     0.00   0.00  -0.04     0.09   0.07   0.00    -0.00  -0.00   0.12
  13   1    -0.00  -0.00  -0.32    -0.06  -0.02   0.00     0.00   0.00  -0.01
  14   1     0.00  -0.00   0.11     0.07  -0.07  -0.00    -0.00   0.00   0.28
  15   1     0.00  -0.00   0.00     0.02  -0.07  -0.00     0.00  -0.00  -0.25
  16   1     0.00  -0.00  -0.33     0.12   0.00   0.00    -0.00   0.00   0.14
  17   1    -0.00  -0.00  -0.16    -0.12  -0.01   0.00     0.00  -0.00  -0.19
                     10                     11                     12
                        a                      a                      a 
 Frequencies --   546.7343               639.4438               667.7358
 Red. masses --    11.2809                11.7604                10.5033
 Frc consts  --     0.0000                 0.0000                 0.0000
 IR Inten    --     0.0421                20.9809                 0.1347
 Raman Activ --     0.0000                 0.0000                 0.0000
 Depolar     --     0.0000                 0.0000                 0.0000
 Atom AN      X      Y      Z        X      Y      Z        X      Y      Z
   1   6     0.31   0.20   0.00    -0.02   0.06   0.00    -0.00  -0.00   0.06
   2   6     0.24   0.09   0.00    -0.01   0.02   0.00    -0.00   0.00   0.48
   3   6     0.06  -0.40   0.00     0.11   0.20  -0.00     0.00  -0.00  -0.33
   4   6    -0.25  -0.16   0.00     0.34  -0.02   0.00    -0.00   0.00   0.30
   5   6    -0.47  -0.18  -0.00    -0.17  -0.17  -0.00     0.00   0.00  -0.32
   6   6    -0.29   0.25  -0.00    -0.23  -0.41   0.00     0.00   0.00   0.31
   7   6     0.02   0.05   0.00    -0.33  -0.05  -0.00     0.00  -0.00  -0.48
   8   6     0.13   0.06  -0.00    -0.06   0.45  -0.00     0.00  -0.00  -0.07
   9   8     0.20   0.04  -0.00     0.38  -0.12   0.00    -0.00   0.00   0.03
  10   1     0.09   0.06  -0.00    -0.00   0.05  -0.00    -0.10  -0.11  -0.04
  11   1     0.09   0.06   0.00    -0.00   0.05   0.00     0.10   0.11  -0.04
  12   1     0.08   0.06   0.00    -0.05  -0.00  -0.00     0.00   0.00  -0.07
  13   1    -0.02  -0.12  -0.00    -0.01   0.05  -0.00     0.00  -0.00  -0.13
  14   1    -0.03   0.07   0.00     0.10   0.02   0.00    -0.00   0.00   0.12
  15   1    -0.09  -0.10  -0.00    -0.15   0.06  -0.00     0.00  -0.00  -0.07
  16   1    -0.06   0.07  -0.00    -0.04  -0.11   0.00     0.00   0.00   0.16
  17   1     0.04   0.02  -0.00    -0.07   0.12   0.00     0.00   0.00   0.14
                     13                     14                     15
                        a                      a                      a 
 Frequencies --   760.5223               773.9902               838.6642
 Red. masses --     2.7909                10.2572                10.7941
 Frc consts  --     0.0000                 0.0000                 0.0000
 IR Inten    --    20.9704                11.5092                18.0636
 Raman Activ --     0.0000                 0.0000                 0.0000
 Depolar     --     0.0000                 0.0000                 0.0000
 Atom AN      X      Y      Z        X      Y      Z        X      Y      Z
   1   6     0.00   0.00  -0.04    -0.30  -0.32  -0.00     0.23   0.13   0.00
   2   6    -0.00   0.00  -0.08     0.12  -0.17  -0.00     0.11  -0.13   0.00
   3   6    -0.00   0.00   0.14     0.30  -0.31   0.00    -0.03  -0.30   0.00
   4   6    -0.00   0.00   0.21     0.15  -0.01   0.00    -0.44   0.15  -0.00
   5   6     0.00   0.00   0.15    -0.00   0.01   0.00     0.31   0.29   0.00
   6   6    -0.00  -0.00   0.21     0.05   0.38  -0.00     0.13  -0.31   0.00
   7   6     0.00  -0.00  -0.10     0.02   0.20   0.00    -0.09  -0.09   0.00
   8   6     0.00  -0.00  -0.11    -0.27   0.35  -0.00    -0.23   0.33  -0.00
   9   8    -0.00   0.00   0.04    -0.03  -0.09   0.00     0.01  -0.10   0.00
  10   1     0.07   0.06   0.03    -0.08  -0.05  -0.00     0.07   0.11  -0.00
  11   1    -0.07  -0.06   0.03    -0.08  -0.05   0.00     0.07   0.11   0.00
  12   1    -0.00  -0.00   0.05    -0.16  -0.12  -0.00    -0.03  -0.00  -0.00
  13   1     0.00  -0.00  -0.39     0.14  -0.08  -0.00     0.09  -0.06   0.00
  14   1     0.00  -0.00  -0.47     0.08   0.10  -0.00    -0.14  -0.01   0.00
  15   1     0.00  -0.00  -0.50     0.05  -0.04  -0.00     0.12   0.04   0.00
  16   1     0.00  -0.00  -0.41     0.08   0.12  -0.00    -0.05  -0.10   0.00
  17   1    -0.00   0.00   0.16    -0.17   0.09  -0.00    -0.12   0.08  -0.00
                     16                     17                     18
                        a                      a                      a 
 Frequencies --   882.0027               912.7215               929.1257
 Red. masses --     3.4279                 4.5581                 4.2549
 Frc consts  --     0.0000                 0.0000                 0.0000
 IR Inten    --     0.0232                 0.2509                 0.6713
 Raman Activ --     0.0000                 0.0000                 0.0000
 Depolar     --     0.0000                 0.0000                 0.0000
 Atom AN      X      Y      Z        X      Y      Z        X      Y      Z
   1   6     0.00  -0.00  -0.03    -0.00  -0.00  -0.03     0.00   0.00  -0.02
   2   6     0.00  -0.00  -0.01    -0.00   0.00  -0.02     0.00  -0.00  -0.04
   3   6    -0.00   0.00   0.29    -0.00   0.00   0.21    -0.00   0.00  -0.04
   4   6    -0.00   0.00   0.17     0.00  -0.00  -0.16    -0.00   0.00   0.19
   5   6     0.00  -0.00  -0.16     0.00  -0.00  -0.27     0.00  -0.00  -0.25
   6   6     0.00  -0.00  -0.27    -0.00   0.00   0.21    -0.00   0.00   0.20
   7   6     0.00   0.00  -0.01    -0.00   0.00   0.14     0.00  -0.00  -0.13
   8   6    -0.00   0.00   0.08    -0.00  -0.00  -0.33     0.00   0.00   0.35
   9   8    -0.00  -0.00  -0.03     0.00   0.00   0.09    -0.00  -0.00  -0.10
  10   1     0.04   0.03   0.02     0.04   0.03   0.02     0.01   0.02   0.00
  11   1    -0.04  -0.03   0.02    -0.04  -0.03   0.02    -0.01  -0.02   0.00
  12   1    -0.00  -0.00   0.03    -0.00  -0.00   0.02    -0.00  -0.00   0.01
  13   1     0.00  -0.00  -0.58     0.00  -0.00  -0.32    -0.00   0.00   0.15
  14   1     0.00  -0.00  -0.27    -0.00   0.00   0.27     0.00  -0.00  -0.38
  15   1    -0.00   0.00   0.25    -0.00   0.00   0.48    -0.00   0.00   0.47
  16   1    -0.00   0.00   0.54     0.00  -0.00  -0.35     0.00  -0.00  -0.39
  17   1     0.00  -0.00  -0.09    -0.00   0.00   0.37     0.00  -0.00  -0.40
                     19                     20                     21
                        a                      a                      a 
 Frequencies --   933.6767              1010.0193              1020.6743
 Red. masses --     5.0264                 4.6134                 4.7867
 Frc consts  --     0.0000                 0.0000                 0.0000
 IR Inten    --     0.0010                 0.2227                13.6616
 Raman Activ --     0.0000                 0.0000                 0.0000
 Depolar     --     0.0000                 0.0000                 0.0000
 Atom AN      X      Y      Z        X      Y      Z        X      Y      Z
   1   6    -0.00   0.00  -0.02    -0.29   0.26  -0.00    -0.00   0.00   0.43
   2   6     0.00   0.00  -0.00    -0.04   0.15   0.00     0.00   0.00  -0.38
   3   6     0.00  -0.00  -0.22     0.16  -0.28   0.00     0.00  -0.00   0.08
   4   6    -0.00   0.00   0.29     0.04   0.03  -0.00    -0.00   0.00   0.04
   5   6     0.00   0.00  -0.09     0.02   0.12  -0.00     0.00   0.00  -0.02
   6   6     0.00  -0.00  -0.14     0.01  -0.16   0.00    -0.00  -0.00   0.02
   7   6    -0.00   0.00   0.24     0.00  -0.02  -0.00     0.00  -0.00   0.05
   8   6    -0.00  -0.00  -0.37    -0.01  -0.01   0.00    -0.00  -0.00  -0.04
   9   8     0.00   0.00   0.10     0.01   0.01  -0.00     0.00   0.00   0.01
  10   1     0.02   0.02   0.01    -0.10  -0.36   0.03    -0.39  -0.34  -0.15
  11   1    -0.02  -0.02   0.01    -0.10  -0.36  -0.03     0.39   0.34  -0.15
  12   1     0.00   0.00   0.00     0.49   0.30   0.00     0.00   0.00  -0.24
  13   1    -0.00   0.00   0.40     0.09  -0.07   0.00     0.00  -0.00  -0.08
  14   1     0.00  -0.00  -0.49     0.05   0.12   0.00     0.00   0.00  -0.08
  15   1    -0.00   0.00   0.19    -0.06   0.10  -0.00    -0.00   0.00   0.01
  16   1    -0.00   0.00   0.16    -0.05  -0.06   0.00    -0.00  -0.00  -0.04
  17   1    -0.00   0.00   0.42     0.01   0.00  -0.00    -0.00   0.00   0.03
                     22                     23                     24
                        a                      a                      a 
 Frequencies --  1101.4003              1134.4566              1183.1076
 Red. masses --     6.4825                 6.6570                 1.3189
 Frc consts  --     0.0000                 0.0000                 0.0000
 IR Inten    --     0.9624                19.0341                 0.8568
 Raman Activ --     0.0000                 0.0000                 0.0000
 Depolar     --     0.0000                 0.0000                 0.0000
 Atom AN      X      Y      Z        X      Y      Z        X      Y      Z
   1   6     0.06  -0.03   0.00    -0.02  -0.22   0.00     0.00   0.03  -0.00
   2   6    -0.06   0.06  -0.00     0.03   0.30  -0.00     0.04  -0.10   0.00
   3   6    -0.11  -0.26   0.00     0.01  -0.26   0.00     0.00  -0.02   0.00
   4   6     0.33  -0.23   0.00    -0.07   0.11  -0.00    -0.02  -0.06   0.00
   5   6     0.21   0.37  -0.00    -0.03   0.07  -0.00    -0.05   0.04  -0.00
   6   6    -0.18   0.16  -0.00     0.14  -0.28   0.00    -0.01   0.04  -0.00
   7   6    -0.08  -0.03  -0.00    -0.18   0.30  -0.00    -0.01   0.07  -0.00
   8   6     0.03  -0.02   0.00     0.14  -0.20   0.00     0.01  -0.00   0.00
   9   8     0.03   0.02  -0.00     0.02   0.04  -0.00    -0.00  -0.00   0.00
  10   1     0.01   0.03  -0.01    -0.01   0.05  -0.02     0.00  -0.00   0.00
  11   1     0.01   0.03   0.01    -0.01   0.05   0.02     0.00  -0.00  -0.00
  12   1    -0.06  -0.04  -0.00    -0.20  -0.14  -0.00     0.04   0.02   0.00
  13   1    -0.41  -0.16  -0.00    -0.20  -0.11  -0.00     0.33   0.07   0.00
  14   1     0.04  -0.24   0.00     0.09   0.35  -0.00    -0.19  -0.58   0.00
  15   1    -0.08   0.26  -0.00    -0.24   0.26  -0.00    -0.40   0.44  -0.00
  16   1    -0.40  -0.03  -0.00     0.32  -0.01   0.00     0.36   0.09   0.00
  17   1    -0.00  -0.00  -0.00     0.09  -0.04   0.00     0.02  -0.00  -0.00
                     25                     26                     27
                        a                      a                      a 
 Frequencies --  1208.0900              1235.1609              1264.5680
 Red. masses --     7.7454                 7.3091                 4.8638
 Frc consts  --     0.0000                 0.0000                 0.0000
 IR Inten    --    36.1672                 9.5675                13.6421
 Raman Activ --     0.0000                 0.0000                 0.0000
 Depolar     --     0.0000                 0.0000                 0.0000
 Atom AN      X      Y      Z        X      Y      Z        X      Y      Z
   1   6     0.10   0.10  -0.00     0.15   0.18   0.00     0.16   0.01   0.00
   2   6    -0.14  -0.26   0.00    -0.30  -0.31  -0.00    -0.43  -0.01  -0.00
   3   6    -0.22   0.03  -0.00    -0.06  -0.10  -0.00    -0.08  -0.16  -0.00
   4   6     0.09   0.03   0.00     0.16  -0.01   0.00     0.11  -0.15   0.00
   5   6    -0.15  -0.10  -0.00     0.08   0.15  -0.00     0.07  -0.05   0.00
   6   6     0.16  -0.00   0.00    -0.03   0.23  -0.00     0.07   0.04   0.00
   7   6     0.55  -0.14   0.00    -0.39  -0.23  -0.00    -0.08   0.20  -0.00
   8   6    -0.15   0.19  -0.00     0.04   0.00   0.00     0.08  -0.09   0.00
   9   8    -0.11  -0.05   0.00     0.04  -0.02   0.00    -0.00   0.03  -0.00
  10   1     0.04   0.03   0.01     0.03   0.04  -0.00     0.02   0.14  -0.03
  11   1     0.04   0.03  -0.01     0.03   0.04   0.00     0.02   0.14   0.03
  12   1     0.07   0.05   0.00     0.12   0.08   0.00     0.01  -0.00  -0.00
  13   1    -0.23  -0.03  -0.00    -0.08  -0.05  -0.00     0.62   0.10   0.00
  14   1     0.12   0.31  -0.00     0.11   0.18  -0.00     0.12   0.24  -0.00
  15   1    -0.33   0.28  -0.00     0.13  -0.07   0.00    -0.08   0.10  -0.00
  16   1     0.05  -0.01   0.00     0.51   0.19   0.00    -0.33  -0.07  -0.00
  17   1    -0.17   0.04   0.00     0.17  -0.00  -0.00    -0.05  -0.02   0.00
                     28                     29                     30
                        a                      a                      a 
 Frequencies --  1326.1338              1399.5259              1404.7215
 Red. masses --    11.6616                 3.9512                 3.2552
 Frc consts  --     0.0000                 0.0000                 0.0000
 IR Inten    --     8.0097                22.7485                15.4070
 Raman Activ --     0.0000                 0.0000                 0.0000
 Depolar     --     0.0000                 0.0000                 0.0000
 Atom AN      X      Y      Z        X      Y      Z        X      Y      Z
   1   6     0.03  -0.06  -0.00    -0.21  -0.11   0.00     0.28   0.23  -0.00
   2   6    -0.23   0.32  -0.00     0.19   0.07   0.00     0.09  -0.03   0.00
   3   6     0.39   0.12   0.00    -0.15   0.05  -0.00    -0.10   0.04  -0.00
   4   6    -0.16  -0.36   0.00    -0.06  -0.07  -0.00    -0.03  -0.03  -0.00
   5   6    -0.29   0.25  -0.00     0.16  -0.11   0.00     0.11  -0.10   0.00
   6   6     0.40   0.06   0.00    -0.02   0.10  -0.00    -0.03   0.08  -0.00
   7   6    -0.01  -0.40   0.00    -0.02  -0.05  -0.00    -0.01  -0.03  -0.00
   8   6    -0.07   0.10  -0.00    -0.17   0.14  -0.00    -0.08   0.07  -0.00
   9   8    -0.02  -0.06   0.00    -0.05  -0.16   0.00    -0.02  -0.08   0.00
  10   1    -0.04   0.05  -0.04     0.21   0.09   0.16    -0.31  -0.32  -0.20
  11   1    -0.04   0.05   0.04     0.21   0.09  -0.16    -0.31  -0.32   0.20
  12   1    -0.06  -0.04  -0.00     0.12   0.05  -0.00    -0.39  -0.15   0.00
  13   1    -0.01   0.01  -0.00     0.07   0.04   0.00     0.07   0.04   0.00
  14   1    -0.02  -0.01  -0.00     0.03   0.14  -0.00     0.02   0.09  -0.00
  15   1    -0.04   0.03  -0.00    -0.09   0.12  -0.00    -0.06   0.08  -0.00
  16   1    -0.03  -0.02   0.00    -0.11   0.01  -0.00    -0.06   0.01  -0.00
  17   1     0.11   0.02  -0.00     0.71   0.06  -0.00     0.33   0.03  -0.00
                     31                     32                     33
                        a                      a                      a 
 Frequencies --  1434.4755              1457.4559              1464.4304
 Red. masses --     8.1533                 1.5510                 5.9553
 Frc consts  --     0.0000                 0.0000                 0.0000
 IR Inten    --    29.1984                 4.0212                 7.4179
 Raman Activ --     0.0000                 0.0000                 0.0000
 Depolar     --     0.0000                 0.0000                 0.0000
 Atom AN      X      Y      Z        X      Y      Z        X      Y      Z
   1   6     0.10  -0.06   0.00    -0.00  -0.00  -0.22     0.05  -0.06   0.00
   2   6    -0.27   0.12  -0.00    -0.00  -0.00  -0.04    -0.05  -0.32   0.00
   3   6    -0.03  -0.23   0.00     0.00   0.00  -0.00     0.26   0.06   0.00
   4   6     0.26   0.24   0.00    -0.00   0.00   0.00    -0.11   0.19  -0.00
   5   6    -0.25   0.16  -0.00    -0.00  -0.00   0.00    -0.02  -0.22   0.00
   6   6    -0.12  -0.24   0.00     0.00  -0.00   0.00     0.25   0.06   0.00
   7   6     0.37   0.14   0.00    -0.00   0.00   0.01    -0.20   0.24  -0.00
   8   6    -0.10   0.10  -0.00     0.00   0.00  -0.00     0.05  -0.01  -0.00
   9   8    -0.10  -0.11   0.00    -0.00  -0.00   0.00    -0.04  -0.04   0.00
  10   1    -0.08   0.10  -0.08     0.04  -0.46   0.08    -0.22   0.18  -0.19
  11   1    -0.08   0.10   0.08    -0.04   0.46   0.08    -0.22   0.18   0.19
  12   1     0.02  -0.00  -0.00     0.00  -0.00   0.72     0.32   0.13  -0.00
  13   1     0.05  -0.06   0.00    -0.00  -0.00   0.00    -0.27  -0.06  -0.00
  14   1    -0.02  -0.24   0.00    -0.00  -0.00  -0.00    -0.08  -0.09  -0.00
  15   1     0.19  -0.24   0.00    -0.00  -0.00  -0.00    -0.11   0.05  -0.00
  16   1     0.11  -0.04   0.00    -0.00  -0.00  -0.00    -0.24  -0.05  -0.00
  17   1     0.37   0.04   0.00     0.00   0.00   0.00     0.18   0.01   0.00
                     34                     35                     36
                        a                      a                      a 
 Frequencies --  1478.6325              1566.5032              1598.5715
 Red. masses --     5.4982                11.4657                11.4203
 Frc consts  --     0.0000                 0.0000                 0.0000
 IR Inten    --    24.5062                24.2153                43.8257
 Raman Activ --     0.0000                 0.0000                 0.0000
 Depolar     --     0.0000                 0.0000                 0.0000
 Atom AN      X      Y      Z        X      Y      Z        X      Y      Z
   1   6    -0.02  -0.24  -0.00    -0.03   0.04   0.00     0.04   0.03   0.00
   2   6     0.24   0.23  -0.00     0.25  -0.37   0.00    -0.32  -0.05  -0.00
   3   6    -0.19   0.04  -0.00    -0.10   0.20  -0.00     0.49   0.15   0.00
   4   6    -0.03  -0.17   0.00    -0.02  -0.49   0.00    -0.26  -0.22  -0.00
   5   6     0.18   0.05   0.00    -0.24   0.43  -0.00     0.32  -0.06   0.00
   6   6    -0.27   0.02  -0.00     0.05  -0.20   0.00    -0.50  -0.08  -0.00
   7   6     0.11  -0.22   0.00     0.02   0.40  -0.00     0.25   0.19   0.00
   8   6    -0.02   0.03  -0.00     0.06   0.00  -0.00    -0.03  -0.01   0.00
   9   8     0.01   0.01  -0.00    -0.06  -0.03   0.00    -0.01  -0.00   0.00
  10   1    -0.30   0.24  -0.25    -0.03  -0.02  -0.01     0.04   0.00   0.03
  11   1    -0.30   0.24   0.25    -0.03  -0.03   0.01     0.04   0.00  -0.03
  12   1     0.30   0.10   0.00     0.06   0.03  -0.00    -0.04  -0.01  -0.00
  13   1     0.11   0.05   0.00     0.02   0.06   0.00    -0.12  -0.02  -0.00
  14   1     0.06   0.14  -0.00     0.07   0.11   0.00    -0.02   0.09  -0.00
  15   1     0.02   0.05  -0.00     0.10  -0.07   0.00    -0.00   0.08  -0.00
  16   1     0.16   0.06   0.00     0.03  -0.05   0.00     0.11   0.04   0.00
  17   1    -0.11  -0.00  -0.00     0.07   0.01   0.00     0.06   0.00   0.00
                     37                     38                     39
                        a                      a                      a 
 Frequencies --  1739.4767              2731.0870              3013.2775
 Red. masses --    13.4048                 1.6690                 1.9258
 Frc consts  --     0.0000                 0.0000                 0.0000
 IR Inten    --   367.9835               144.7414                 6.6935
 Raman Activ --     0.0000                 0.0000                 0.0000
 Depolar     --     0.0000                 0.0000                 0.0000
 Atom AN      X      Y      Z        X      Y      Z        X      Y      Z
   1   6     0.02  -0.00  -0.00     0.00  -0.00  -0.00     0.00  -0.00  -0.29
   2   6    -0.01  -0.06   0.00     0.00   0.00   0.00     0.00   0.00  -0.01
   3   6    -0.01   0.01  -0.00    -0.00  -0.00  -0.00    -0.00   0.00  -0.00
   4   6     0.01  -0.02   0.00    -0.00   0.00   0.00    -0.00   0.00   0.00
   5   6    -0.04   0.03  -0.00     0.00  -0.00  -0.00    -0.00  -0.00  -0.00
   6   6     0.06  -0.01   0.00    -0.00   0.00  -0.00     0.00  -0.00   0.00
   7   6     0.04   0.04  -0.00     0.00  -0.02   0.00    -0.00  -0.00   0.00
   8   6    -0.68  -0.37   0.00     0.03  -0.24   0.00     0.00   0.00  -0.00
   9   8     0.52   0.32  -0.00    -0.02  -0.02   0.00    -0.00  -0.00   0.00
  10   1    -0.02   0.02  -0.02    -0.00   0.00   0.00    -0.41   0.09   0.53
  11   1    -0.02   0.02   0.02    -0.00   0.00  -0.00     0.41  -0.09   0.53
  12   1     0.02   0.01   0.00     0.00   0.00   0.00    -0.00   0.00  -0.04
  13   1    -0.01  -0.00  -0.00     0.00   0.00   0.00     0.00  -0.00  -0.00
  14   1     0.00  -0.00  -0.00    -0.00   0.00   0.00     0.00  -0.00   0.00
  15   1     0.00  -0.01  -0.00    -0.00   0.00  -0.00     0.00   0.00  -0.00
  16   1     0.00  -0.00  -0.00     0.01  -0.01   0.00    -0.00   0.00   0.00
  17   1     0.06  -0.05   0.00    -0.03   0.97  -0.00     0.00  -0.00  -0.00
                     40                     41                     42
                        a                      a                      a 
 Frequencies --  3033.2801              3037.6000              3069.2651
 Red. masses --     1.4329                 1.7852                 1.7953
 Frc consts  --     0.0000                 0.0000                 0.0000
 IR Inten    --     2.5500                26.7858                17.8301
 Raman Activ --     0.0000                 0.0000                 0.0000
 Depolar     --     0.0000                 0.0000                 0.0000
 Atom AN      X      Y      Z        X      Y      Z        X      Y      Z
   1   6     0.20  -0.02   0.00     0.12  -0.24   0.00     0.00  -0.00   0.00
   2   6     0.01   0.00   0.00     0.00  -0.01   0.00     0.00  -0.00   0.00
   3   6    -0.00   0.00   0.00    -0.00   0.02  -0.00    -0.00   0.01  -0.00
   4   6    -0.00   0.00  -0.00     0.00  -0.00   0.00     0.02  -0.01   0.00
   5   6    -0.00  -0.00   0.00    -0.00   0.00  -0.00    -0.05  -0.05  -0.00
   6   6     0.00  -0.00   0.00     0.00  -0.00   0.00    -0.06   0.25  -0.00
   7   6     0.00  -0.00  -0.00    -0.00   0.00  -0.00    -0.01   0.01  -0.00
   8   6    -0.00   0.00  -0.00     0.00   0.00  -0.00    -0.00   0.00  -0.00
   9   8    -0.00  -0.00  -0.00    -0.00  -0.00   0.00     0.00   0.00  -0.00
  10   1    -0.38   0.08   0.57    -0.02  -0.02   0.06    -0.00   0.00   0.00
  11   1    -0.38   0.08  -0.57    -0.02  -0.02  -0.06    -0.00   0.00  -0.00
  12   1     0.06  -0.10   0.00    -0.38   0.88   0.00    -0.00   0.00   0.00
  13   1     0.00  -0.01   0.00     0.01  -0.06   0.00     0.01  -0.05   0.00
  14   1     0.00  -0.00   0.00    -0.01   0.00  -0.00    -0.07   0.02  -0.00
  15   1    -0.00  -0.00   0.00     0.00   0.00  -0.00     0.20   0.18   0.00
  16   1    -0.00   0.01  -0.00    -0.00   0.01  -0.00     0.20  -0.90   0.00
  17   1     0.00  -0.01   0.00    -0.00  -0.00   0.00     0.00  -0.01   0.00
                     43                     44                     45
                        a                      a                      a 
 Frequencies --  3074.2916              3084.7554              3095.6334
 Red. masses --     1.7817                 1.8392                 1.9088
 Frc consts  --     0.0000                 0.0000                 0.0000
 IR Inten    --     8.8860                44.7635                43.5077
 Raman Activ --     0.0000                 0.0000                 0.0000
 Depolar     --     0.0000                 0.0000                 0.0000
 Atom AN      X      Y      Z        X      Y      Z        X      Y      Z
   1   6    -0.01   0.01  -0.00     0.00  -0.01   0.00    -0.00   0.00  -0.00
   2   6     0.00   0.01  -0.00    -0.00  -0.00  -0.00     0.00   0.00   0.00
   3   6    -0.05   0.22  -0.00     0.03  -0.13   0.00    -0.01   0.06  -0.00
   4   6     0.12  -0.04   0.00     0.17  -0.06   0.00    -0.15   0.05  -0.00
   5   6    -0.02  -0.02  -0.00    -0.11  -0.10  -0.00    -0.16  -0.15  -0.00
   6   6     0.01  -0.03   0.00     0.01  -0.05   0.00     0.02  -0.06   0.00
   7   6     0.00  -0.00   0.00     0.00   0.00  -0.00     0.00   0.00   0.00
   8   6     0.00  -0.00   0.00    -0.00  -0.00   0.00     0.00  -0.00   0.00
   9   8    -0.00  -0.00   0.00    -0.00   0.00  -0.00    -0.00  -0.00   0.00
  10   1     0.00   0.00  -0.01    -0.00   0.00   0.00     0.00  -0.00  -0.00
  11   1     0.00   0.00   0.01    -0.00   0.00  -0.00     0.00  -0.00   0.00
  12   1     0.02  -0.05  -0.00    -0.01   0.02   0.00     0.00  -0.01  -0.00
  13   1     0.18  -0.79   0.00    -0.10   0.45  -0.00     0.04  -0.19   0.00
  14   1    -0.47   0.15  -0.00    -0.61   0.20  -0.00     0.50  -0.16   0.00
  15   1     0.07   0.07   0.00     0.39   0.35   0.00     0.56   0.51   0.00
  16   1    -0.02   0.11  -0.00    -0.04   0.17  -0.00    -0.04   0.18  -0.00
  17   1    -0.00   0.00  -0.00    -0.00   0.00  -0.00    -0.00   0.00  -0.00
