16
 energy: -271.706027707200 gnorm: 0.000865066048 xtb: 6.7.1 (edcfbbe)
C            1.18472907104479       -1.23453615689464       -0.67488951189349
C            0.68227075414534       -0.26266761705694        0.40824728258585
C            1.61634605008426        0.93582132681256        0.54899116525112
C           -0.72884791220095        0.17153445637680        0.02126547560870
O           -0.92786275357756        1.14597984569304       -0.67434663655337
C           -1.86054715413914       -0.69054996286326        0.53521420322437
H            0.51997573524599       -2.09524786365465       -0.79847992237986
H            1.25538678035605       -0.71541196020889       -1.63591026235570
H            2.17812826343972       -1.61020170959858       -0.41205077811867
H            0.62246006540876       -0.80898504253965        1.35961876067649
H            1.67399011022571        1.48182475873443       -0.39573710198296
H            2.62144705617194        0.60493306013949        0.82631416617753
H            1.25792553474810        1.63126414025948        1.31302971514006
H           -2.78928463483153       -0.45720370898863        0.01325306036195
H           -1.98911729592954       -0.48763400228793        1.60584208679419
H           -1.62299504596088       -1.75531647020879        0.44307211975969
16
 energy: -271.706031500649 gnorm: 0.000398866995 xtb: 6.7.1 (edcfbbe)
C            1.18507043240039       -1.23459943173563       -0.67439117682628
C            0.68271520398635       -0.26235540897682        0.40851122683077
C            1.61677306450777        0.93577476401945        0.54856072196014
C           -0.72898800627630        0.17062833684868        0.02164506353191
O           -0.92858479167472        1.14653210623289       -0.67185408923931
C           -1.86119307737589       -0.69059912691512        0.53443701685284
H            0.52143938628372       -2.09652833800412       -0.79543901101041
H            1.25354007340502       -0.71677379007741       -1.63623285505646
H            2.17946042673182       -1.60816872918591       -0.41217162905095
H            0.62397417279497       -0.80849058750699        1.35999052064167
H            1.67227516662195        1.48328056671404       -0.39582326533001
H            2.62297591845921        0.60448619784812        0.82296735640006
H            1.26016195518372        1.63021636280129        1.31497011277705
H           -2.78860520242957       -0.45614368789088        0.01093797209516
H           -1.99202228242896       -0.48811794118006        1.60477369123131
H           -1.62498770398661       -1.75553812088376        0.44255192587920
16
 energy: -271.706031500649 gnorm: 0.000398866995 xtb: 6.7.1 (edcfbbe)
C            1.18507043240039       -1.23459943173563       -0.67439117682628
C            0.68271520398635       -0.26235540897682        0.40851122683077
C            1.61677306450777        0.93577476401945        0.54856072196014
C           -0.72898800627630        0.17062833684868        0.02164506353191
O           -0.92858479167472        1.14653210623289       -0.67185408923931
C           -1.86119307737589       -0.69059912691512        0.53443701685284
H            0.52143938628372       -2.09652833800412       -0.79543901101041
H            1.25354007340502       -0.71677379007741       -1.63623285505646
H            2.17946042673182       -1.60816872918591       -0.41217162905095
H            0.62397417279497       -0.80849058750699        1.35999052064167
H            1.67227516662195        1.48328056671404       -0.39582326533001
H            2.62297591845921        0.60448619784812        0.82296735640006
H            1.26016195518372        1.63021636280129        1.31497011277705
H           -2.78860520242957       -0.45614368789088        0.01093797209516
H           -1.99202228242896       -0.48811794118006        1.60477369123131
H           -1.62498770398661       -1.75553812088376        0.44255192587920
