
                                 *****************
                                 * O   R   C   A *
                                 *****************

                                            #,                                       
                                            ###                                      
                                            ####                                     
                                            #####                                    
                                            ######                                   
                                           ########,                                 
                                     ,,################,,,,,                         
                               ,,#################################,,                 
                          ,,##########################################,,             
                       ,#########################################, ''#####,          
                    ,#############################################,,   '####,        
                  ,##################################################,,,,####,       
                ,###########''''           ''''###############################       
              ,#####''   ,,,,##########,,,,          '''####'''          '####       
            ,##' ,,,,###########################,,,                        '##       
           ' ,,###''''                  '''############,,,                           
         ,,##''                                '''############,,,,        ,,,,,,###''
      ,#''                                            '''#######################'''  
     '                                                          ''''####''''         
             ,#######,   #######,   ,#######,      ##                                
            ,#'     '#,  ##    ##  ,#'     '#,    #''#        ,####,   ,####,        
            ##       ##  ##   ,#'  ##            #'  '#       #'       #'  '#        
            ##       ##  #######   ##           ,######,      #####,   #    #        
            '#,     ,#'  ##    ##  '#,     ,#' ,#      #,     #,   #   #,  ,#        
             '#######'   ##     ##  '#######'  #'      '#     '####' # '####'        



                #########################################################
                #                        -***-                          #
                #          Department of theory and spectroscopy        #
                #                                                       #
                #                      Frank Neese                      #
                #                                                       #
                #     Directorship, Architecture, Infrastructure        #
                #                    SHARK, DRIVERS                     #
                #        Core code/Algorithms in most modules           #
                #                                                       #
                #        Max Planck Institute fuer Kohlenforschung      #
                #                Kaiser Wilhelm Platz 1                 #
                #                 D-45470 Muelheim/Ruhr                 #
                #                      Germany                          #
                #                                                       #
                #                  All rights reserved                  #
                #                        -***-                          #
                #########################################################


                         Program Version 6.0.1  -  RELEASE   -


 With contributions from (in alphabetic order):
[Max-Planck-Institut fuer Kohlenforschung]                               
  Daniel Aravena         : Magnetic Suceptibility                        
  Michael Atanasov       : Ab Initio Ligand Field Theory (pilot matlab implementation)
  Alexander A. Auer      : GIAO ZORA, VPT2 properties, NMR spectrum      
  Ute Becker             : All parallelization in ORCA, NUMFREQ, NUMCALC 
  Giovanni Bistoni       : ED, misc. LED, open-shell LED, HFLD           
  Martin Brehm           : Molecular dynamics                            
  Dmytro Bykov           : pre 5.0 version of the SCF Hessian            
  Marcos Casanova-Páez   : Triplet and SCS-CIS(D). UHF-(DLPNO)-IP/EA/STEOM-CCSD. UHF-CVS-IP/STEOM-CCSD   
  Vijay G. Chilkuri      : MRCI spin determinant printing, contributions to CSF-ICE 
  Pauline Colinet        : FMM embedding                                 
  Dipayan Datta          : RHF DLPNO-CCSD density                        
  Achintya Kumar Dutta   : EOM-CC, STEOM-CC                              
  Nicolas Foglia         : Exact transition moments, OPA infrastructure, MCD improvements    
  Dmitry Ganyushin       : Spin-Orbit,Spin-Spin,Magnetic field MRCI      
  Miquel Garcia-Rates    : C-PCM and meta-GGA Hessian, CCSD/C-PCM, Gaussian charge scheme 
  Tiago L. C. Gouveia    : GS-ROHF, GS-ROCIS                             
  Yang Guo               : DLPNO-NEVPT2, F12-NEVPT2, CIM, IAO-localization        
  Andreas Hansen         : Spin unrestricted coupled pair/coupled cluster methods 
  Ingolf Harden          : AUTO-CI MPn and infrastructure                
  Benjamin Helmich-Paris : MC-RPA, TRAH-(SCF,CASSCF), AVAS, COSX integrals, SCF dyn. polar. 
  Lee Huntington         : MR-EOM, pCC                                   
  Robert Izsak           : Overlap fitted RIJCOSX, COSX-SCS-MP3, EOM     
  Riya Kayal             : Wick's Theorem for AUTO-CI, AUTO-CI UHF-CCSDT 
  Emily Kempfer          : AUTO-CI, RHF CISDT and CCSDT                  
  Christian Kollmar      : KDIIS, OOCD, Brueckner-CCSD(T), CCSD density, CASPT2, CASPT2-K, improved NEVPT2 
  Axel Koslowski         : Symmetry handling                             
  Simone Kossmann        : meta-GGA functionals, TD-DFT gradient, OOMP2, (MP2 Hessian; deprecated post 5.0) 
  Lucas Lang             : DCDCAS                                        
  Marvin Lechner         : AUTO-CI (C++ implementation), FIC-MRCC        
  Spencer Leger          : CASSCF response                               
  Dagmar Lenk            : GEPOL surface, SMD, ORCA-2-JSON               
  Dimitrios Liakos       : Extrapolation schemes; Compound Job, initial MDCI parallelization 
  Dimitrios Manganas     : Further ROCIS development; embedding schemes. LFT, Crystal Embedding 
  Dimitrios Pantazis     : SARC Basis sets                               
  Anastasios Papadopoulos: AUTO-CI, single reference methods and gradients 
  Taras Petrenko         : pre 6.0 DFT Hessian and TD-DFT gradient, (ASA, deprecated), ECA, 1-Electron XAS/XES, NRVS 
  Peter Pinski           : DLPNO-MP2, DLPNO-MP2 Gradient                 
  Christoph Reimann      : Effective Core Potentials                     
  Marius Retegan         : Local ZFS, SOC                                
  Christoph Riplinger    : Optimizer, TS searches, QM/MM, DLPNO-CCSD(T), (RO)-DLPNO pert. Triples 
  Michael Roemelt        : Original ROCIS implementation                 
  Masaaki Saitow         : Open-shell DLPNO-CCSD energy and density      
  Barbara Sandhoefer     : DKH picture change effects                    
  Kantharuban Sivalingam : CASSCF convergence/infrastructure, NEVPT2 and variants, FIC-MRCI 
  Bernardo de Souza      : ESD, SOC TD-DFT                               
  Georgi L. Stoychev     : AutoAux, RI-MP2 NMR, DLPNO-MP2 response, X2C  
  Van Anh Tran           : RI-MP2 g-tensors                              
  Willem Van den Heuvel  : Paramagnetic NMR                              
  Zikuan Wang            : NOTCH, Electric field optimization            
  Frank Wennmohs         : Technical directorship and infrastructure     
  Hang Xu                : AUTO-CI-Response properties                   
                                                                         
[FACCTs GmbH]                                                            
  Markus Bursch, Miquel Garcia-Rates, Christoph Riplinger, Bernardo de Souza, Georgi L. Stoychev 
                                                                 
  APM, Basis sets (HGBS, AHGBS, def-TZVP (Ac-Lr), def2-XVPD (La-Lu)), CI-OPT, improved COSX, DLPNO-Multilevel,           
  DOCKER, DRACO, updates on ESD, GOAT, IRC, LR-CPCM, MBIS, meta-GGA TD-DFT gradient, ML-optimized integration grids, 
  MM, NACMEs, nearIR, NEB, NEB-TS, NL-DFT gradient (VV10), 2- and 3-layer-ONIOM, interface openCOSMO-RS, QMMM,   
  Crystal-QMMM, SF, symmetry and pop. for TD-DFT, r2SCAN hybrids, SOLVATOR                                   
                                                                         
[Other institutions]                                                     
  V. Asgeirsson          : NEB                                           
  Christoph Bannwarth    : sTDA-DFT, sTD-DFT, PBEh-3c, B97-3c, D3        
  Sebastian Ehlert       : rSCAN, r2SCAN, r2SCAN-3c, D4, dhf basis sets  
  Marvin Friede          : D4 for Fr, Ra, Ac-Lr                          
  Lars Goerigk           : TD-DFT with DH, B97 family of functionals     
  Stefan Grimme          : VdW corrections, initial TS optimization, DFT functionals, gCP, sTDA/sTD-DF 
  Waldemar Hujo          : DFT-NL                                        
  H. Jonsson             : NEB                                           
  Holger Kruse           : gCP                                           
  Marcel Mueller         : wB97X-3c, vDZP basis set                      
  Hagen Neugebauer       : wr2SCAN                                       
  Tobias Risthaus        : range-separated hybrid DFT                    
  Lukas Wittmann         : regularized MP2, r2SCAN double-hybrids, wr2SCAN        
                                                                         
We gratefully acknowledge several colleagues who have allowed us to      
interface, adapt or use parts of their codes:                            
  Ed Valeev, F. Pavosevic, A. Kumar             : LibInt (2-el integral package), F12 methods 
  Garnet Chan, S. Sharma, J. Yang, R. Olivares  : DMRG                   
  Ulf Ekstrom                                   : XCFun DFT Library      
  Mihaly Kallay                                 : mrcc  (arbitrary order and MRCC methods)
  Frank Weinhold                                : gennbo (NPA and NBO analysis)           
  Simon Mueller                                 : openCOSMO-RS                            
  Christopher J. Cramer and Donald G. Truhlar   : smd solvation model                     
  S Lehtola, MJT Oliveira, MAL Marques          : LibXC Library                           
  Liviu Ungur et al                             : ANISO software                          


 Your calculation uses the libint2 library for the computation of 2-el integrals
 For citations please refer to: http://libint.valeyev.net

 Your ORCA version has been built with support for libXC version: 6.2.2
 For citations please refer to: https://libxc.gitlab.io

 This ORCA versions uses:
   CBLAS   interface :  Fast vector & matrix operations
   LAPACKE interface :  Fast linear algebra routines
   SCALAPACK package :  Parallel linear algebra routines
   Shared memory     :  Shared parallel matrices
   BLAS/LAPACK       :  OpenBLAS 0.3.27  USE64BITINT DYNAMIC_ARCH NO_AFFINITY Zen SINGLE_THREADED
        Core in use  :  Zen
   Copyright (c) 2011-2014, The OpenBLAS Project


Your calculation utilizes the geometrical counterpoise correction gCP
Please cite in your paper:
H.Kruse, S. Grimme J.Chem.Phys., 136, (2012), 154101 
   

Your calculation utilizes the atom-pairwise dispersion correction
based on EEQ partial charges (D4)


================================================================================

----- Orbital basis set information -----
Your calculation utilizes the basis: def2-SV(P)
   F. Weigend and R. Ahlrichs, Phys. Chem. Chem. Phys. 7, 3297 (2005).

----- AuxJ basis set information -----
Your calculation utilizes the auxiliary basis: def2/J
   F. Weigend, Phys. Chem. Chem. Phys. 8, 1057 (2006).

================================================================================
                                        WARNINGS
                       Please study these warnings very carefully!
================================================================================


================================================================================
                                       INPUT FILE
================================================================================
NAME = sp.inp
|  1> ! pbe def2-sv(p) def2/J RI DEFGRID1 loosescf d4 GCP(DFT/SV(P)) printgap
|  2> %output
|  3>     printlevel normal
|  4> end
|  5> * xyz 0 1
|  6> C -0.1771840803 -2.2902249766 -0.4922640515
|  7> C 0.4949988145 -0.9784988822 -0.2366738188
|  8> C 1.8883938673 -0.9412954541 -0.2129621626
|  9> C 2.5858355183 0.2183213639 0.0626000033
| 10> C 1.9021194919 1.3916916254 0.3467835479
| 11> C 0.524138462 1.3840573727 0.3458554333
| 12> C -0.1740684626 0.215508046 0.0452886013
| 13> N -1.6116718598 0.3283911874 0.0545251983
| 14> O -2.2553191402 -0.3299118316 -0.7355963982
| 15> O -2.0944816946 1.1064114192 0.8501015258
| 16> H -0.0036601902 -2.9548646465 0.3544101696
| 17> H -1.2452976437 -2.1880765594 -0.6476927736
| 18> H 0.2557435098 -2.7583041642 -1.3741012601
| 19> H 2.4287736036 -1.8536775568 -0.4179328887
| 20> H 3.6652760093 0.2087505781 0.0606415184
| 21> H 2.4394535439 2.300483715 0.5670890171
| 22> H -0.039427823 2.2780245407 0.5669155427
| 23> *
| 24> 
| 25>                          ****END OF INPUT****
================================================================================

                       ****************************
                       * Single Point Calculation *
                       ****************************

---------------------------------
CARTESIAN COORDINATES (ANGSTROEM)
---------------------------------
  C     -0.177184   -2.290225   -0.492264
  C      0.494999   -0.978499   -0.236674
  C      1.888394   -0.941295   -0.212962
  C      2.585836    0.218321    0.062600
  C      1.902119    1.391692    0.346784
  C      0.524138    1.384057    0.345855
  C     -0.174068    0.215508    0.045289
  N     -1.611672    0.328391    0.054525
  O     -2.255319   -0.329912   -0.735596
  O     -2.094482    1.106411    0.850102
  H     -0.003660   -2.954865    0.354410
  H     -1.245298   -2.188077   -0.647693
  H      0.255744   -2.758304   -1.374101
  H      2.428774   -1.853678   -0.417933
  H      3.665276    0.208751    0.060642
  H      2.439454    2.300484    0.567089
  H     -0.039428    2.278025    0.566916

----------------------------
CARTESIAN COORDINATES (A.U.)
----------------------------
  NO LB      ZA    FRAG     MASS         X           Y           Z
   0 C     6.0000    0    12.011   -0.334829   -4.327898   -0.930244
   1 C     6.0000    0    12.011    0.935412   -1.849095   -0.447249
   2 C     6.0000    0    12.011    3.568547   -1.778791   -0.402440
   3 C     6.0000    0    12.011    4.886521    0.412568    0.118297
   4 C     6.0000    0    12.011    3.594485    2.629916    0.655326
   5 C     6.0000    0    12.011    0.990478    2.615489    0.653572
   6 C     6.0000    0    12.011   -0.328942    0.407251    0.085583
   7 N     7.0000    0    14.007   -3.045618    0.620569    0.103038
   8 O     8.0000    0    15.999   -4.261936   -0.623443   -1.390076
   9 O     8.0000    0    15.999   -3.957997    2.090815    1.606459
  10 H     1.0000    0     1.008   -0.006917   -5.583885    0.669738
  11 H     1.0000    0     1.008   -2.353272   -4.134865   -1.223962
  12 H     1.0000    0     1.008    0.483285   -5.212439   -2.596675
  13 H     1.0000    0     1.008    4.589717   -3.502943   -0.789779
  14 H     1.0000    0     1.008    6.926368    0.394481    0.114596
  15 H     1.0000    0     1.008    4.609899    4.347284    1.071643
  16 H     1.0000    0     1.008   -0.074508    4.304843    1.071315

--------------------------------
INTERNAL COORDINATES (ANGSTROEM)
--------------------------------
 C      0   0   0     0.000000000000     0.00000000     0.00000000
 C      1   0   0     1.495921641612     0.00000000     0.00000000
 C      2   1   0     1.394093293460   118.38703694     0.00000000
 C      3   2   1     1.380967243787   122.04522681   182.32722204
 C      4   3   2     1.387452940589   120.14182979     0.95022857
 C      5   4   3     1.378002489829   119.20620142   359.79594827
 C      6   5   4     1.394037610321   120.37342586   359.14474264
 N      7   6   5     1.442058059156   115.61403937   180.89322526
 O      8   7   6     1.213234034985   118.83162628   145.68890312
 O      8   7   6     1.212997325037   116.82136638   326.98460864
 H      1   2   3     1.090281462704   109.28968342    67.85043673
 H      1   2   3     1.084185856350   112.61648943   189.14668750
 H      1   2   3     1.088191750844   109.68630868   310.00836177
 H      3   2   1     1.080029795556   118.31477219     2.32562394
 H      4   3   2     1.079484696146   119.81564246   180.68273039
 H      5   4   3     1.078501481370   120.59370866   179.74124523
 H      6   5   4     1.079653568057   121.14828679   179.72769466

---------------------------
INTERNAL COORDINATES (A.U.)
---------------------------
 C      0   0   0     0.000000000000     0.00000000     0.00000000
 C      1   0   0     2.826882220453     0.00000000     0.00000000
 C      2   1   0     2.634454529775   118.38703694     0.00000000
 C      3   2   1     2.609649890674   122.04522681   182.32722204
 C      4   3   2     2.621906081418   120.14182979     0.95022857
 C      5   4   3     2.604047317639   119.20620142   359.79594827
 C      6   5   4     2.634349303892   120.37342586   359.14474264
 N      7   6   5     2.725094801019   115.61403937   180.89322526
 O      8   7   6     2.292680062474   118.83162628   145.68890312
 O      8   7   6     2.292232745500   116.82136638   326.98460864
 H      1   2   3     2.060333373401   109.28968342    67.85043673
 H      1   2   3     2.048814346772   112.61648943   189.14668750
 H      1   2   3     2.056384390288   109.68630868   310.00836177
 H      3   2   1     2.040960530076   118.31477219     2.32562394
 H      4   3   2     2.039930441476   119.81564246   180.68273039
 H      5   4   3     2.038072434818   120.59370866   179.74124523
 H      6   5   4     2.040249563139   121.14828679   179.72769466

---------------------
BASIS SET INFORMATION
---------------------
There are 4 groups of distinct atoms

 Group   1 Type C   : 7s4p1d contracted to 3s2p1d pattern {511/31/1}
 Group   2 Type N   : 7s4p1d contracted to 3s2p1d pattern {511/31/1}
 Group   3 Type O   : 7s4p1d contracted to 3s2p1d pattern {511/31/1}
 Group   4 Type H   : 4s contracted to 2s pattern {31}

Atom   0C    basis set group =>   1
Atom   1C    basis set group =>   1
Atom   2C    basis set group =>   1
Atom   3C    basis set group =>   1
Atom   4C    basis set group =>   1
Atom   5C    basis set group =>   1
Atom   6C    basis set group =>   1
Atom   7N    basis set group =>   2
Atom   8O    basis set group =>   3
Atom   9O    basis set group =>   3
Atom  10H    basis set group =>   4
Atom  11H    basis set group =>   4
Atom  12H    basis set group =>   4
Atom  13H    basis set group =>   4
Atom  14H    basis set group =>   4
Atom  15H    basis set group =>   4
Atom  16H    basis set group =>   4
---------------------------------
AUXILIARY/J BASIS SET INFORMATION
---------------------------------
There are 4 groups of distinct atoms

 Group   1 Type C   : 12s5p4d2f1g contracted to 6s4p3d1f1g pattern {711111/2111/211/2/1}
 Group   2 Type N   : 12s5p4d2f1g contracted to 6s4p3d1f1g pattern {711111/2111/211/2/1}
 Group   3 Type O   : 12s5p4d2f1g contracted to 6s4p3d1f1g pattern {711111/2111/211/2/1}
 Group   4 Type H   : 5s2p1d contracted to 3s1p1d pattern {311/2/1}

Atom   0C    basis set group =>   1
Atom   1C    basis set group =>   1
Atom   2C    basis set group =>   1
Atom   3C    basis set group =>   1
Atom   4C    basis set group =>   1
Atom   5C    basis set group =>   1
Atom   6C    basis set group =>   1
Atom   7N    basis set group =>   2
Atom   8O    basis set group =>   3
Atom   9O    basis set group =>   3
Atom  10H    basis set group =>   4
Atom  11H    basis set group =>   4
Atom  12H    basis set group =>   4
Atom  13H    basis set group =>   4
Atom  14H    basis set group =>   4
Atom  15H    basis set group =>   4
Atom  16H    basis set group =>   4
------------------------------------------------------------------------------
                             ORCA STARTUP CALCULATIONS
                           -- RI-GTO INTEGRALS CHOSEN --
------------------------------------------------------------------------------
------------------------------------------------------------------------------
                   ___                                                        
                  /   \      - P O W E R E D   B Y -                         
                 /     \                                                     
                 |  |  |   _    _      __       _____    __    __             
                 |  |  |  | |  | |    /  \     |  _  \  |  |  /  |          
                  \  \/   | |  | |   /    \    | | | |  |  | /  /          
                 / \  \   | |__| |  /  /\  \   | |_| |  |  |/  /          
                |  |  |   |  __  | /  /__\  \  |    /   |      \           
                |  |  |   | |  | | |   __   |  |    \   |  |\   \          
                \     /   | |  | | |  |  |  |  | |\  \  |  | \   \       
                 \___/    |_|  |_| |__|  |__|  |_| \__\ |__|  \__/        
                                                                              
                      - O R C A' S   B I G   F R I E N D -                    
                                      &                                       
                       - I N T E G R A L  F E E D E R -                       
                                                                              
 v1 FN, 2020, v2 2021, v3 2022-2024                                           
------------------------------------------------------------------------------


----------------------
SHARK INTEGRAL PACKAGE
----------------------

Number of atoms                             ...     17
Number of basis functions                   ...    154
Number of shells                            ...     74
Maximum angular momentum                    ...      2
Integral batch strategy                     ... SHARK/LIBINT Hybrid
RI-J (if used) integral strategy            ... SPLIT-RIJ (Revised 2003 algorithm where possible)
Printlevel                                  ...      1
Contraction scheme used                     ... SEGMENTED contraction
Prescreening option                         ... SCHWARTZ
   Thresh                                   ... 1.000e-09
   Tcut                                     ... 1.000e-10
   Tpresel                                  ... 1.000e-10 
Coulomb Range Separation                    ... NOT USED
Exchange Range Separation                   ... NOT USED
Multipole approximations                    ... NOT USED
Finite Nucleus Model                        ... NOT USED
CABS basis                                  ... NOT available
Auxiliary Coulomb fitting basis             ... AVAILABLE
   # of basis functions in Aux-J            ...    567
   # of shells in Aux-J                     ...    185
   Maximum angular momentum in Aux-J        ...      4
Auxiliary J/K fitting basis                 ... NOT available
Auxiliary Correlation fitting basis         ... NOT available
Auxiliary 'external' fitting basis          ... NOT available

Checking pre-screening integrals            ... done (  0.0 sec) Dimension = 74
Check shell pair data                       ... done (  0.0 sec)
Shell pair information
Shell pair cut-off parameter TPreSel        ...   1.0e-10
Total number of shell pairs                 ...      2775
Shell pairs after pre-screening             ...      2571
Total number of primitive shell pairs       ...     11177
Primitive shell pairs kept                  ...      7180
          la=0 lb=0:    896 shell pairs
          la=1 lb=0:    836 shell pairs
          la=1 lb=1:    206 shell pairs
          la=2 lb=0:    393 shell pairs
          la=2 lb=1:    191 shell pairs
          la=2 lb=2:     49 shell pairs

Calculating one electron integrals          ... done (  0.0 sec)
Calculating RI/J V-Matrix + Cholesky decomp.... done (  0.0 sec)
Calculating Nuclear repulsion               ... done (  0.0 sec) ENN=    508.562118594935 Eh

Diagonalization of the overlap matrix:
Smallest eigenvalue                        ... 2.402e-04
Time for diagonalization                   ...    0.018 sec
Threshold for overlap eigenvalues          ... 1.000e-07
Number of eigenvalues below threshold      ... 0
Time for construction of square roots      ...    0.005 sec
Total time needed                          ...    0.028 sec

-------------------
DFT GRID GENERATION
-------------------

General Integration Accuracy     IntAcc      ... 4.159
Radial Grid Type                 RadialGrid  ... OptM3 with GC (2021)
Angular Grid (max. ang.)         AngularGrid ... 3 (Lebedev-194)
Angular grid pruning method      GridPruning ... 4 (adaptive)
Weight generation scheme         WeightScheme... mBecke (2022)
Basis function cutoff            BFCut       ... 1.0000e-10
Integration weight cutoff        WCut        ... 1.0000e-14
Partially contracted basis set               ... off
Rotationally invariant grid construction     ... off
Angular grids for H and He will be reduced by one unit

Total number of grid points                  ...    42547
Total number of batches                      ...      672
Average number of points per batch           ...       63
Average number of grid points per atom       ...     2503
Initializing property integral containers    ... done (  0.0 sec)

SHARK setup successfully completed in   0.7 seconds

Maximum memory used throughout the entire STARTUP-calculation: 21.8 MB
-------------------------------------------------------------------------------
                                 ORCA GUESS
                   Start orbitals & Density for SCF / CASSCF
-------------------------------------------------------------------------------

------------
SCF SETTINGS
------------
Hamiltonian:
 Density Functional     Method          .... DFT(GTOs)
 Exchange Functional    Exchange        .... PBE
   PBE kappa parameter   XKappa         ....  0.804000
   PBE mue parameter    XMuePBE         ....  0.219520
 Correlation Functional Correlation     .... PBE
   PBE beta parameter  CBetaPBE         ....  0.066725
 LDA part of GGA corr.  LDAOpt          .... PW91-LDA
 Gradients option       PostSCFGGA      .... off
   NL short-range parameter             ....  6.400000
 RI-approximation to the Coulomb term is turned on
   Number of AuxJ basis functions       .... 567


General Settings:
 Integral files         IntName         .... sp
 Hartree-Fock type      HFTyp           .... RHF
 Total Charge           Charge          ....    0
 Multiplicity           Mult            ....    1
 Number of Electrons    NEL             ....   72
 Basis Dimension        Dim             ....  154
 Nuclear Repulsion      ENuc            ....    508.5621185949 Eh

Convergence Acceleration:
 AO-DIIS                CNVDIIS         .... on
   Start iteration      DIISMaxIt       ....    12
   Startup error        DIISStart       ....  0.200000
   # of expansion vecs  DIISMaxEq       ....     5
   Bias factor          DIISBfac        ....   1.050
   Max. coefficient     DIISMaxC        ....  10.000
 MO-DIIS                CNVKDIIS        .... off
 Trust-Rad. Augm. Hess. CNVTRAH         .... auto
   Auto Start mean grad. ratio tolernc. ....  1.125000
   Auto Start start iteration           ....    50
   Auto Start num. interpolation iter.  ....    10
   Max. Number of Micro iterations      ....    24
   Max. Number of Macro iterations      .... Maxiter - #DIIS iter
   Number of Davidson start vectors     ....     2
   Converg. threshold    (grad. norm)   ....   1.000e-04
   Grad. Scal. Fac. for Micro threshold ....   0.100
   Minimum threshold for Micro iter.    ....   1.000e-02
   NR start threshold (gradient norm)   ....   1.000e-04
   Initial trust radius                 ....   0.400
   Minimum AH scaling param. (alpha)    ....   1.000
   Maximum AH scaling param. (alpha)    .... 1000.000
   Quad. conv. algorithm                .... NR
   White noise on init. David. guess    .... on
   Maximum white noise                  ....   0.010
   Pseudo random numbers                .... off
   Inactive MOs                         .... canonical
   Orbital update algorithm             .... Taylor
   Preconditioner                       .... Diag
   Full preconditioner red. dimension   ....   250
 SOSCF                  CNVSOSCF        .... on
   Start iteration      SOSCFMaxIt      ....   150
   Startup grad/error   SOSCFStart      ....  0.003300
   Hessian update       SOSCFHessUp     .... L-BFGS
 Level Shifting         CNVShift        .... on
   Level shift para.    LevelShift      ....    0.2500
   Turn off err/grad.   ShiftErr        ....    0.0010
 Zerner damping         CNVZerner       .... off
 Static damping         CNVDamp         .... on
   Fraction old density DampFac         ....    0.7000
   Max. Damping (<1)    DampMax         ....    0.9800
   Min. Damping (>=0)   DampMin         ....    0.0000
   Turn off err/grad.   DampErr         ....    0.1000

SCF Procedure:
 Maximum # iterations   MaxIter         ....   125
 SCF integral mode      SCFMode         .... Direct
   Integral package                     .... SHARK and LIBINT hybrid scheme
 Reset frequency        DirectResetFreq ....    20
 Integral Threshold     Thresh          ....  1.000e-09 Eh
 Primitive CutOff       TCut            ....  1.000e-10 Eh

Convergence Tolerance:
 Convergence Check Mode ConvCheckMode   .... Total+1el-Energy
 Convergence forced     ConvForced      .... 0
 Energy Change          TolE            ....  1.000e-05 Eh
 1-El. energy change                    ....  1.000e-02 Eh
 Orbital Gradient       TolG            ....  1.000e-04
 Orbital Rotation angle TolX            ....  1.000e-04
 DIIS Error             TolErr          ....  5.000e-04

------------------------------
INITIAL GUESS: MODEL POTENTIAL
------------------------------
Loading Hartree-Fock densities                     ... done
Calculating cut-offs                               ... done
Initializing the effective Hamiltonian             ... done
Setting up the integral package (SHARK)            ... done
Starting the Coulomb interaction                   ... done (   0.1 sec)
Making the grid                                    ... done (   0.2 sec)
Mapping shells                                     ... done
Starting the XC term evaluation                    ... done (   0.1 sec)
  promolecular density results
     # of electrons  =     71.996586843
     EX              =    -60.740260009
     EC              =     -2.421753768
     EX+EC           =    -63.162013777
Transforming the Hamiltonian                       ... done (   0.0 sec)
Diagonalizing the Hamiltonian                      ... done (   0.0 sec)
Back transforming the eigenvectors                 ... done (   0.0 sec)
Now organizing SCF variables                       ... done
                      ------------------
                      INITIAL GUESS DONE (   0.4 sec)
                      ------------------
             **** ENERGY FILE WAS UPDATED (sp.en.tmp) ****
Finished Guess after   0.6 sec
Maximum memory used throughout the entire GUESS-calculation: 17.2 MB

-------------------------------------------------------------------------------------------
                                      ORCA LEAN-SCF
                              memory conserving SCF solver
-------------------------------------------------------------------------------------------

----------------------------------------D-I-I-S--------------------------------------------
Iteration    Energy (Eh)           Delta-E    RMSDP     MaxDP     DIISErr   Damp  Time(sec)
-------------------------------------------------------------------------------------------
               ***  Starting incremental Fock matrix formation  ***
    1    -474.9089534825212127     0.00e+00  4.48e-03  9.65e-02  2.12e-01  0.700   0.6
    2    -475.0323351189367145    -1.23e-01  2.63e-03  4.69e-02  7.63e-02  0.700   0.5
                               ***Turning on AO-DIIS***
    3    -475.0682370288453171    -3.59e-02  1.11e-03  1.66e-02  2.57e-02  0.700   0.5
    4    -475.0931557619297223    -2.49e-02  1.87e-03  3.19e-02  1.92e-02  0.000   0.5
    5    -475.1517741489220157    -5.86e-02  5.13e-04  7.87e-03  8.11e-03  0.000   0.5
                              *** Initializing SOSCF ***
---------------------------------------S-O-S-C-F--------------------------------------
Iteration    Energy (Eh)           Delta-E    RMSDP     MaxDP     MaxGrad    Time(sec)
--------------------------------------------------------------------------------------
    6    -475.1523477848216430    -5.74e-04  1.65e-04  2.64e-03  1.60e-03     0.7
               *** Restarting incremental Fock matrix formation ***
    7    -475.1523821403362149    -3.44e-05  1.39e-04  2.58e-03  4.31e-04     0.5
    8    -475.1523571058456241     2.50e-05  8.29e-05  2.01e-03  2.18e-03     0.4
    9    -475.1523850348962128    -2.79e-05  1.00e-04  2.28e-03  6.41e-04     0.4
   10    -475.1523671377748883     1.79e-05  7.24e-05  1.74e-03  1.05e-03     0.4
   11    -475.1523881497336674    -2.10e-05  2.15e-05  4.31e-04  8.59e-05     0.4
   12    -475.1523877329589709     4.17e-07  1.33e-05  2.79e-04  2.26e-04     0.4
                 **** Energy Check signals convergence ****

               *****************************************************
               *                     SUCCESS                       *
               *           SCF CONVERGED AFTER  12 CYCLES          *
               *****************************************************

             **** ENERGY FILE WAS UPDATED (sp.en.tmp) ****

----------------
TOTAL SCF ENERGY
----------------

Total Energy       :       -475.15238773295897 Eh          -12929.55380 eV

Components:
Nuclear Repulsion  :        508.56211859493504 Eh           13838.67879 eV
Electronic Energy  :       -983.71450632789401 Eh          -26768.23259 eV
One Electron Energy:      -1653.47141538796791 Eh          -44993.24463 eV
Two Electron Energy:        669.75690906007389 Eh           18225.01204 eV

Virial components:
Potential Energy   :       -946.86260468135470 Eh          -25765.44136 eV
Kinetic Energy     :        471.71021694839567 Eh           12835.88757 eV
Virial Ratio       :          2.00729721481725

DFT components:
N(Alpha)           :       36.000190777768 electrons
N(Beta)            :       36.000190777768 electrons
N(Total)           :       72.000381555536 electrons
E(X)               :      -61.651542761001 Eh       
E(C)               :       -2.434186102288 Eh       
E(XC)              :      -64.085728863289 Eh       

---------------
SCF CONVERGENCE
---------------

  Last Energy change         ...   -4.1677e-07  Tolerance :   1.0000e-05
  Last MAX-Density change    ...    2.7910e-04  Tolerance :   1.0000e-03
  Last RMS-Density change    ...    1.3346e-05  Tolerance :   1.0000e-04
  Last DIIS Error            ...    1.6036e-03  Tolerance :   5.0000e-04
  Last Orbital Gradient      ...    2.2605e-04  Tolerance :   1.0000e-04
  Last Orbital Rotation      ...    1.9066e-04  Tolerance :   1.0000e-04


----------------
ORBITAL ENERGIES
----------------

  NO   OCC          E(Eh)            E(eV) 
   0   2.0000     -18.779245      -511.0092 
   1   2.0000     -18.778040      -510.9764 
   2   2.0000     -14.212021      -386.7287 
   3   2.0000      -9.952927      -270.8329 
   4   2.0000      -9.935426      -270.3567 
   5   2.0000      -9.918595      -269.8987 
   6   2.0000      -9.916507      -269.8419 
   7   2.0000      -9.913654      -269.7642 
   8   2.0000      -9.913061      -269.7481 
   9   2.0000      -9.892405      -269.1860 
  10   2.0000      -1.136770       -30.9331 
  11   2.0000      -0.966373       -26.2963 
  12   2.0000      -0.813693       -22.1417 
  13   2.0000      -0.735869       -20.0240 
  14   2.0000      -0.717978       -19.5372 
  15   2.0000      -0.649624       -17.6772 
  16   2.0000      -0.616671       -16.7805 
  17   2.0000      -0.562862       -15.3162 
  18   2.0000      -0.528182       -14.3726 
  19   2.0000      -0.494089       -13.4448 
  20   2.0000      -0.489343       -13.3157 
  21   2.0000      -0.456620       -12.4253 
  22   2.0000      -0.450963       -12.2713 
  23   2.0000      -0.429381       -11.6840 
  24   2.0000      -0.408102       -11.1050 
  25   2.0000      -0.394608       -10.7378 
  26   2.0000      -0.386881       -10.5276 
  27   2.0000      -0.359653        -9.7867 
  28   2.0000      -0.343103        -9.3363 
  29   2.0000      -0.335015        -9.1162 
  30   2.0000      -0.324709        -8.8358 
  31   2.0000      -0.272961        -7.4276 
  32   2.0000      -0.264751        -7.2042 
  33   2.0000      -0.254765        -6.9325 
  34   2.0000      -0.243938        -6.6379 
  35   2.0000      -0.229089        -6.2338 
  36   0.0000      -0.109999        -2.9932 
  37   0.0000      -0.058575        -1.5939 
  38   0.0000      -0.038316        -1.0426 
  39   0.0000       0.033591         0.9140 
  40   0.0000       0.054255         1.4764 
  41   0.0000       0.076115         2.0712 
  42   0.0000       0.080326         2.1858 
  43   0.0000       0.095297         2.5932 
  44   0.0000       0.122842         3.3427 
  45   0.0000       0.128012         3.4834 
  46   0.0000       0.132999         3.6191 
*Only the first 10 virtual orbitals were printed.

                    ********************************
                    * MULLIKEN POPULATION ANALYSIS *
                    ********************************

-----------------------
MULLIKEN ATOMIC CHARGES
-----------------------
   0 C :   -0.230043
   1 C :    0.003666
   2 C :   -0.147460
   3 C :   -0.008949
   4 C :   -0.054056
   5 C :   -0.096100
   6 C :    0.126804
   7 N :    0.198399
   8 O :   -0.209648
   9 O :   -0.209597
  10 H :    0.123733
  11 H :    0.135829
  12 H :    0.117115
  13 H :    0.050265
  14 H :    0.065358
  15 H :    0.066476
  16 H :    0.068207
Sum of atomic charges:   -0.0000000

--------------------------------
MULLIKEN REDUCED ORBITAL CHARGES
--------------------------------
  0 C s       :     3.018008  s :     3.018008
      pz      :     1.064199  p :     3.183793
      px      :     1.093720
      py      :     1.025874
      dz2     :     0.004620  d :     0.028242
      dxz     :     0.003228
      dyz     :     0.008532
      dx2y2   :     0.007364
      dxy     :     0.004498

  1 C s       :     3.044192  s :     3.044192
      pz      :     0.952509  p :     2.910195
      px      :     0.942131
      py      :     1.015555
      dz2     :     0.003259  d :     0.041948
      dxz     :     0.006560
      dyz     :     0.007208
      dx2y2   :     0.012432
      dxy     :     0.012488

  2 C s       :     3.292652  s :     3.292652
      pz      :     0.991312  p :     2.820658
      px      :     0.977624
      py      :     0.851723
      dz2     :     0.003141  d :     0.034149
      dxz     :     0.005244
      dyz     :     0.003453
      dx2y2   :     0.010145
      dxy     :     0.012167

  3 C s       :     3.177603  s :     3.177603
      pz      :     0.963450  p :     2.795951
      px      :     0.843606
      py      :     0.988895
      dz2     :     0.003719  d :     0.035395
      dxz     :     0.002410
      dyz     :     0.006462
      dx2y2   :     0.013930
      dxy     :     0.008873

  4 C s       :     3.195993  s :     3.195993
      pz      :     0.985664  p :     2.823150
      px      :     0.949420
      py      :     0.888067
      dz2     :     0.003080  d :     0.034913
      dxz     :     0.005524
      dyz     :     0.003570
      dx2y2   :     0.010225
      dxy     :     0.012513

  5 C s       :     3.303387  s :     3.303387
      pz      :     0.954158  p :     2.758429
      px      :     0.892596
      py      :     0.911675
      dz2     :     0.003265  d :     0.034283
      dxz     :     0.006374
      dyz     :     0.003648
      dx2y2   :     0.008176
      dxy     :     0.012819

  6 C s       :     3.003764  s :     3.003764
      pz      :     1.034368  p :     2.822612
      px      :     0.838606
      py      :     0.949638
      dz2     :     0.004826  d :     0.046820
      dxz     :     0.005206
      dyz     :     0.007000
      dx2y2   :     0.018723
      dxy     :     0.011065

  7 N s       :     3.297242  s :     3.297242
      pz      :     1.103751  p :     3.385362
      px      :     1.142311
      py      :     1.139299
      dz2     :     0.029703  d :     0.118997
      dxz     :     0.023268
      dyz     :     0.019685
      dx2y2   :     0.026868
      dxy     :     0.019473

  8 O s       :     3.861493  s :     3.861493
      pz      :     1.327088  p :     4.325968
      px      :     1.626103
      py      :     1.372776
      dz2     :     0.004878  d :     0.022187
      dxz     :     0.005164
      dyz     :     0.004815
      dx2y2   :     0.003118
      dxy     :     0.004212

  9 O s       :     3.863189  s :     3.863189
      pz      :     1.322592  p :     4.324069
      px      :     1.704826
      py      :     1.296651
      dz2     :     0.004946  d :     0.022339
      dxz     :     0.003962
      dyz     :     0.006128
      dx2y2   :     0.003587
      dxy     :     0.003716

 10 H s       :     0.876267  s :     0.876267

 11 H s       :     0.864171  s :     0.864171

 12 H s       :     0.882885  s :     0.882885

 13 H s       :     0.949735  s :     0.949735

 14 H s       :     0.934642  s :     0.934642

 15 H s       :     0.933524  s :     0.933524

 16 H s       :     0.931793  s :     0.931793


------------------------
MULLIKEN OVERLAP CHARGES
------------------------
B(  0-C ,  1-C ) :   0.8868 B(  0-C ,  2-C ) :  -0.2125 B(  0-C ,  6-C ) :  -0.1849 
B(  0-C , 10-H ) :   0.7096 B(  0-C , 11-H ) :   0.6909 B(  0-C , 12-H ) :   0.7046 
B(  1-C ,  2-C ) :   0.3679 B(  1-C ,  3-C ) :   0.3713 B(  1-C ,  4-C ) :  -0.4407 
B(  1-C ,  5-C ) :   0.2166 B(  1-C ,  6-C ) :   0.1926 B(  1-C ,  7-N ) :  -0.1100 
B(  1-C , 13-H ) :  -0.1777 B(  2-C ,  3-C ) :   0.3057 B(  2-C ,  4-C ) :   0.3860 
B(  2-C ,  5-C ) :  -0.3725 B(  2-C ,  6-C ) :   0.3256 B(  2-C , 13-H ) :   0.8828 
B(  2-C , 14-H ) :  -0.1737 B(  3-C ,  4-C ) :   0.1750 B(  3-C ,  5-C ) :   0.3653 
B(  3-C ,  6-C ) :  -0.4375 B(  3-C , 13-H ) :  -0.1756 B(  3-C , 14-H ) :   0.8891 
B(  3-C , 15-H ) :  -0.1773 B(  4-C ,  5-C ) :   0.1851 B(  4-C ,  6-C ) :   0.3770 
B(  4-C , 14-H ) :  -0.1790 B(  4-C , 15-H ) :   0.8902 B(  4-C , 16-H ) :  -0.1680 
B(  5-C ,  6-C ) :   0.3011 B(  5-C ,  7-N ) :  -0.1159 B(  5-C , 15-H ) :  -0.1694 
B(  5-C , 16-H ) :   0.8711 B(  6-C ,  7-N ) :   0.5087 B(  6-C ,  8-O ) :  -0.1515 
B(  6-C ,  9-O ) :  -0.2143 B(  6-C , 16-H ) :  -0.1632 B(  7-N ,  8-O ) :   0.5683 
B(  7-N ,  9-O ) :   0.6237 B(  8-O ,  9-O ) :  -0.2142 B(  8-O , 11-H ) :   0.0740 



                     *******************************
                     * LOEWDIN POPULATION ANALYSIS *
                     *******************************

----------------------
LOEWDIN ATOMIC CHARGES
----------------------
   0 C :   -0.336567
   1 C :   -0.025056
   2 C :   -0.112979
   3 C :   -0.102066
   4 C :   -0.121244
   5 C :   -0.102721
   6 C :   -0.038337
   7 N :    0.250739
   8 O :   -0.177241
   9 O :   -0.177875
  10 H :    0.138952
  11 H :    0.135814
  12 H :    0.138032
  13 H :    0.128769
  14 H :    0.130112
  15 H :    0.131375
  16 H :    0.140295

-------------------------------
LOEWDIN REDUCED ORBITAL CHARGES
-------------------------------
  0 C s       :     2.935032  s :     2.935032
      pz      :     1.122544  p :     3.331653
      px      :     1.142572
      py      :     1.066537
      dz2     :     0.011918  d :     0.069882
      dxz     :     0.007073
      dyz     :     0.020662
      dx2y2   :     0.018412
      dxy     :     0.011817

  1 C s       :     2.853862  s :     2.853862
      pz      :     0.934792  p :     3.061959
      px      :     1.075994
      py      :     1.051173
      dz2     :     0.007911  d :     0.109235
      dxz     :     0.014093
      dyz     :     0.014248
      dx2y2   :     0.036730
      dxy     :     0.036254

  2 C s       :     2.891369  s :     2.891369
      pz      :     0.997662  p :     3.130959
      px      :     1.065946
      py      :     1.067351
      dz2     :     0.007061  d :     0.090651
      dxz     :     0.011638
      dyz     :     0.007017
      dx2y2   :     0.030456
      dxy     :     0.034478

  3 C s       :     2.893068  s :     2.893068
      pz      :     0.961999  p :     3.116206
      px      :     1.068925
      py      :     1.085283
      dz2     :     0.008211  d :     0.092792
      dxz     :     0.004618
      dyz     :     0.015184
      dx2y2   :     0.037416
      dxy     :     0.027363

  4 C s       :     2.889248  s :     2.889248
      pz      :     0.989825  p :     3.139838
      px      :     1.082720
      py      :     1.067294
      dz2     :     0.007058  d :     0.092158
      dxz     :     0.012209
      dyz     :     0.007239
      dx2y2   :     0.030502
      dxy     :     0.035150

  5 C s       :     2.896727  s :     2.896727
      pz      :     0.962445  p :     3.115159
      px      :     1.088874
      py      :     1.063840
      dz2     :     0.007290  d :     0.090834
      dxz     :     0.014076
      dyz     :     0.007581
      dx2y2   :     0.026012
      dxy     :     0.035875

  6 C s       :     2.858312  s :     2.858312
      pz      :     1.045700  p :     3.054561
      px      :     0.915212
      py      :     1.093650
      dz2     :     0.011656  d :     0.125463
      dxz     :     0.011679
      dyz     :     0.015590
      dx2y2   :     0.052165
      dxy     :     0.034374

  7 N s       :     3.038092  s :     3.038092
      pz      :     1.140059  p :     3.455416
      px      :     1.177340
      py      :     1.138018
      dz2     :     0.056436  d :     0.255753
      dxz     :     0.050954
      dyz     :     0.049728
      dx2y2   :     0.056427
      dxy     :     0.042209

  8 O s       :     3.612731  s :     3.612731
      pz      :     1.412665  p :     4.521033
      px      :     1.673537
      py      :     1.434831
      dz2     :     0.007336  d :     0.043477
      dxz     :     0.011513
      dyz     :     0.011149
      dx2y2   :     0.004707
      dxy     :     0.008772

  9 O s       :     3.615915  s :     3.615915
      pz      :     1.406582  p :     4.518276
      px      :     1.732443
      py      :     1.379251
      dz2     :     0.007424  d :     0.043684
      dxz     :     0.008165
      dyz     :     0.014666
      dx2y2   :     0.005614
      dxy     :     0.007816

 10 H s       :     0.861048  s :     0.861048

 11 H s       :     0.864186  s :     0.864186

 12 H s       :     0.861968  s :     0.861968

 13 H s       :     0.871231  s :     0.871231

 14 H s       :     0.869888  s :     0.869888

 15 H s       :     0.868625  s :     0.868625

 16 H s       :     0.859705  s :     0.859705


---------------------------------
LOEWDIN BOND ORDERS (THRESH 0.050000)
---------------------------------
B(  0-C ,  1-C ) :   1.0999 B(  0-C ,  2-C ) :   0.0752 B(  0-C ,  6-C ) :   0.0704 
B(  0-C , 10-H ) :   0.9162 B(  0-C , 11-H ) :   0.9148 B(  0-C , 12-H ) :   0.9192 
B(  1-C ,  2-C ) :   1.4271 B(  1-C ,  3-C ) :   0.0862 B(  1-C ,  4-C ) :   0.1074 
B(  1-C ,  5-C ) :   0.0839 B(  1-C ,  6-C ) :   1.3776 B(  1-C ,  7-N ) :   0.0552 
B(  2-C ,  3-C ) :   1.5213 B(  2-C ,  4-C ) :   0.0871 B(  2-C ,  5-C ) :   0.1171 
B(  2-C ,  6-C ) :   0.0903 B(  2-C , 13-H ) :   0.8810 B(  3-C ,  4-C ) :   1.4718 
B(  3-C ,  5-C ) :   0.0898 B(  3-C ,  6-C ) :   0.1030 B(  3-C , 14-H ) :   0.8864 
B(  4-C ,  5-C ) :   1.5265 B(  4-C ,  6-C ) :   0.0897 B(  4-C , 15-H ) :   0.8858 
B(  5-C ,  6-C ) :   1.4078 B(  5-C ,  7-N ) :   0.0653 B(  5-C , 16-H ) :   0.8742 
B(  6-C ,  7-N ) :   1.0042 B(  6-C ,  8-O ) :   0.1210 B(  6-C ,  9-O ) :   0.1264 
B(  7-N ,  8-O ) :   1.8806 B(  7-N ,  9-O ) :   1.8857 B(  8-O ,  9-O ) :   0.4093 


------------------------------------------
LOEWDIN REDUCED ORBITAL POPULATIONS PER MO
-------------------------------------------
THRESHOLD FOR PRINTING IS 0.1%%
                      0         1         2         3         4         5   
                 -18.77924 -18.77804 -14.21202  -9.95293  -9.93543  -9.91859
                   2.00000   2.00000   2.00000   2.00000   2.00000   2.00000
                  --------  --------  --------  --------  --------  --------
 1 C  s               0.0       0.0       0.0       0.0      99.5       0.0
 1 C  py              0.0       0.0       0.0       0.1       0.0       0.0
 2 C  px              0.0       0.0       0.0       0.0       0.1       0.0
 4 C  s               0.0       0.0       0.0       0.0       0.0       0.1
 4 C  px              0.0       0.0       0.0       0.0       0.0       0.2
 5 C  s               0.0       0.0       0.0       0.0       0.0      99.5
 5 C  py              0.0       0.0       0.0       0.1       0.0       0.0
 6 C  s               0.0       0.0       0.0      99.5       0.0       0.0
 6 C  py              0.0       0.0       0.0       0.0       0.1       0.1
 7 N  s               0.0       0.0      99.6       0.0       0.0       0.0
 7 N  px              0.0       0.0       0.0       0.1       0.0       0.0
 8 O  s              99.9       0.0       0.0       0.0       0.0       0.0
 9 O  s               0.0      99.9       0.0       0.0       0.0       0.0

                      6         7         8         9        10        11   
                  -9.91651  -9.91365  -9.91306  -9.89240  -1.13677  -0.96637
                   2.00000   2.00000   2.00000   2.00000   2.00000   2.00000
                  --------  --------  --------  --------  --------  --------
 0 C  s               0.0       0.0       0.0      99.7       0.0       0.0
 1 C  s               0.0       0.0       0.0       0.0       0.1       0.0
 1 C  px              0.0       0.0       0.1       0.0       0.1       0.0
 1 C  py              0.0       0.0       0.0       0.1       0.1       0.0
 2 C  s               0.2       0.0      99.4       0.0       0.0       0.0
 2 C  py              0.1       0.0       0.0       0.0       0.0       0.0
 3 C  s              99.2       0.2       0.2       0.0       0.0       0.0
 3 C  py              0.0       0.1       0.1       0.0       0.0       0.0
 4 C  s               0.2      99.3       0.0       0.0       0.0       0.0
 4 C  py              0.1       0.0       0.0       0.0       0.0       0.0
 5 C  s               0.0       0.1       0.0       0.0       0.1       0.0
 5 C  px              0.0       0.1       0.0       0.0       0.2       0.1
 5 C  py              0.0       0.0       0.0       0.0       0.1       0.0
 6 C  s               0.0       0.0       0.0       0.0       2.2       0.0
 6 C  pz              0.0       0.0       0.0       0.0       0.0       0.3
 6 C  px              0.0       0.0       0.0       0.0       4.1       0.0
 6 C  py              0.0       0.0       0.0       0.0       0.0       0.4
 6 C  dx2y2           0.0       0.0       0.0       0.0       0.1       0.0
 7 N  s               0.0       0.0       0.0       0.0      37.5       0.0
 7 N  pz              0.0       0.0       0.0       0.0       0.0      21.1
 7 N  px              0.0       0.0       0.0       0.0       2.8       0.3
 7 N  py              0.0       0.0       0.0       0.0       0.0      17.5
 7 N  dxz             0.0       0.0       0.0       0.0       0.0       0.8
 7 N  dyz             0.0       0.0       0.0       0.0       0.7       0.0
 7 N  dxy             0.0       0.0       0.0       0.0       0.0       0.6
 8 O  s               0.0       0.0       0.0       0.0      18.3      26.0
 8 O  pz              0.0       0.0       0.0       0.0       3.1       1.1
 8 O  px              0.0       0.0       0.0       0.0       1.6       1.5
 8 O  py              0.0       0.0       0.0       0.0       2.2       0.7
 8 O  dxz             0.0       0.0       0.0       0.0       0.1       0.1
 8 O  dyz             0.0       0.0       0.0       0.0       0.2       0.0
 9 O  s               0.0       0.0       0.0       0.0      18.2      25.6
 9 O  pz              0.0       0.0       0.0       0.0       3.2       1.1
 9 O  px              0.0       0.0       0.0       0.0       0.9       1.1
 9 O  py              0.0       0.0       0.0       0.0       2.9       1.1
 9 O  dyz             0.0       0.0       0.0       0.0       0.2       0.1
11 H  s               0.0       0.0       0.0       0.1       0.1       0.1

                     12        13        14        15        16        17   
                  -0.81369  -0.73587  -0.71798  -0.64962  -0.61667  -0.56286
                   2.00000   2.00000   2.00000   2.00000   2.00000   2.00000
                  --------  --------  --------  --------  --------  --------
 0 C  s               2.2       0.2      13.5      13.0      11.7       2.0
 0 C  pz              0.1       0.0       0.1       0.0       0.0       0.1
 0 C  px              0.3       0.0       0.7       0.0       0.3       0.2
 0 C  py              1.1       0.1       1.1       0.0       0.6       2.2
 1 C  s              14.1       0.2      15.0       0.8       2.1       3.7
 1 C  pz              0.1       0.0       0.1       0.1       0.3       0.4
 1 C  px              0.1       5.6       0.3       2.9       3.8       5.0
 1 C  py              1.7       0.4       3.8       2.6       6.7       6.4
 1 C  dz2             0.1       0.0       0.1       0.0       0.0       0.0
 1 C  dx2y2           0.0       0.1       0.0       0.2       0.0       0.1
 2 C  s               9.1       7.2       7.0       7.4       1.6       6.5
 2 C  pz              0.1       0.1       0.1       0.1       0.0       0.1
 2 C  px              1.2       1.1       2.8       2.8       3.5       3.3
 2 C  py              1.1       1.8       1.0       1.0       0.3       2.3
 2 C  dz2             0.1       0.1       0.1       0.0       0.0       0.0
 2 C  dx2y2           0.0       0.0       0.1       0.0       0.1       0.0
 3 C  s               7.2      15.3       0.3       6.7       7.0       0.1
 3 C  pz              0.0       0.0       0.3       0.3       0.2       0.4
 3 C  px              2.0       0.9       0.0       0.2       1.1       0.1
 3 C  py              0.0       0.0       4.4       4.5       3.3       7.7
 3 C  dz2             0.1       0.1       0.0       0.0       0.0       0.0
 3 C  dxy             0.0       0.0       0.1       0.1       0.1       0.1
 4 C  s               7.6       8.5       9.2       3.8       5.1       2.0
 4 C  pz              0.1       0.1       0.0       0.1       0.0       0.0
 4 C  px              0.8       0.8       1.3       4.6       5.6       3.6
 4 C  py              1.3       1.8       0.0       2.1       0.1       0.4
 4 C  dx2y2           0.0       0.0       0.1       0.2       0.1       0.1
 5 C  s              11.2       0.0      11.3       9.0       2.3       6.5
 5 C  pz              0.2       0.1       0.0       0.0       0.1       0.0
 5 C  px              0.1       6.1       0.6       1.5       1.2       3.6
 5 C  py              2.5       0.6       0.1       0.4       1.1       1.9
 5 C  dz2             0.1       0.0       0.1       0.0       0.0       0.0
 5 C  dx2y2           0.0       0.1       0.1       0.0       0.1       0.0
 6 C  s              18.1      10.6       0.6       0.2       1.3       1.0
 6 C  pz              0.0       0.0       0.4       0.0       0.0       0.4
 6 C  px              1.4       4.2       0.1       4.8      11.0       1.2
 6 C  py              0.0       0.0       9.1       0.4       0.1      16.7
 6 C  dz2             0.2       0.1       0.0       0.0       0.0       0.0
 6 C  dx2y2           0.0       0.1       0.0       0.3       0.2       0.0
 6 C  dxy             0.0       0.0       0.2       0.1       0.0       0.1
 7 N  s               0.5       2.3       0.2       2.2       2.1       0.1
 7 N  pz              0.0       0.0       0.1       0.0       0.1       1.0
 7 N  px              7.4      18.1       1.2       6.0       5.5       0.5
 7 N  py              0.1       0.2       0.0       0.1       0.2       1.8
 8 O  s               0.8       2.4       0.0       1.5       1.7       0.1
 8 O  pz              0.0       0.1       0.0       0.1       0.1       0.3
 8 O  px              0.2       0.8       0.0       0.7       1.0       0.0
 8 O  py              0.1       0.1       0.0       0.1       0.0       0.2
 9 O  s               0.9       2.6       0.6       1.4       1.2       0.8
 9 O  pz              0.0       0.1       0.0       0.1       0.0       0.4
 9 O  px              0.2       0.8       0.1       0.5       0.7       0.6
 9 O  py              0.0       0.1       0.0       0.1       0.1       0.2
10 H  s               0.3       0.0       2.7       3.2       3.3       1.2
11 H  s               0.3       0.1       2.3       3.3       3.4       0.3
12 H  s               0.3       0.0       2.8       3.1       3.3       1.6
13 H  s               1.1       1.2       1.7       1.7       0.2       5.8
14 H  s               0.9       2.6       0.1       1.9       3.0       0.0
15 H  s               0.9       1.4       1.7       1.1       2.2       0.9
16 H  s               1.4       0.0       2.1       2.2       0.4       5.2

                     18        19        20        21        22        23   
                  -0.52818  -0.49409  -0.48934  -0.45662  -0.45096  -0.42938
                   2.00000   2.00000   2.00000   2.00000   2.00000   2.00000
                  --------  --------  --------  --------  --------  --------
 0 C  s               1.9       0.2       1.1       0.0       0.3       0.0
 0 C  pz              0.1       0.1       0.0       0.2       0.2       0.0
 0 C  px              2.5       0.6       0.3       0.0       1.4       6.0
 0 C  py              0.8       0.2       2.2       1.9       1.2       1.1
 1 C  s               1.3       0.3       1.0       0.9       1.3       0.0
 1 C  pz              0.1       0.3       0.3       0.0       0.1       0.0
 1 C  px              4.8       0.2       0.0       6.3       0.0       6.2
 1 C  py              1.8       0.0       0.3       0.2       0.6       2.3
 1 C  dx2y2           0.3       0.0       0.1       0.1       0.0       0.0
 2 C  s               2.0       0.8       0.2       0.2       0.4       0.2
 2 C  pz              0.3       0.0       0.2       0.0       0.1       0.1
 2 C  px              4.1       2.0       0.3       3.9       0.8       5.8
 2 C  py              5.7       0.4       2.3       0.2       2.8       2.5
 2 C  dx2y2           0.0       0.0       0.0       0.0       0.1       0.0
 3 C  s               4.8       0.0       0.1       0.8       0.4       0.1
 3 C  pz              0.0       0.1       0.0       0.1       0.2       0.6
 3 C  px              1.6       0.1       1.3      14.0      10.7       0.4
 3 C  py              0.7       2.0       0.8       1.9       2.5       9.1
 4 C  s               5.2       0.0       1.0       0.7       0.1       0.0
 4 C  pz              0.4       0.2       0.1       0.2       0.1       0.1
 4 C  px              0.3       1.1       2.8       0.0       6.5       5.6
 4 C  py              6.7       1.3       3.6       3.9       0.8       3.3
 5 C  s               0.1       0.7       0.4       1.7       0.1       0.0
 5 C  pz              0.3       1.0       0.1       0.1       0.1       0.1
 5 C  px              6.7       0.1       0.3       1.1       6.2       6.0
 5 C  py              4.9       1.6       2.6       4.8       0.0       3.5
 5 C  dx2y2           0.2       0.0       0.0       0.1       0.1       0.0
 6 C  s               2.6       0.0       0.0       0.3       0.4       0.1
 6 C  pz              0.0       2.8       1.1       0.7       1.4       1.1
 6 C  px              2.6       0.9       2.6       0.9       0.9       0.1
 6 C  py              1.3       1.1       0.2       2.2       0.8       6.8
 6 C  dx2y2           0.3       0.0       0.0       0.4       0.3       0.0
 6 C  dxy             0.0       0.1       0.1       0.0       0.0       0.2
 7 N  s               3.4       0.5       2.3       0.1       0.1       0.0
 7 N  pz              0.1      19.0       4.4       2.6       5.4       1.4
 7 N  px              0.1       0.8       6.7       4.1       1.4       0.0
 7 N  py              0.4      22.3       3.1       1.1       2.0       7.0
 7 N  dxy             0.0       0.0       0.0       0.0       0.0       0.1
 8 O  s               5.3       2.3       7.2       8.6       3.7       1.6
 8 O  pz              2.5       1.0      13.2       6.5       0.5       5.9
 8 O  px              1.5       0.3       0.0       2.7       8.9       1.9
 8 O  py              1.4      15.4       1.2       5.7       1.0       0.3
 8 O  dz2             0.0       0.1       0.1       0.0       0.0       0.0
 8 O  dyz             0.0       0.1       0.1       0.1       0.0       0.0
 8 O  dxy             0.0       0.1       0.0       0.0       0.1       0.0
 9 O  s               3.2       1.6      10.3       0.7       9.8       3.5
 9 O  pz              1.0      12.6       2.9       0.0       5.3       9.0
 9 O  px              0.3       0.0       0.0       4.2       3.1       2.2
 9 O  py              1.9       2.0      14.8       0.5       8.4       1.0
 9 O  dz2             0.0       0.3       0.0       0.0       0.0       0.0
 9 O  dyz             0.0       0.0       0.2       0.0       0.1       0.0
 9 O  dx2y2           0.0       0.0       0.1       0.0       0.0       0.0
10 H  s               0.7       0.1       1.0       0.2       0.2       0.3
11 H  s               2.7       0.4       0.3       0.3       0.6       2.7
12 H  s               0.5       0.3       0.6       0.4       0.3       0.6
13 H  s               1.7       1.4       0.7       0.3       0.1       0.0
14 H  s               3.4       0.0       0.3       8.1       5.6       0.3
15 H  s               5.0       0.1       3.8       0.3       1.4       0.2
16 H  s               0.0       1.0       0.8       5.0       0.6       0.0

                     24        25        26        27        28        29   
                  -0.40810  -0.39461  -0.38688  -0.35965  -0.34310  -0.33502
                   2.00000   2.00000   2.00000   2.00000   2.00000   2.00000
                  --------  --------  --------  --------  --------  --------
 0 C  s               0.0       0.0       0.2       0.0       0.0       0.1
 0 C  pz              0.7      36.9       1.1       0.9      12.2       0.3
 0 C  px              0.4       0.0       3.5      20.9       0.2      15.6
 0 C  py              3.8       2.3      13.2       9.8       0.8       0.3
 0 C  dz2             0.0       0.0       0.1       0.3       0.0       0.0
 0 C  dxz             0.0       0.2       0.0       0.1       0.0       0.0
 0 C  dyz             0.0       0.2       0.0       0.0       0.3       0.0
 0 C  dx2y2           0.0       0.0       0.1       0.1       0.0       0.4
 0 C  dxy             0.1       0.0       0.1       0.0       0.0       0.0
 1 C  s               1.8       0.0       0.2       0.0       0.0       0.0
 1 C  pz              0.0      16.9       0.2       0.1       2.3       0.3
 1 C  px              0.6       0.0       5.2       0.6       0.8      10.1
 1 C  py              2.6       0.3      10.5       0.8       0.2       0.6
 1 C  dyz             0.0       0.1       0.0       0.0       0.3       0.0
 1 C  dx2y2           0.1       0.0       0.1       0.1       0.0       0.4
 1 C  dxy             0.4       0.0       0.0       0.1       0.0       0.0
 2 C  s               0.5       0.0       0.8       0.8       0.0       0.0
 2 C  pz              1.0       5.4       0.1       0.1       7.8       0.3
 2 C  px              7.0       0.1       2.3       0.4       0.6      10.0
 2 C  py             12.1       0.2       6.0       1.7       0.3       1.8
 2 C  dyz             0.0       0.0       0.0       0.0       0.1       0.0
 2 C  dx2y2           0.0       0.0       0.1       0.2       0.0       0.5
 2 C  dxy             0.5       0.0       0.0       0.1       0.0       0.0
 3 C  s               1.8       0.0       0.1       0.1       0.0       0.2
 3 C  pz              0.0       1.7       0.2       0.1      13.2       1.4
 3 C  px              1.5       0.0       0.5       5.8       0.9      12.0
 3 C  py              0.0       0.4       1.1       2.7       0.9       0.4
 3 C  dx2y2           0.1       0.0       0.1       0.4       0.1       0.9
 3 C  dxy             0.0       0.0       0.5       0.0       0.0       0.0
 4 C  s               1.1       0.0       0.1       0.1       0.0       0.1
 4 C  pz              0.1       1.6       0.5       0.3      15.6       1.1
 4 C  px              0.4       0.0       8.7       6.4       0.4       4.1
 4 C  py              3.5       0.1      10.9       1.3       1.0       0.2
 4 C  dx2y2           0.0       0.0       0.3       0.2       0.1       0.4
 4 C  dxy             0.5       0.0       0.1       0.0       0.0       0.0
 5 C  s               0.6       0.1       0.6       0.0       0.0       0.2
 5 C  pz              1.3       1.6       0.1       0.2      15.2       0.7
 5 C  px              2.0       0.0       6.5       6.5       0.3       4.1
 5 C  py             14.5       0.2       2.1       0.1       0.8       0.3
 5 C  dx2y2           0.0       0.0       0.2       0.0       0.0       0.0
 5 C  dxy             0.6       0.0       0.0       0.0       0.0       0.0
 6 C  s               3.7       0.0       0.2       0.1       0.0       0.8
 6 C  pz              0.1       3.9       0.0       0.0       9.6       0.3
 6 C  px              2.1       0.0       0.3       0.1       0.0       0.2
 6 C  py              0.2       0.4       0.1       1.8       0.8       0.0
 6 C  dx2y2           0.0       0.0       0.0       0.2       0.0       0.4
 6 C  dxy             0.1       0.0       0.3       0.0       0.0       0.0
 7 N  s               0.1       0.0       0.0       0.1       0.0       0.2
 7 N  pz              0.0       0.4       0.0       0.1       0.2       0.2
 7 N  px              0.2       0.0       0.1       0.9       0.1       0.3
 7 N  py              0.0       0.3       0.1       0.0       0.1       0.0
 7 N  dxz             0.0       0.1       0.0       0.0       0.1       0.0
 7 N  dx2y2           0.0       0.0       0.0       0.0       0.0       0.2
 8 O  s               0.0       0.0       0.1       0.7       0.0       0.2
 8 O  pz              0.0       0.1       0.5       1.7       0.0       0.0
 8 O  px              0.1       0.0       0.0       0.4       0.0       3.8
 8 O  py              0.1       0.7       0.0       0.2       1.3       0.7
 9 O  s               0.1       0.0       0.0       0.0       0.0       0.0
 9 O  pz              0.0       0.0       0.0       0.6       0.1       0.1
 9 O  px              1.1       0.0       0.0       0.2       0.0       0.7
 9 O  py              0.0       0.7       0.0       0.1       0.7       0.3
10 H  s               0.2      15.1       1.1       1.9       6.1       0.5
11 H  s               0.2       0.4       1.8      11.8       0.0      10.2
12 H  s               1.1       8.6       2.0       8.2       4.6       0.8
13 H  s              14.1       0.0       2.6       2.9       0.1       0.3
14 H  s               0.0       0.1       0.7       5.3       0.8      10.2
15 H  s               4.3       0.2      11.4       0.2       0.1       1.5
16 H  s              12.2       0.1       2.2       0.8       0.1       0.8

                     30        31        32        33        34        35   
                  -0.32471  -0.27296  -0.26475  -0.25476  -0.24394  -0.22909
                   2.00000   2.00000   2.00000   2.00000   2.00000   2.00000
                  --------  --------  --------  --------  --------  --------
 0 C  s               0.3       0.1       0.0       0.0       0.0       0.1
 0 C  pz              0.2       0.0       0.0       0.5       2.6       0.1
 0 C  px              0.1       1.3       0.2       1.7       0.0       0.7
 0 C  py             10.2       0.1       0.0       0.0       0.1       0.0
 0 C  dyz             0.0       0.0       0.0       0.1       0.4       0.0
 0 C  dxy             0.1       0.0       0.0       0.0       0.0       0.0
 1 C  s               0.1       0.0       0.0       0.0       0.0       0.1
 1 C  pz              0.4       0.1       0.4       1.9      19.9       2.2
 1 C  px              0.2       0.0       0.1       0.7       0.0       0.1
 1 C  py              9.0       0.0       0.0       0.3       0.7       0.3
 1 C  dxz             0.0       0.0       0.3       0.0       0.2       0.0
 1 C  dyz             0.0       0.0       0.1       0.0       0.1       0.1
 1 C  dx2y2           0.0       0.0       0.0       0.2       0.0       0.0
 1 C  dxy             0.8       0.0       0.0       0.0       0.0       0.0
 2 C  s               0.1       0.0       0.0       0.1       0.0       0.0
 2 C  pz              0.5       0.1      12.8       0.1      19.6       0.9
 2 C  px              0.1       0.0       0.1       0.9       0.0       0.0
 2 C  py              7.8       0.0       0.5       0.0       1.1       0.1
 2 C  dxz             0.0       0.0       0.1       0.0       0.2       0.1
 2 C  dx2y2           0.1       0.0       0.0       0.0       0.0       0.0
 2 C  dxy             0.8       0.0       0.0       0.0       0.0       0.0
 3 C  pz              0.5       0.0      20.9       2.1       0.1       5.7
 3 C  px              0.2       0.0       0.0       0.1       0.0       0.0
 3 C  py             10.1       0.1       1.1       0.3       0.0       0.3
 3 C  dz2             0.0       0.0       0.0       0.0       0.1       0.0
 3 C  dyz             0.0       0.0       0.0       0.0       0.5       0.0
 3 C  dxy             0.2       0.0       0.0       0.0       0.0       0.0
 4 C  pz              0.6       0.1       2.5       1.8      23.1       0.7
 4 C  px              0.2       0.1       0.0       0.4       0.0       0.2
 4 C  py              9.2       0.0       0.2       0.1       1.4       0.1
 4 C  dxz             0.0       0.0       0.2       0.0       0.1       0.1
 4 C  dyz             0.0       0.0       0.1       0.0       0.0       0.0
 4 C  dxy             0.8       0.0       0.0       0.0       0.0       0.0
 5 C  s               0.1       0.0       0.0       0.0       0.0       0.2
 5 C  pz              0.5       0.2       7.7       0.0      16.2       2.4
 5 C  px              0.1       0.1       0.1       0.3       0.0       0.4
 5 C  py              8.6       0.1       1.0       0.4       0.8       0.2
 5 C  dxz             0.1       0.0       0.2       0.0       0.3       0.0
 5 C  dxy             0.8       0.0       0.0       0.0       0.0       0.0
 6 C  s               0.0       0.1       0.2       0.9       0.1       0.0
 6 C  pz              0.7       0.0      19.0       3.5       1.1       5.8
 6 C  px              0.0       0.0       0.7       7.0       0.4       0.0
 6 C  py             10.1       0.0       1.5       0.1       0.1       0.3
 6 C  dyz             0.0       0.0       0.1       0.1       0.4       0.0
 6 C  dxy             0.2       0.0       0.0       0.0       0.0       0.1
 7 N  s               0.0       0.0       0.1       0.6       0.0       0.0
 7 N  pz              0.1       0.0       0.4       0.1       0.0       0.2
 7 N  px              0.0       0.0       0.2       1.9       0.1       0.0
 7 N  py              0.1       0.0       0.1       0.0       0.0       0.3
 7 N  dz2             0.0       1.9       0.1       0.6       0.1       0.0
 7 N  dxz             0.0       0.0       0.9       0.0       0.0       0.4
 7 N  dyz             0.0       0.0       0.1       1.2       0.0       0.0
 7 N  dx2y2           0.0       0.5       0.1       1.6       0.1       0.0
 7 N  dxy             0.1       0.0       0.1       0.0       0.0       0.8
 8 O  s               0.0       0.0       0.1       0.1       0.0       0.0
 8 O  pz              0.3      22.1       0.2       0.8       0.2      10.3
 8 O  px              0.1       0.8       0.1      34.4       1.3      21.4
 8 O  py              0.0      23.8       4.3       5.6       0.2       6.6
 9 O  s               0.1       0.0       0.0       0.2       0.0       0.0
 9 O  pz              0.7      20.9       0.6       0.4       0.4      10.9
 9 O  px              0.1       0.2      16.6      25.6       2.9      24.5
 9 O  py              0.0      26.3       5.0       0.3       0.0       2.1
10 H  s               1.2       0.0       0.1       0.8       2.6       0.0
11 H  s               0.0       0.4       0.1       0.9       0.1       0.2
12 H  s               1.5       0.3       0.0       0.0       1.8       0.3
13 H  s               7.4       0.0       0.1       0.1       0.0       0.0
14 H  s               0.1       0.0       0.0       0.1       0.0       0.0
15 H  s               6.4       0.0       0.0       0.3       0.0       0.0
16 H  s               7.5       0.1       0.1       0.1       0.0       0.1

                     36        37        38        39        40        41   
                  -0.11000  -0.05857  -0.03832   0.03359   0.05425   0.07611
                   0.00000   0.00000   0.00000   0.00000   0.00000   0.00000
                  --------  --------  --------  --------  --------  --------
 0 C  s               0.0       0.0       0.1       0.1      16.7       0.3
 0 C  pz              0.0       0.2       0.1       0.2       0.0       7.7
 0 C  px              0.2       0.0       0.0       0.1       0.6       0.2
 0 C  py              0.0       0.0       0.0       1.9       3.9       0.1
 0 C  dyz             0.1       0.6       0.1       0.0       0.0       1.0
 1 C  s               0.1       0.0       0.1       0.6       0.2       0.1
 1 C  pz              6.4      18.9       4.8       0.0       0.0       5.5
 1 C  px              0.1       0.0       0.0       0.0       0.2       0.1
 1 C  py              0.1       0.8       0.5       0.4       0.3       0.1
 1 C  dz2             0.0       0.0       0.1       0.0       0.3       0.2
 1 C  dxz             0.1       0.7       0.5       0.0       0.0       0.1
 1 C  dyz             0.0       0.0       0.3       0.0       0.1       0.5
 1 C  dx2y2           0.0       0.0       0.0       0.1       0.5       0.0
 1 C  dxy             0.0       0.1       0.0       0.6       0.0       0.1
 2 C  s               0.0       0.0       0.0       3.0       0.8       0.1
 2 C  pz              0.6      23.9       5.5       0.1       0.4       5.2
 2 C  px              0.0       0.0       0.0       1.0       0.7       0.3
 2 C  py              0.0       1.3       0.3       2.6       1.4       1.3
 2 C  dxz             0.3       0.5       0.5       0.0       0.0       0.0
 2 C  dyz             0.1       0.0       0.4       0.1       0.0       0.3
 2 C  dx2y2           0.0       0.0       0.0       0.3       0.0       0.0
 2 C  dxy             0.0       0.0       0.0       0.5       0.0       0.0
 3 C  s               0.0       0.0       0.0       3.5       0.1       0.0
 3 C  pz              8.9       0.4      22.2       0.0       0.2       9.0
 3 C  px              0.0       0.0       0.0       5.4       0.0       0.1
 3 C  py              0.6       0.0       1.2       0.0       0.2       0.4
 3 C  dz2             0.0       0.2       0.0       0.1       0.0       0.0
 3 C  dxz             0.0       0.0       0.3       0.0       0.0       0.4
 3 C  dyz             0.0       1.2       0.0       0.0       0.0       0.0
 3 C  dx2y2           0.0       0.1       0.0       1.2       0.0       0.0
 4 C  s               0.0       0.0       0.0       3.6       0.7       0.2
 4 C  pz              0.5      18.8       9.6       0.4       0.5       9.8
 4 C  px              0.0       0.0       0.0       1.0       0.1       0.2
 4 C  py              0.0       1.1       0.7       2.8       1.0       1.8
 4 C  dxz             0.3       0.7       0.2       0.0       0.0       0.2
 4 C  dyz             0.1       0.0       0.4       0.1       0.0       0.2
 4 C  dx2y2           0.0       0.0       0.0       0.3       0.0       0.0
 4 C  dxy             0.0       0.0       0.1       0.7       0.1       0.0
 5 C  s               0.0       0.0       0.0       1.5       0.6       0.4
 5 C  pz              6.3      22.5       1.4       0.0       0.0      11.5
 5 C  px              0.0       0.0       0.0       0.2       0.5       0.3
 5 C  py              0.1       1.4       0.5       1.3       0.9       0.3
 5 C  dz2             0.0       0.0       0.1       0.0       0.0       0.1
 5 C  dxz             0.1       0.5       0.6       0.0       0.0       0.1
 5 C  dyz             0.1       0.0       0.4       0.0       0.0       0.2
 5 C  dx2y2           0.0       0.0       0.0       0.1       0.2       0.1
 5 C  dxy             0.0       0.0       0.1       0.6       0.2       0.1
 6 C  s               0.0       0.0       0.0       0.8       0.4       0.0
 6 C  pz              3.4       0.2      21.2       0.0       0.0       8.7
 6 C  px              0.0       0.1       0.0       0.6       1.3       0.0
 6 C  py              0.3       0.0       1.1       0.0       0.3       0.7
 6 C  dz2             0.0       0.3       0.0       0.1       0.0       0.0
 6 C  dxz             0.6       0.0       0.0       0.0       0.0       0.1
 6 C  dyz             0.0       1.3       0.0       0.0       0.0       0.0
 6 C  dx2y2           0.0       0.1       0.0       0.6       0.6       0.0
 6 C  dxy             0.6       0.0       0.2       0.0       0.0       0.0
 7 N  s               0.0       0.0       0.0       0.8       0.4       0.0
 7 N  pz             11.6       0.0       5.4       0.0       0.0       0.3
 7 N  px              0.1       0.0       0.1       0.7       0.6       0.0
 7 N  py             12.9       0.0       7.7       0.0       0.0       0.9
 7 N  dxz             0.5       0.0       0.1       0.0       0.0       0.2
 7 N  dyz             0.0       0.0       0.0       0.1       0.0       0.0
 7 N  dxy             0.3       0.0       0.0       0.0       0.0       0.0
 8 O  pz              9.9       0.0       2.4       0.0       0.0       0.1
 8 O  px              0.3       0.0       0.3       0.2       0.0       0.1
 8 O  py             10.9       0.0       3.0       0.0       0.3       0.1
 8 O  dz2             0.2       0.0       0.1       0.0       0.0       0.0
 9 O  s               0.0       0.0       0.0       0.1       0.0       0.1
 9 O  pz             10.0       0.2       2.3       0.1       0.0       0.3
 9 O  px              0.0       0.0       0.6       0.2       0.1       0.2
 9 O  py             11.7       0.0       2.6       0.0       0.1       0.0
 9 O  dz2             0.2       0.0       0.1       0.0       0.0       0.0
10 H  s               0.3       1.9       0.5       0.5      22.7      14.6
[...]
 6 C  dxz             0.0       0.0       0.0       1.6       2.7       0.1
 6 C  dyz             0.1       0.1       0.0       0.0       0.1       0.1
 6 C  dx2y2           0.3      12.6       0.0       0.0       0.1       0.7
 6 C  dxy             0.5       0.2       2.3       1.3      13.4       0.6
 7 N  s               0.0       1.7       0.0       0.0       0.0       0.0
 7 N  pz              0.0       0.0       0.3       0.3       1.8       0.1
 7 N  px              0.0       3.0       0.0       0.0       0.1       0.3
 7 N  py              0.0       0.0       0.2       1.5       1.1       0.0
 7 N  dz2             0.0       1.7       0.0       0.0       0.7      17.4
 7 N  dxz             0.1       0.0       0.4      16.4       2.6       0.1
 7 N  dyz             0.2       5.9       0.0       0.2       0.0       0.5
 7 N  dx2y2           0.3       7.6       0.1       0.2       1.3       7.2
 7 N  dxy             0.4       0.5       2.4       4.8       9.0       1.3
 8 O  s               0.0       0.2       0.2       0.2       2.9       0.3
 8 O  pz              0.0       0.1       0.0       0.4       0.3       0.1
 8 O  px              0.0       0.0       0.3       0.1       0.8       0.0
 8 O  py              0.1       0.1       0.1       0.3       0.2       0.5
 8 O  dz2             0.0       4.1       7.6      15.5       1.5      11.0
 8 O  dxz             0.0       0.1       0.4       2.2      10.2       2.8
 8 O  dyz             0.6       0.1       0.0       0.9       0.3       1.9
 8 O  dx2y2           0.1       8.0       0.8      15.4       5.8       3.3
 8 O  dxy             1.0       0.5       1.0       0.3       2.5       8.9
 9 O  s               0.0       0.2       0.3       0.3       2.4       0.0
 9 O  pz              0.0       0.1       0.0       0.4       0.2       0.1
 9 O  px              0.0       0.0       0.2       0.1       0.5       0.1
 9 O  py              0.0       0.2       0.1       0.2       0.5       0.2
 9 O  dz2             3.8       1.7       7.5      16.6       7.5       7.2
 9 O  dxz             0.4       0.0       0.5       2.5       4.8       8.1
 9 O  dyz             2.3       0.1       0.2       0.2       0.9       0.5
 9 O  dx2y2           2.5       6.9       0.1      13.3       0.6      11.3
 9 O  dxy             1.2       0.2       0.9       1.0      10.4       1.1
11 H  s               0.2       0.0       0.0       0.0       0.0       0.0
13 H  s               0.2       0.0       0.0       0.0       0.0       0.1
14 H  s               0.0       0.4       0.0       0.0       0.0       0.1
15 H  s               0.3       0.2       0.0       0.0       0.0       0.1
16 H  s               0.3       0.0       0.0       0.0       0.0       0.1

                    150       151       152       153   
                   3.25119   3.37624   3.65377   3.65455
                   0.00000   0.00000   0.00000   0.00000
                  --------  --------  --------  --------
 0 C  py              0.1       0.1       0.0       0.0
 0 C  dx2y2           0.2       0.2       0.0       0.0
 0 C  dxy             0.1       0.3       0.0       0.0
 1 C  s               0.4       0.2       0.1       0.0
 1 C  dz2             0.3       0.0       0.0       0.0
 1 C  dxz             0.3       0.2       0.0       0.0
 1 C  dx2y2           1.6       2.0       0.5       0.0
 1 C  dxy             4.7       4.1       0.0       0.4
 2 C  s               0.7       0.4       0.0       0.0
 2 C  dz2             0.4       0.2       0.0       0.0
 2 C  dxz             0.3       0.2       0.0       0.0
 2 C  dx2y2           1.5       0.9       0.0       0.0
 2 C  dxy             5.1       3.2       0.0       0.2
 3 C  s               0.7       0.4       0.0       0.0
 3 C  dz2             0.2       0.1       0.0       0.0
 3 C  dyz             0.7       0.3       0.0       0.0
 3 C  dx2y2           6.6       3.3       0.0       0.1
 4 C  s               0.8       0.3       0.0       0.0
 4 C  dz2             0.4       0.2       0.0       0.0
 4 C  dxz             0.3       0.2       0.0       0.0
 4 C  dx2y2           1.9       0.7       0.0       0.0
 4 C  dxy             4.7       2.9       0.0       0.2
 5 C  s               0.7       0.4       0.0       0.0
 5 C  dz2             0.5       0.1       0.0       0.0
 5 C  dxz             0.3       0.3       0.0       0.0
 5 C  dx2y2           1.7       0.8       0.4       0.2
 5 C  dxy             4.3       3.7       0.0       0.3
 6 C  s               0.5       0.1       0.0       0.0
 6 C  px              0.0       0.4       0.0       0.3
 6 C  dz2             0.9       0.1       0.0       0.1
 6 C  dxz             0.0       0.0       0.6       0.0
 6 C  dyz             0.5       0.7       0.0       0.1
 6 C  dx2y2           3.6       9.4       0.0       1.8
 6 C  dxy             0.0       0.2       1.8       0.0
 7 N  s               1.0       5.7       0.2       4.2
 7 N  pz              0.0       0.0       3.2       0.2
 7 N  px              1.6       0.6       0.0       1.3
 7 N  py              0.0       0.0       2.7       0.1
 7 N  dz2            10.3       0.9       0.3       3.7
 7 N  dxz             0.0       0.0      10.3       1.7
 7 N  dyz             0.0       0.3       1.8      14.4
 7 N  dx2y2           0.6      10.6       2.1       6.6
 7 N  dxy             0.0       0.4       9.3       2.0
 8 O  s               0.5       1.4       2.3       2.8
 8 O  pz              0.3       0.3       0.9       0.7
 8 O  px              0.0       0.0       0.1       1.3
 8 O  py              0.0       0.4       0.7       0.4
 8 O  dz2             9.6       1.1       2.7       0.0
 8 O  dxz             0.4       0.4       2.5      18.0
 8 O  dyz             5.0      12.6       9.8       3.4
 8 O  dx2y2           2.2       3.7       2.6       2.9
 8 O  dxy             1.5       1.5       2.2      11.0
 9 O  s               0.8       1.9       4.5       0.6
 9 O  pz              0.4       0.3       1.4       0.1
 9 O  px              0.0       0.0       0.3       0.7
 9 O  py              0.1       0.4       1.3       0.1
 9 O  dz2             9.1       0.9       1.7       0.8
 9 O  dxz             0.1       0.0       6.5       8.5
 9 O  dyz             6.8      13.6      17.7       0.6
 9 O  dx2y2           1.0       4.9       3.0       1.3
 9 O  dxy             1.9       0.1       5.7       8.4
13 H  s               0.3       0.2       0.0       0.0
14 H  s               0.3       0.1       0.0       0.0
15 H  s               0.3       0.2       0.0       0.0
16 H  s               0.3       0.2       0.0       0.0


                      *****************************
                      * MAYER POPULATION ANALYSIS *
                      *****************************

  NA   - Mulliken gross atomic population
  ZA   - Total nuclear charge
  QA   - Mulliken gross atomic charge
  VA   - Mayer's total valence
  BVA  - Mayer's bonded valence
  FA   - Mayer's free valence

  ATOM       NA         ZA         QA         VA         BVA        FA
  0 C      6.2300     6.0000    -0.2300     3.8856     3.8856    -0.0000
  1 C      5.9963     6.0000     0.0037     4.0612     4.0612    -0.0000
  2 C      6.1475     6.0000    -0.1475     3.8712     3.8712     0.0000
  3 C      6.0089     6.0000    -0.0089     3.7722     3.7722    -0.0000
  4 C      6.0541     6.0000    -0.0541     3.7819     3.7819    -0.0000
  5 C      6.0961     6.0000    -0.0961     3.8388     3.8388    -0.0000
  6 C      5.8732     6.0000     0.1268     3.9087     3.9087    -0.0000
  7 N      6.8016     7.0000     0.1984     3.9585     3.9585    -0.0000
  8 O      8.2096     8.0000    -0.2096     1.9902     1.9902     0.0000
  9 O      8.2096     8.0000    -0.2096     1.9971     1.9971    -0.0000
 10 H      0.8763     1.0000     0.1237     0.9507     0.9507    -0.0000
 11 H      0.8642     1.0000     0.1358     1.0061     1.0061     0.0000
 12 H      0.8829     1.0000     0.1171     0.9581     0.9581    -0.0000
 13 H      0.9497     1.0000     0.0503     0.9623     0.9623    -0.0000
 14 H      0.9346     1.0000     0.0654     0.9495     0.9495     0.0000
 15 H      0.9335     1.0000     0.0665     0.9513     0.9513     0.0000
 16 H      0.9318     1.0000     0.0682     0.9827     0.9827    -0.0000

  Mayer bond orders larger than 0.100000
B(  0-C ,  1-C ) :   1.1226 B(  0-C , 10-H ) :   0.9262 B(  0-C , 11-H ) :   0.9127 
B(  0-C , 12-H ) :   0.9278 B(  1-C ,  2-C ) :   1.3597 B(  1-C ,  6-C ) :   1.4052 
B(  2-C ,  3-C ) :   1.3797 B(  2-C , 13-H ) :   0.9644 B(  3-C ,  4-C ) :   1.3356 
B(  3-C , 14-H ) :   0.9658 B(  4-C ,  5-C ) :   1.3592 B(  4-C , 15-H ) :   0.9654 
B(  5-C ,  6-C ) :   1.3664 B(  5-C , 16-H ) :   0.9526 B(  6-C ,  7-N ) :   0.8683 
B(  7-N ,  8-O ) :   1.5108 B(  7-N ,  9-O ) :   1.5385 B(  8-O ,  9-O ) :   0.2950 


-------
TIMINGS
-------

Total SCF time: 0 days 0 hours 0 min 6 sec 

Total time                  ....       6.937 sec
Sum of individual times     ....       6.880 sec  ( 99.2%)

SCF preparation             ....       0.815 sec  ( 11.7%)
Fock matrix formation       ....       5.354 sec  ( 77.2%)
  Startup                   ....       0.010 sec  (  0.2% of F)
  Split-RI-J                ....       2.357 sec  ( 44.0% of F)
  XC integration            ....       2.593 sec  ( 48.4% of F)
    XC Preparation          ....       0.000 sec  (  0.0% of XC)
    Basis function eval.    ....       1.046 sec  ( 40.3% of XC)
    Density eval.           ....       0.525 sec  ( 20.2% of XC)
    XC-Functional eval.     ....       0.185 sec  (  7.1% of XC)
    XC-Potential eval.      ....       0.539 sec  ( 20.8% of XC)
Diagonalization             ....       0.000 sec  (  0.0%)
Density matrix formation    ....       0.063 sec  (  0.9%)
Total Energy calculation    ....       0.003 sec  (  0.0%)
Population analysis         ....       0.460 sec  (  6.6%)
Orbital Transformation      ....       0.016 sec  (  0.2%)
Orbital Orthonormalization  ....       0.000 sec  (  0.0%)
DIIS solution               ....       0.101 sec  (  1.5%)
  MO trafo                  ....       0.000 sec  (  0.0 % of DIIS)
  Orb grad                  ....       0.000 sec  (  0.0 % of DIIS)
  Energy W gradient         ....       0.000 sec  (  0.0 % of DIIS)
  DIIS error                ....       0.003 sec  (  3.2 % of DIIS)
  DIIS work                 ....       0.086 sec  ( 85.1 % of DIIS)
  Form Q                    ....       0.000 sec  (  0.0 % of DIIS)
  Form QpQm                 ....       0.000 sec  (  0.0 % of DIIS)
  Exp/Cayley                ....       0.000 sec  (  0.0 % of DIIS)
  Orb update                ....       0.000 sec  (  0.0 % of DIIS)
  Wake-sleep                ....       0.002 sec  (  2.1 % of DIIS)
SOSCF solution              ....       0.069 sec  (  1.0%)
  MO trafo                  ....       0.032 sec  ( 46.0 % of SOSCF)
  Orb grad                  ....       0.000 sec  (  0.7 % of SOSCF)
  Rot update                ....       0.015 sec  ( 22.3 % of SOSCF)
  Step                      ....       0.021 sec  ( 30.9 % of SOSCF)
Finished LeanSCF after   7.3 sec

Maximum memory used throughout the entire LEANSCF-calculation: 14.4 MB


-------------------------------------------------------------------------------
                          DFT DISPERSION CORRECTION                            
                                                                               
                                DFTD4 V3.4.0                                   
-------------------------------------------------------------------------------
The PBE functional is recognized
Active option DFTDOPT                   ...         5   

-------------------------   ----------------
Dispersion correction           -0.018500781
-------------------------   ----------------

------------------   -----------------
gCP correction             0.069488741
------------------   -----------------

-------------------------   --------------------
FINAL SINGLE POINT ENERGY      -475.101399772999
-------------------------   --------------------


------------------------------------------------------------------------------
                              ORCA PROPERTY CALCULATIONS
------------------------------------------------------------------------------

GBWName                                 ... sp.gbw
Number of atoms                         ...     17
Number of basis functions               ...    154
Max core memory                         ...   1024 MB

Electric properties:
Dipole moment                           ... YES
Quadrupole moment                       ...  NO
Static polarizability (Dipole/Dipole)   ...  NO
Static polarizability (Dipole/Quad.)    ...  NO
Static polarizability (Quad./Quad.)     ...  NO
Static polarizability (Velocity)        ...  NO

Atomic electric properties:
Dipole moment                           ...  NO
Quadrupole moment                       ...  NO
Static polarizability                   ...  NO

Choice of electric origin               ... Center of mass
Position of electric origin             ...     0.000028    -0.000010    -0.000002

General magnetic properties:
Magnetizability                         ...  NO

EPR properties:
g-Tensor (aka g-matrix)                 ...  NO
Zero-Field splitting spin-orbit         ...  NO
Zero-field splitting spin-spin          ...  NO
Hyperfine couplings                     ...  NO (   0 nuclei)
Quadrupole couplings                    ...  NO (   0 nuclei)
Contact density                         ...  NO (   0 nuclei)

NMR properties:
Chemical shifts                         ...  NO (   0 nuclei)
Spin-rotation constants                 ...  NO (   0 nuclei)
Spin-spin couplings                     ...  NO (   0 nuclei,    0 pairs)

Choice of magnetic origin               ... GIAO
Position of magnetic origin             ...     0.000000     0.000000     0.000000

Properties with geometric perturbations:
SCF Hessian                             ...  NO
IR spectrum                             ...  NO
VCD spectrum                            ...  NO
X-ray spectroscopy properties:
SCF XES/XAS/RIXS spectra                ...  NO


-------------
DIPOLE MOMENT
-------------

Method             : SCF
Type of density    : Electron Density
Multiplicity       :   1
Irrep              :   0
Energy             :  -475.1523877329589709 Eh
Relativity type    : 
Basis              : AO
                                X                 Y                 Z
Electronic contribution:     -5.478614340       4.349306842       0.800979085
Nuclear contribution   :      6.963828882      -4.647218950      -0.833606814
                        -----------------------------------------
Total Dipole Moment    :      1.485214542      -0.297912108      -0.032627729
                        -----------------------------------------
Magnitude (a.u.)       :      1.515149639
Magnitude (Debye)      :      3.851204323



--------------------
Rotational spectrum 
--------------------
 
Rotational constants in cm-1:             0.076193             0.042051             0.028195 
Rotational constants in MHz :          2284.210628          1260.644216           845.258005 

Dipole components along the rotational axes: 
x,y,z [a.u.] :     1.490017    -0.272225     0.037694 
x,y,z [Debye]:     3.787323    -0.691942     0.095811 

 

Dipole moment calculation done in   0.1 sec 

Maximum memory used throughout the entire PROP-calculation: 9.4 MB

--------------------------------
SUGGESTED CITATIONS FOR THIS RUN
--------------------------------

Below you find a list of papers that are relevant to this ORCA run
We neither can nor want to force you to cite these papers, but we appreciate if you do
You receive ORCA, which is the product of decades of hard work by many enthusiastic individuals, for free
The only thing we kindly ask in return is that you cite our papers,
We deeply appreciate it, if you show your appreciation for ORCA by not just citing the generic ORCA reference.

Please note that relegating all ORCA citations to the supporting information does *not* help us.
SI sections are not indexed - citations you put there will not count into any citation statistics
But we need these citations in order to attract the funding resources that allow us to do what we are doing

Therefore, if you are a happy ORCA user, please consider citing a few of the papers listed below in the main body of your paper

In addition to the list printed below, the program has created the file sp.bibtex that contains the list in bibtex format
You can import this file easily into all common literature databanks and citation aid programs


List of essential papers. We consider these as the minimum necessary citations

  1. Neese,F.
     Software update: the ORCA program system, version 5.0
     WIRES Comput. Molec. Sci., 2022 12(1)e1606
     doi.org/10.1002/wcms.1606

List of papers to cite with high priority. The work reported in these papers was absolutely
necessary for this run to complete.
Our perspective: the developers of density functionals and basis sets usually get cited in chemistry papers
Good! But without the algorithms to do something with them, the functionals or basis sets would not do anything.
Hence, in our opinion, the algorithm design and method developments papers are equally worthy of getting cited

  1. Neese,F.
     An improvement of the resolution of the identity approximation for the formation of the Coulomb matrix
     J. Comp. Chem., 2003 24(14)1740-1747
     doi.org/10.1002/jcc.10318
  2. Neese,F.
     The SHARK Integral Generation and Digestion System
     J. Comp. Chem., 2022  1-16
     doi.org/10.1002/jcc.26942
  3. Caldeweyher,E.; Bannwarth,C.; Grimme,S.
     Extension of the D3 dispersion coefficient model
     J. Chem. Phys., 2017 147 034112
     doi.org/10.1063/1.4993215
  4. Caldeweyher,E.; Ehlert,S.; Hansen,A.; Neugebauer,H.; Spicher,S.; Bannwarth,C.; Grimme,S.
     A generally applicable atomic-charge dependent London dispersion correction
     J. Chem. Phys., 2019 150 154122
     doi.org/10.1063/1.5090222
  5. Caldeweyher,E.; Mewes,J.; Ehlert,S.; Grimme,S.
     Extension and evaluation of the D4 London-dispersion model for periodic systems
     Phys. Chem. Chem. Phys., 2020 22(16)8499-8512
     doi.org/10.1039/D0CP00502A
  6. Wittmann,L.; Gordiy,I.; Friede,M.; Helmich-Paris,B.; Grimme,S.; Hansen,A.; Bursch,M.
     Extension of the D3 and D4 London Dispersion Corrections to the full Actinides Series
     Phys. Chem. Chem. Phys., 2024 26(32)21379-21394
     doi.org/https://doi.org/10.1039/D4CP01514B 

List of suggested additional citations. These are papers that are important in the 'surrounding' of 
of this run, or papers that preceded the highly important papers. If you like your results we are grateful for a citation.

  1. Neese,F.
     The ORCA program system
     WIRES Comput. Molec. Sci., 2012 2(1)73-78
     doi.org/10.1002/wcms.81
  2. Neese,F.
     Software update: the ORCA program system, version 4.0
     WIRES Comput. Molec. Sci., 2018 8(1)1-6
     doi.org/10.1002/wcms.1327
  3. Neese,F.; Wennmohs,F.; Becker,U.; Riplinger,C.
     The ORCA quantum chemistry program package
     J. Chem. Phys., 2020 152 Art. No. L224108
     doi.org/10.1063/5.0004608

List of optional additional citations

  1. Neese,F.
     Approximate second-order SCF convergence for spin unrestricted wavefunctions
     Chem. Phys. Lett., 2000 325(1-3)93-98
     doi.org/10.1016/s0009-2614(00)00662-x

Timings for individual modules:

Sum of individual times          ...        9.237 sec (=   0.154 min)
Startup calculation              ...        0.944 sec (=   0.016 min)  10.2 %
SCF iterations                   ...        8.168 sec (=   0.136 min)  88.4 %
Property calculations            ...        0.125 sec (=   0.002 min)   1.4 %
                             ****ORCA TERMINATED NORMALLY****
TOTAL RUN TIME: 0 days 0 hours 0 minutes 10 seconds 354 msec
