
                                 *****************
                                 * O   R   C   A *
                                 *****************

                                            #,                                       
                                            ###                                      
                                            ####                                     
                                            #####                                    
                                            ######                                   
                                           ########,                                 
                                     ,,################,,,,,                         
                               ,,#################################,,                 
                          ,,##########################################,,             
                       ,#########################################, ''#####,          
                    ,#############################################,,   '####,        
                  ,##################################################,,,,####,       
                ,###########''''           ''''###############################       
              ,#####''   ,,,,##########,,,,          '''####'''          '####       
            ,##' ,,,,###########################,,,                        '##       
           ' ,,###''''                  '''############,,,                           
         ,,##''                                '''############,,,,        ,,,,,,###''
      ,#''                                            '''#######################'''  
     '                                                          ''''####''''         
             ,#######,   #######,   ,#######,      ##                                
            ,#'     '#,  ##    ##  ,#'     '#,    #''#        ,####,   ,####,        
            ##       ##  ##   ,#'  ##            #'  '#       #'       #'  '#        
            ##       ##  #######   ##           ,######,      #####,   #    #        
            '#,     ,#'  ##    ##  '#,     ,#' ,#      #,     #,   #   #,  ,#        
             '#######'   ##     ##  '#######'  #'      '#     '####' # '####'        



                #########################################################
                #                        -***-                          #
                #          Department of theory and spectroscopy        #
                #                                                       #
                #                      Frank Neese                      #
                #                                                       #
                #     Directorship, Architecture, Infrastructure        #
                #                    SHARK, DRIVERS                     #
                #        Core code/Algorithms in most modules           #
                #                                                       #
                #        Max Planck Institute fuer Kohlenforschung      #
                #                Kaiser Wilhelm Platz 1                 #
                #                 D-45470 Muelheim/Ruhr                 #
                #                      Germany                          #
                #                                                       #
                #                  All rights reserved                  #
                #                        -***-                          #
                #########################################################


                         Program Version 6.0.1  -  RELEASE   -


 With contributions from (in alphabetic order):
[Max-Planck-Institut fuer Kohlenforschung]                               
  Daniel Aravena         : Magnetic Suceptibility                        
  Michael Atanasov       : Ab Initio Ligand Field Theory (pilot matlab implementation)
  Alexander A. Auer      : GIAO ZORA, VPT2 properties, NMR spectrum      
  Ute Becker             : All parallelization in ORCA, NUMFREQ, NUMCALC 
  Giovanni Bistoni       : ED, misc. LED, open-shell LED, HFLD           
  Martin Brehm           : Molecular dynamics                            
  Dmytro Bykov           : pre 5.0 version of the SCF Hessian            
  Marcos Casanova-Páez   : Triplet and SCS-CIS(D). UHF-(DLPNO)-IP/EA/STEOM-CCSD. UHF-CVS-IP/STEOM-CCSD   
  Vijay G. Chilkuri      : MRCI spin determinant printing, contributions to CSF-ICE 
  Pauline Colinet        : FMM embedding                                 
  Dipayan Datta          : RHF DLPNO-CCSD density                        
  Achintya Kumar Dutta   : EOM-CC, STEOM-CC                              
  Nicolas Foglia         : Exact transition moments, OPA infrastructure, MCD improvements    
  Dmitry Ganyushin       : Spin-Orbit,Spin-Spin,Magnetic field MRCI      
  Miquel Garcia-Rates    : C-PCM and meta-GGA Hessian, CCSD/C-PCM, Gaussian charge scheme 
  Tiago L. C. Gouveia    : GS-ROHF, GS-ROCIS                             
  Yang Guo               : DLPNO-NEVPT2, F12-NEVPT2, CIM, IAO-localization        
  Andreas Hansen         : Spin unrestricted coupled pair/coupled cluster methods 
  Ingolf Harden          : AUTO-CI MPn and infrastructure                
  Benjamin Helmich-Paris : MC-RPA, TRAH-(SCF,CASSCF), AVAS, COSX integrals, SCF dyn. polar. 
  Lee Huntington         : MR-EOM, pCC                                   
  Robert Izsak           : Overlap fitted RIJCOSX, COSX-SCS-MP3, EOM     
  Riya Kayal             : Wick's Theorem for AUTO-CI, AUTO-CI UHF-CCSDT 
  Emily Kempfer          : AUTO-CI, RHF CISDT and CCSDT                  
  Christian Kollmar      : KDIIS, OOCD, Brueckner-CCSD(T), CCSD density, CASPT2, CASPT2-K, improved NEVPT2 
  Axel Koslowski         : Symmetry handling                             
  Simone Kossmann        : meta-GGA functionals, TD-DFT gradient, OOMP2, (MP2 Hessian; deprecated post 5.0) 
  Lucas Lang             : DCDCAS                                        
  Marvin Lechner         : AUTO-CI (C++ implementation), FIC-MRCC        
  Spencer Leger          : CASSCF response                               
  Dagmar Lenk            : GEPOL surface, SMD, ORCA-2-JSON               
  Dimitrios Liakos       : Extrapolation schemes; Compound Job, initial MDCI parallelization 
  Dimitrios Manganas     : Further ROCIS development; embedding schemes. LFT, Crystal Embedding 
  Dimitrios Pantazis     : SARC Basis sets                               
  Anastasios Papadopoulos: AUTO-CI, single reference methods and gradients 
  Taras Petrenko         : pre 6.0 DFT Hessian and TD-DFT gradient, (ASA, deprecated), ECA, 1-Electron XAS/XES, NRVS 
  Peter Pinski           : DLPNO-MP2, DLPNO-MP2 Gradient                 
  Christoph Reimann      : Effective Core Potentials                     
  Marius Retegan         : Local ZFS, SOC                                
  Christoph Riplinger    : Optimizer, TS searches, QM/MM, DLPNO-CCSD(T), (RO)-DLPNO pert. Triples 
  Michael Roemelt        : Original ROCIS implementation                 
  Masaaki Saitow         : Open-shell DLPNO-CCSD energy and density      
  Barbara Sandhoefer     : DKH picture change effects                    
  Kantharuban Sivalingam : CASSCF convergence/infrastructure, NEVPT2 and variants, FIC-MRCI 
  Bernardo de Souza      : ESD, SOC TD-DFT                               
  Georgi L. Stoychev     : AutoAux, RI-MP2 NMR, DLPNO-MP2 response, X2C  
  Van Anh Tran           : RI-MP2 g-tensors                              
  Willem Van den Heuvel  : Paramagnetic NMR                              
  Zikuan Wang            : NOTCH, Electric field optimization            
  Frank Wennmohs         : Technical directorship and infrastructure     
  Hang Xu                : AUTO-CI-Response properties                   
                                                                         
[FACCTs GmbH]                                                            
  Markus Bursch, Miquel Garcia-Rates, Christoph Riplinger, Bernardo de Souza, Georgi L. Stoychev 
                                                                 
  APM, Basis sets (HGBS, AHGBS, def-TZVP (Ac-Lr), def2-XVPD (La-Lu)), CI-OPT, improved COSX, DLPNO-Multilevel,           
  DOCKER, DRACO, updates on ESD, GOAT, IRC, LR-CPCM, MBIS, meta-GGA TD-DFT gradient, ML-optimized integration grids, 
  MM, NACMEs, nearIR, NEB, NEB-TS, NL-DFT gradient (VV10), 2- and 3-layer-ONIOM, interface openCOSMO-RS, QMMM,   
  Crystal-QMMM, SF, symmetry and pop. for TD-DFT, r2SCAN hybrids, SOLVATOR                                   
                                                                         
[Other institutions]                                                     
  V. Asgeirsson          : NEB                                           
  Christoph Bannwarth    : sTDA-DFT, sTD-DFT, PBEh-3c, B97-3c, D3        
  Sebastian Ehlert       : rSCAN, r2SCAN, r2SCAN-3c, D4, dhf basis sets  
  Marvin Friede          : D4 for Fr, Ra, Ac-Lr                          
  Lars Goerigk           : TD-DFT with DH, B97 family of functionals     
  Stefan Grimme          : VdW corrections, initial TS optimization, DFT functionals, gCP, sTDA/sTD-DF 
  Waldemar Hujo          : DFT-NL                                        
  H. Jonsson             : NEB                                           
  Holger Kruse           : gCP                                           
  Marcel Mueller         : wB97X-3c, vDZP basis set                      
  Hagen Neugebauer       : wr2SCAN                                       
  Tobias Risthaus        : range-separated hybrid DFT                    
  Lukas Wittmann         : regularized MP2, r2SCAN double-hybrids, wr2SCAN        
                                                                         
We gratefully acknowledge several colleagues who have allowed us to      
interface, adapt or use parts of their codes:                            
  Ed Valeev, F. Pavosevic, A. Kumar             : LibInt (2-el integral package), F12 methods 
  Garnet Chan, S. Sharma, J. Yang, R. Olivares  : DMRG                   
  Ulf Ekstrom                                   : XCFun DFT Library      
  Mihaly Kallay                                 : mrcc  (arbitrary order and MRCC methods)
  Frank Weinhold                                : gennbo (NPA and NBO analysis)           
  Simon Mueller                                 : openCOSMO-RS                            
  Christopher J. Cramer and Donald G. Truhlar   : smd solvation model                     
  S Lehtola, MJT Oliveira, MAL Marques          : LibXC Library                           
  Liviu Ungur et al                             : ANISO software                          


 Your calculation uses the libint2 library for the computation of 2-el integrals
 For citations please refer to: http://libint.valeyev.net

 Your ORCA version has been built with support for libXC version: 6.2.2
 For citations please refer to: https://libxc.gitlab.io

 This ORCA versions uses:
   CBLAS   interface :  Fast vector & matrix operations
   LAPACKE interface :  Fast linear algebra routines
   SCALAPACK package :  Parallel linear algebra routines
   Shared memory     :  Shared parallel matrices
   BLAS/LAPACK       :  OpenBLAS 0.3.27  USE64BITINT DYNAMIC_ARCH NO_AFFINITY Zen SINGLE_THREADED
        Core in use  :  Zen
   Copyright (c) 2011-2014, The OpenBLAS Project


Your calculation utilizes the geometrical counterpoise correction gCP
Please cite in your paper:
H.Kruse, S. Grimme J.Chem.Phys., 136, (2012), 154101 
   

Your calculation utilizes the atom-pairwise dispersion correction
based on EEQ partial charges (D4)


================================================================================

----- Orbital basis set information -----
Your calculation utilizes the basis: def2-SV(P)
   F. Weigend and R. Ahlrichs, Phys. Chem. Chem. Phys. 7, 3297 (2005).

----- AuxJ basis set information -----
Your calculation utilizes the auxiliary basis: def2/J
   F. Weigend, Phys. Chem. Chem. Phys. 8, 1057 (2006).

================================================================================
                                        WARNINGS
                       Please study these warnings very carefully!
================================================================================


================================================================================
                                       INPUT FILE
================================================================================
NAME = sp.inp
|  1> ! pbe def2-sv(p) def2/J RI DEFGRID1 loosescf d4 GCP(DFT/SV(P)) printgap
|  2> %output
|  3>     printlevel normal
|  4> end
|  5> * xyz 0 1
|  6> C -2.2334427357 -1.0671261084 0.3527562522
|  7> C -0.9509220066 -0.3766061215 0.8649797817
|  8> H -1.082114101 -0.1220654184 1.9258195085
|  9> C -0.7160945678 0.9329049233 0.0807681888
| 10> H -1.1759064349 0.8221448409 -0.9140055127
| 11> C 0.7555099399 1.3225081261 -0.167403494
| 12> H 0.9658370052 2.2048153405 0.4497941199
| 13> C 1.77796043 0.2148717336 0.1824513606
| 14> H 2.6725095945 0.3557841839 -0.4350978469
| 15> C 1.1231539674 -1.137143199 -0.1286184426
| 16> H 1.8135382361 -1.9684524587 0.0623869397
| 17> O 0.1020074673 -1.3389573858 0.8176728881
| 18> O 0.6875435473 -1.2444659624 -1.4441617161
| 19> O 2.1960564751 0.2662395371 1.5147717628
| 20> O 0.8468727392 1.6248269047 -1.550196328
| 21> O -1.3101841978 2.0113462228 0.7688455737
| 22> O -2.2012220341 -1.2774018617 -1.0297025331
| 23> H -3.1074013531 -0.4422599182 0.5546664189
| 24> H -2.3423582273 -2.016095366 0.8952570166
| 25> H 0.5205214501 -0.3628878767 -1.8171434705
| 26> H 1.5290342505 -0.1773858444 2.0571097936
| 27> H 1.6430917144 2.1402690408 -1.7173716157
| 28> H -2.2685695889 1.9322270904 0.7181653152
| 29> H -1.3591632482 -1.7083597864 -1.2522129234
| 30> *
| 31> 
| 32>                          ****END OF INPUT****
================================================================================

                       ****************************
                       * Single Point Calculation *
                       ****************************

---------------------------------
CARTESIAN COORDINATES (ANGSTROEM)
---------------------------------
  C     -2.233443   -1.067126    0.352756
  C     -0.950922   -0.376606    0.864980
  H     -1.082114   -0.122065    1.925820
  C     -0.716095    0.932905    0.080768
  H     -1.175906    0.822145   -0.914006
  C      0.755510    1.322508   -0.167403
  H      0.965837    2.204815    0.449794
  C      1.777960    0.214872    0.182451
  H      2.672510    0.355784   -0.435098
  C      1.123154   -1.137143   -0.128618
  H      1.813538   -1.968452    0.062387
  O      0.102007   -1.338957    0.817673
  O      0.687544   -1.244466   -1.444162
  O      2.196056    0.266240    1.514772
  O      0.846873    1.624827   -1.550196
  O     -1.310184    2.011346    0.768846
  O     -2.201222   -1.277402   -1.029703
  H     -3.107401   -0.442260    0.554666
  H     -2.342358   -2.016095    0.895257
  H      0.520521   -0.362888   -1.817143
  H      1.529034   -0.177386    2.057110
  H      1.643092    2.140269   -1.717372
  H     -2.268570    1.932227    0.718165
  H     -1.359163   -1.708360   -1.252213

----------------------------
CARTESIAN COORDINATES (A.U.)
----------------------------
  NO LB      ZA    FRAG     MASS         X           Y           Z
   0 C     6.0000    0    12.011   -4.220595   -2.016576    0.666613
   1 C     6.0000    0    12.011   -1.796982   -0.711682    1.634575
   2 H     1.0000    0     1.008   -2.044899   -0.230670    3.639271
   3 C     6.0000    0    12.011   -1.353223    1.762935    0.152630
   4 H     1.0000    0     1.008   -2.222141    1.553629   -1.727220
   5 C     6.0000    0    12.011    1.427707    2.499178   -0.316347
   6 H     1.0000    0     1.008    1.825167    4.166497    0.849988
   7 C     6.0000    0    12.011    3.359858    0.406049    0.344783
   8 H     1.0000    0     1.008    5.050311    0.672335   -0.822216
   9 C     6.0000    0    12.011    2.122453   -2.148889   -0.243054
  10 H     1.0000    0     1.008    3.427091   -3.719836    0.117894
  11 O     8.0000    0    15.999    0.192766   -2.530263    1.545178
  12 O     8.0000    0    15.999    1.299269   -2.351700   -2.729070
  13 O     8.0000    0    15.999    4.149945    0.503120    2.862504
  14 O     8.0000    0    15.999    1.600358    3.070478   -2.929447
  15 O     8.0000    0    15.999   -2.475889    3.800894    1.452908
  16 O     8.0000    0    15.999   -4.159707   -2.413940   -1.945856
  17 H     1.0000    0     1.008   -5.872138   -0.835750    1.048168
  18 H     1.0000    0     1.008   -4.426416   -3.809868    1.691791
  19 H     1.0000    0     1.008    0.983643   -0.685759   -3.433904
  20 H     1.0000    0     1.008    2.889456   -0.335211    3.887374
  21 H     1.0000    0     1.008    3.104993    4.044522   -3.245362
  22 H     1.0000    0     1.008   -4.286975    3.651380    1.357136
  23 H     1.0000    0     1.008   -2.568446   -3.228332   -2.366339

--------------------------------
INTERNAL COORDINATES (ANGSTROEM)
--------------------------------
 C      0   0   0     0.000000000000     0.00000000     0.00000000
 C      1   0   0     1.544036986945     0.00000000     0.00000000
 H      2   1   0     1.098809929480   108.94771769     0.00000000
 C      2   1   3     1.544328632418   109.69793669   241.75369815
 H      4   2   1     1.101485118454   108.05101224   332.74471534
 C      4   2   1     1.542400618147   116.16587039   213.64448595
 H      6   4   2     1.097103636665   107.18964090   249.86985927
 C      6   4   2     1.547469483377   114.40724782    10.55083262
 H      8   6   4     1.096102892087   108.65295765   153.12623945
 C      8   6   4     1.534105701671   107.63504309    33.65061760
 H     10   8   6     1.097355265991   111.33433854   177.82167662
 O     10   8   6     1.406746751629   107.44972708   290.31866234
 O     10   8   6     1.389938386438   113.18716864    56.37764461
 O      8   6   4     1.397326235452   112.76470290   271.26551681
 O      6   4   2     1.418400446542   105.79252718   130.90922763
 O      4   2   1     1.410471060515   109.66794858    92.61652785
 O      1   2   3     1.398730266739   112.08498420   172.90401170
 H      1   2   3     1.093173881869   110.31343942    54.19566773
 H      1   2   3     1.098504581490   107.74989202   295.47877122
 H     13  10   8     0.971695266663   110.31115973   335.59574474
 H     14   8   6     0.967394783361   108.14186571    82.05802253
 H     15   6   4     0.963116207398   109.66618317   161.69789282
 H     16   4   2     0.962980209344   109.31101680   290.11197136
 H     17   1   2     0.971750279426   108.23693983    50.21805958

---------------------------
INTERNAL COORDINATES (A.U.)
---------------------------
 C      0   0   0     0.000000000000     0.00000000     0.00000000
 C      1   0   0     2.917807045970     0.00000000     0.00000000
 H      2   1   0     2.076449839951   108.94771769     0.00000000
 C      2   1   3     2.918358176043   109.69793669   241.75369815
 H      4   2   1     2.081505214468   108.05101224   332.74471534
 C      4   2   1     2.914714757088   116.16587039   213.64448595
 H      6   4   2     2.073225413826   107.18964090   249.86985927
 C      6   4   2     2.924293524183   114.40724782    10.55083262
 H      8   6   4     2.071334280643   108.65295765   153.12623945
 C      8   6   4     2.899039636645   107.63504309    33.65061760
 H     10   8   6     2.073700924340   111.33433854   177.82167662
 O     10   8   6     2.658366100362   107.44972708   290.31866234
 O     10   8   6     2.626602893393   113.18716864    56.37764461
 O      8   6   4     2.640563904748   112.76470290   271.26551681
 O      6   4   2     2.680388392197   105.79252718   130.90922763
 O      4   2   1     2.665404024196   109.66794858    92.61652785
 O      1   2   3     2.643217139363   112.08498420   172.90401170
 H      1   2   3     2.065799253487   110.31343942    54.19566773
 H      1   2   3     2.075872815874   107.74989202   295.47877122
 H     13  10   8     1.836237939620   110.31115973   335.59574474
 H     14   8   6     1.828111203936   108.14186571    82.05802253
 H     15   6   4     1.820025867124   109.66618317   161.69789282
 H     16   4   2     1.819768868045   109.31101680   290.11197136
 H     17   1   2     1.836341898677   108.23693983    50.21805958

---------------------
BASIS SET INFORMATION
---------------------
There are 3 groups of distinct atoms

 Group   1 Type C   : 7s4p1d contracted to 3s2p1d pattern {511/31/1}
 Group   2 Type H   : 4s contracted to 2s pattern {31}
 Group   3 Type O   : 7s4p1d contracted to 3s2p1d pattern {511/31/1}

Atom   0C    basis set group =>   1
Atom   1C    basis set group =>   1
Atom   2H    basis set group =>   2
Atom   3C    basis set group =>   1
Atom   4H    basis set group =>   2
Atom   5C    basis set group =>   1
Atom   6H    basis set group =>   2
Atom   7C    basis set group =>   1
Atom   8H    basis set group =>   2
Atom   9C    basis set group =>   1
Atom  10H    basis set group =>   2
Atom  11O    basis set group =>   3
Atom  12O    basis set group =>   3
Atom  13O    basis set group =>   3
Atom  14O    basis set group =>   3
Atom  15O    basis set group =>   3
Atom  16O    basis set group =>   3
Atom  17H    basis set group =>   2
Atom  18H    basis set group =>   2
Atom  19H    basis set group =>   2
Atom  20H    basis set group =>   2
Atom  21H    basis set group =>   2
Atom  22H    basis set group =>   2
Atom  23H    basis set group =>   2
---------------------------------
AUXILIARY/J BASIS SET INFORMATION
---------------------------------
There are 3 groups of distinct atoms

 Group   1 Type C   : 12s5p4d2f1g contracted to 6s4p3d1f1g pattern {711111/2111/211/2/1}
 Group   2 Type H   : 5s2p1d contracted to 3s1p1d pattern {311/2/1}
 Group   3 Type O   : 12s5p4d2f1g contracted to 6s4p3d1f1g pattern {711111/2111/211/2/1}

Atom   0C    basis set group =>   1
Atom   1C    basis set group =>   1
Atom   2H    basis set group =>   2
Atom   3C    basis set group =>   1
Atom   4H    basis set group =>   2
Atom   5C    basis set group =>   1
Atom   6H    basis set group =>   2
Atom   7C    basis set group =>   1
Atom   8H    basis set group =>   2
Atom   9C    basis set group =>   1
Atom  10H    basis set group =>   2
Atom  11O    basis set group =>   3
Atom  12O    basis set group =>   3
Atom  13O    basis set group =>   3
Atom  14O    basis set group =>   3
Atom  15O    basis set group =>   3
Atom  16O    basis set group =>   3
Atom  17H    basis set group =>   2
Atom  18H    basis set group =>   2
Atom  19H    basis set group =>   2
Atom  20H    basis set group =>   2
Atom  21H    basis set group =>   2
Atom  22H    basis set group =>   2
Atom  23H    basis set group =>   2
------------------------------------------------------------------------------
                             ORCA STARTUP CALCULATIONS
                           -- RI-GTO INTEGRALS CHOSEN --
------------------------------------------------------------------------------
------------------------------------------------------------------------------
                   ___                                                        
                  /   \      - P O W E R E D   B Y -                         
                 /     \                                                     
                 |  |  |   _    _      __       _____    __    __             
                 |  |  |  | |  | |    /  \     |  _  \  |  |  /  |          
                  \  \/   | |  | |   /    \    | | | |  |  | /  /          
                 / \  \   | |__| |  /  /\  \   | |_| |  |  |/  /          
                |  |  |   |  __  | /  /__\  \  |    /   |      \           
                |  |  |   | |  | | |   __   |  |    \   |  |\   \          
                \     /   | |  | | |  |  |  |  | |\  \  |  | \   \       
                 \___/    |_|  |_| |__|  |__|  |_| \__\ |__|  \__/        
                                                                              
                      - O R C A' S   B I G   F R I E N D -                    
                                      &                                       
                       - I N T E G R A L  F E E D E R -                       
                                                                              
 v1 FN, 2020, v2 2021, v3 2022-2024                                           
------------------------------------------------------------------------------


----------------------
SHARK INTEGRAL PACKAGE
----------------------

Number of atoms                             ...     24
Number of basis functions                   ...    192
Number of shells                            ...     96
Maximum angular momentum                    ...      2
Integral batch strategy                     ... SHARK/LIBINT Hybrid
RI-J (if used) integral strategy            ... SPLIT-RIJ (Revised 2003 algorithm where possible)
Printlevel                                  ...      1
Contraction scheme used                     ... SEGMENTED contraction
Prescreening option                         ... SCHWARTZ
   Thresh                                   ... 1.000e-09
   Tcut                                     ... 1.000e-10
   Tpresel                                  ... 1.000e-10 
Coulomb Range Separation                    ... NOT USED
Exchange Range Separation                   ... NOT USED
Multipole approximations                    ... NOT USED
Finite Nucleus Model                        ... NOT USED
CABS basis                                  ... NOT available
Auxiliary Coulomb fitting basis             ... AVAILABLE
   # of basis functions in Aux-J            ...    720
   # of shells in Aux-J                     ...    240
   Maximum angular momentum in Aux-J        ...      4
Auxiliary J/K fitting basis                 ... NOT available
Auxiliary Correlation fitting basis         ... NOT available
Auxiliary 'external' fitting basis          ... NOT available

Checking pre-screening integrals            ... done (  0.0 sec) Dimension = 96
Check shell pair data                       ... done (  0.0 sec)
Shell pair information
Shell pair cut-off parameter TPreSel        ...   1.0e-10
Total number of shell pairs                 ...      4656
Shell pairs after pre-screening             ...      4286
Total number of primitive shell pairs       ...     18720
Primitive shell pairs kept                  ...     11591
          la=0 lb=0:   1665 shell pairs
          la=1 lb=0:   1358 shell pairs
          la=1 lb=1:    292 shell pairs
          la=2 lb=0:    631 shell pairs
          la=2 lb=1:    271 shell pairs
          la=2 lb=2:     69 shell pairs

Calculating one electron integrals          ... done (  0.0 sec)
Calculating RI/J V-Matrix + Cholesky decomp.... done (  0.0 sec)
Calculating Nuclear repulsion               ... done (  0.0 sec) ENN=    862.451719795743 Eh

Diagonalization of the overlap matrix:
Smallest eigenvalue                        ... 6.825e-04
Time for diagonalization                   ...    0.003 sec
Threshold for overlap eigenvalues          ... 1.000e-07
Number of eigenvalues below threshold      ... 0
Time for construction of square roots      ...    0.004 sec
Total time needed                          ...    0.008 sec

-------------------
DFT GRID GENERATION
-------------------

General Integration Accuracy     IntAcc      ... 4.159
Radial Grid Type                 RadialGrid  ... OptM3 with GC (2021)
Angular Grid (max. ang.)         AngularGrid ... 3 (Lebedev-194)
Angular grid pruning method      GridPruning ... 4 (adaptive)
Weight generation scheme         WeightScheme... mBecke (2022)
Basis function cutoff            BFCut       ... 1.0000e-10
Integration weight cutoff        WCut        ... 1.0000e-14
Partially contracted basis set               ... off
Rotationally invariant grid construction     ... off
Angular grids for H and He will be reduced by one unit

Total number of grid points                  ...    55545
Total number of batches                      ...      882
Average number of points per batch           ...       62
Average number of grid points per atom       ...     2314
Initializing property integral containers    ... done (  0.0 sec)

SHARK setup successfully completed in   0.7 seconds

Maximum memory used throughout the entire STARTUP-calculation: 28.7 MB
-------------------------------------------------------------------------------
                                 ORCA GUESS
                   Start orbitals & Density for SCF / CASSCF
-------------------------------------------------------------------------------

------------
SCF SETTINGS
------------
Hamiltonian:
 Density Functional     Method          .... DFT(GTOs)
 Exchange Functional    Exchange        .... PBE
   PBE kappa parameter   XKappa         ....  0.804000
   PBE mue parameter    XMuePBE         ....  0.219520
 Correlation Functional Correlation     .... PBE
   PBE beta parameter  CBetaPBE         ....  0.066725
 LDA part of GGA corr.  LDAOpt          .... PW91-LDA
 Gradients option       PostSCFGGA      .... off
   NL short-range parameter             ....  6.400000
 RI-approximation to the Coulomb term is turned on
   Number of AuxJ basis functions       .... 720


General Settings:
 Integral files         IntName         .... sp
 Hartree-Fock type      HFTyp           .... RHF
 Total Charge           Charge          ....    0
 Multiplicity           Mult            ....    1
 Number of Electrons    NEL             ....   96
 Basis Dimension        Dim             ....  192
 Nuclear Repulsion      ENuc            ....    862.4517197957 Eh

Convergence Acceleration:
 AO-DIIS                CNVDIIS         .... on
   Start iteration      DIISMaxIt       ....    12
   Startup error        DIISStart       ....  0.200000
   # of expansion vecs  DIISMaxEq       ....     5
   Bias factor          DIISBfac        ....   1.050
   Max. coefficient     DIISMaxC        ....  10.000
 MO-DIIS                CNVKDIIS        .... off
 Trust-Rad. Augm. Hess. CNVTRAH         .... auto
   Auto Start mean grad. ratio tolernc. ....  1.125000
   Auto Start start iteration           ....    50
   Auto Start num. interpolation iter.  ....    10
   Max. Number of Micro iterations      ....    24
   Max. Number of Macro iterations      .... Maxiter - #DIIS iter
   Number of Davidson start vectors     ....     2
   Converg. threshold    (grad. norm)   ....   1.000e-04
   Grad. Scal. Fac. for Micro threshold ....   0.100
   Minimum threshold for Micro iter.    ....   1.000e-02
   NR start threshold (gradient norm)   ....   1.000e-04
   Initial trust radius                 ....   0.400
   Minimum AH scaling param. (alpha)    ....   1.000
   Maximum AH scaling param. (alpha)    .... 1000.000
   Quad. conv. algorithm                .... NR
   White noise on init. David. guess    .... on
   Maximum white noise                  ....   0.010
   Pseudo random numbers                .... off
   Inactive MOs                         .... canonical
   Orbital update algorithm             .... Taylor
   Preconditioner                       .... Diag
   Full preconditioner red. dimension   ....   250
 SOSCF                  CNVSOSCF        .... on
   Start iteration      SOSCFMaxIt      ....   150
   Startup grad/error   SOSCFStart      ....  0.003300
   Hessian update       SOSCFHessUp     .... L-BFGS
 Level Shifting         CNVShift        .... on
   Level shift para.    LevelShift      ....    0.2500
   Turn off err/grad.   ShiftErr        ....    0.0010
 Zerner damping         CNVZerner       .... off
 Static damping         CNVDamp         .... on
   Fraction old density DampFac         ....    0.7000
   Max. Damping (<1)    DampMax         ....    0.9800
   Min. Damping (>=0)   DampMin         ....    0.0000
   Turn off err/grad.   DampErr         ....    0.1000

SCF Procedure:
 Maximum # iterations   MaxIter         ....   125
 SCF integral mode      SCFMode         .... Direct
   Integral package                     .... SHARK and LIBINT hybrid scheme
 Reset frequency        DirectResetFreq ....    20
 Integral Threshold     Thresh          ....  1.000e-09 Eh
 Primitive CutOff       TCut            ....  1.000e-10 Eh

Convergence Tolerance:
 Convergence Check Mode ConvCheckMode   .... Total+1el-Energy
 Convergence forced     ConvForced      .... 0
 Energy Change          TolE            ....  1.000e-05 Eh
 1-El. energy change                    ....  1.000e-02 Eh
 Orbital Gradient       TolG            ....  1.000e-04
 Orbital Rotation angle TolX            ....  1.000e-04
 DIIS Error             TolErr          ....  5.000e-04

------------------------------
INITIAL GUESS: MODEL POTENTIAL
------------------------------
Loading Hartree-Fock densities                     ... done
Calculating cut-offs                               ... done
Initializing the effective Hamiltonian             ... done
Setting up the integral package (SHARK)            ... done
Starting the Coulomb interaction                   ... done (   0.2 sec)
Making the grid                                    ... done (   0.2 sec)
Mapping shells                                     ... done
Starting the XC term evaluation                    ... done (   0.2 sec)
  promolecular density results
     # of electrons  =     95.990746403
     EX              =    -83.244874564
     EC              =     -3.278868036
     EX+EC           =    -86.523742600
Transforming the Hamiltonian                       ... done (   0.0 sec)
Diagonalizing the Hamiltonian                      ... done (   0.0 sec)
Back transforming the eigenvectors                 ... done (   0.0 sec)
Now organizing SCF variables                       ... done
                      ------------------
                      INITIAL GUESS DONE (   0.6 sec)
                      ------------------
             **** ENERGY FILE WAS UPDATED (sp.en.tmp) ****
Finished Guess after   0.7 sec
Maximum memory used throughout the entire GUESS-calculation: 22.6 MB

-------------------------------------------------------------------------------------------
                                      ORCA LEAN-SCF
                              memory conserving SCF solver
-------------------------------------------------------------------------------------------

----------------------------------------D-I-I-S--------------------------------------------
Iteration    Energy (Eh)           Delta-E    RMSDP     MaxDP     DIISErr   Damp  Time(sec)
-------------------------------------------------------------------------------------------
               ***  Starting incremental Fock matrix formation  ***
    1    -685.5341378662645866     0.00e+00  4.95e-03  2.09e-01  2.37e-01  0.700   2.8
    2    -685.6792417077850814    -1.45e-01  3.20e-03  1.45e-01  9.39e-02  0.700   0.8
                               ***Turning on AO-DIIS***
    3    -685.7251808048252997    -4.59e-02  1.12e-03  4.15e-02  1.88e-02  0.700   0.8
    4    -685.7559200841925531    -3.07e-02  1.45e-03  3.09e-02  9.35e-03  0.000   1.0
    5    -685.8267837731058307    -7.09e-02  4.78e-04  2.33e-02  4.80e-03  0.000   0.7
                              *** Initializing SOSCF ***
---------------------------------------S-O-S-C-F--------------------------------------
Iteration    Energy (Eh)           Delta-E    RMSDP     MaxDP     MaxGrad    Time(sec)
--------------------------------------------------------------------------------------
    6    -685.8270803971644227    -2.97e-04  1.37e-04  4.75e-03  1.03e-03     1.0
               *** Restarting incremental Fock matrix formation ***
    7    -685.8271060846140017    -2.57e-05  9.03e-05  3.57e-03  1.52e-04     0.8
    8    -685.8271065368913924    -4.52e-07  3.25e-05  9.04e-04  1.86e-04     1.2
                 **** Energy Check signals convergence ****

               *****************************************************
               *                     SUCCESS                       *
               *           SCF CONVERGED AFTER   8 CYCLES          *
               *****************************************************

             **** ENERGY FILE WAS UPDATED (sp.en.tmp) ****

----------------
TOTAL SCF ENERGY
----------------

Total Energy       :       -685.82710653689139 Eh          -18662.30434 eV

Components:
Nuclear Repulsion  :        862.45171979574286 Eh           23468.50441 eV
Electronic Energy  :      -1548.27882633263425 Eh          -42130.80875 eV
One Electron Energy:      -2653.37389144862345 Eh          -72201.97426 eV
Two Electron Energy:       1105.09506511598920 Eh           30071.16551 eV

Virial components:
Potential Energy   :      -1366.97067216205664 Eh          -37197.16306 eV
Kinetic Energy     :        681.14356562516525 Eh           18534.85871 eV
Virial Ratio       :          2.00687599670332

DFT components:
N(Alpha)           :       47.999479870316 electrons
N(Beta)            :       47.999479870316 electrons
N(Total)           :       95.998959740632 electrons
E(X)               :      -84.603665203127 Eh       
E(C)               :       -3.288205701369 Eh       
E(XC)              :      -87.891870904496 Eh       

---------------
SCF CONVERGENCE
---------------

  Last Energy change         ...    4.5228e-07  Tolerance :   1.0000e-05
  Last MAX-Density change    ...    9.0444e-04  Tolerance :   1.0000e-03
  Last RMS-Density change    ...    3.2456e-05  Tolerance :   1.0000e-04
  Last DIIS Error            ...    1.0323e-03  Tolerance :   5.0000e-04
  Last Orbital Gradient      ...    1.8585e-04  Tolerance :   1.0000e-04
  Last Orbital Rotation      ...    1.3176e-04  Tolerance :   1.0000e-04


----------------
ORBITAL ENERGIES
----------------

  NO   OCC          E(Eh)            E(eV) 
   0   2.0000     -18.780021      -511.0304 
   1   2.0000     -18.779644      -511.0201 
   2   2.0000     -18.775062      -510.8954 
   3   2.0000     -18.761263      -510.5199 
   4   2.0000     -18.757874      -510.4277 
   5   2.0000     -18.744815      -510.0723 
   6   2.0000      -9.994093      -271.9531 
   7   2.0000      -9.953749      -270.8553 
   8   2.0000      -9.951850      -270.8036 
   9   2.0000      -9.950494      -270.7667 
  10   2.0000      -9.950245      -270.7599 
  11   2.0000      -9.936139      -270.3761 
  12   2.0000      -0.995454       -27.0877 
  13   2.0000      -0.955848       -26.0100 
  14   2.0000      -0.940222       -25.5847 
  15   2.0000      -0.938459       -25.5368 
  16   2.0000      -0.926047       -25.1990 
  17   2.0000      -0.917590       -24.9689 
  18   2.0000      -0.710245       -19.3267 
  19   2.0000      -0.695646       -18.9295 
  20   2.0000      -0.630607       -17.1597 
  21   2.0000      -0.599985       -16.3264 
  22   2.0000      -0.570755       -15.5310 
  23   2.0000      -0.528500       -14.3812 
  24   2.0000      -0.520622       -14.1668 
  25   2.0000      -0.499758       -13.5991 
  26   2.0000      -0.486048       -13.2261 
  27   2.0000      -0.471978       -12.8432 
  28   2.0000      -0.450948       -12.2709 
  29   2.0000      -0.433248       -11.7893 
  30   2.0000      -0.428201       -11.6519 
  31   2.0000      -0.405469       -11.0334 
  32   2.0000      -0.391047       -10.6409 
  33   2.0000      -0.376449       -10.2437 
  34   2.0000      -0.370425       -10.0798 
  35   2.0000      -0.356610        -9.7038 
  36   2.0000      -0.340690        -9.2706 
  37   2.0000      -0.322742        -8.7823 
  38   2.0000      -0.312562        -8.5052 
  39   2.0000      -0.300314        -8.1720 
  40   2.0000      -0.293777        -7.9941 
  41   2.0000      -0.284556        -7.7432 
  42   2.0000      -0.265476        -7.2240 
  43   2.0000      -0.264207        -7.1894 
  44   2.0000      -0.241177        -6.5628 
  45   2.0000      -0.234079        -6.3696 
  46   2.0000      -0.216217        -5.8836 
  47   2.0000      -0.208286        -5.6678 
  48   0.0000       0.005198         0.1414 
  49   0.0000       0.017048         0.4639 
  50   0.0000       0.028380         0.7722 
  51   0.0000       0.054950         1.4953 
  52   0.0000       0.060750         1.6531 
  53   0.0000       0.066819         1.8182 
  54   0.0000       0.079355         2.1593 
  55   0.0000       0.083592         2.2747 
  56   0.0000       0.100719         2.7407 
  57   0.0000       0.105534         2.8717 
  58   0.0000       0.117105         3.1866 
*Only the first 10 virtual orbitals were printed.

                    ********************************
                    * MULLIKEN POPULATION ANALYSIS *
                    ********************************

-----------------------
MULLIKEN ATOMIC CHARGES
-----------------------
   0 C :    0.078897
   1 C :   -0.029319
   2 H :    0.070724
   3 C :    0.037118
   4 H :    0.086530
   5 C :    0.013657
   6 H :    0.088271
   7 C :    0.046354
   8 H :    0.070373
   9 C :    0.164518
  10 H :    0.082924
  11 O :   -0.316892
  12 O :   -0.407273
  13 O :   -0.409967
  14 O :   -0.414026
  15 O :   -0.411295
  16 O :   -0.441515
  17 H :    0.067765
  18 H :    0.086389
  19 H :    0.313808
  20 H :    0.307047
  21 H :    0.311772
  22 H :    0.303026
  23 H :    0.301113
Sum of atomic charges:   -0.0000000

--------------------------------
MULLIKEN REDUCED ORBITAL CHARGES
--------------------------------
  0 C s       :     3.017141  s :     3.017141
      pz      :     0.791728  p :     2.839933
      px      :     1.005449
      py      :     1.042756
      dz2     :     0.019841  d :     0.064029
      dxz     :     0.012602
      dyz     :     0.018623
      dx2y2   :     0.004787
      dxy     :     0.008175

  1 C s       :     3.088847  s :     3.088847
      pz      :     1.071366  p :     2.876579
      px      :     0.898284
      py      :     0.906929
      dz2     :     0.013377  d :     0.063894
      dxz     :     0.008025
      dyz     :     0.009181
      dx2y2   :     0.014783
      dxy     :     0.018529

  2 H s       :     0.929276  s :     0.929276

  3 C s       :     3.062253  s :     3.062253
      pz      :     0.976351  p :     2.834474
      px      :     1.010750
      py      :     0.847373
      dz2     :     0.014459  d :     0.066154
      dxz     :     0.008806
      dyz     :     0.014664
      dx2y2   :     0.015297
      dxy     :     0.012929

  4 H s       :     0.913470  s :     0.913470

  5 C s       :     3.070830  s :     3.070830
      pz      :     0.735183  p :     2.851172
      px      :     1.038576
      py      :     1.077413
      dz2     :     0.019027  d :     0.064341
      dxz     :     0.011615
      dyz     :     0.017313
      dx2y2   :     0.008963
      dxy     :     0.007423

  6 H s       :     0.911729  s :     0.911729

  7 C s       :     3.057708  s :     3.057708
      pz      :     0.822092  p :     2.827745
      px      :     1.008249
      py      :     0.997404
      dz2     :     0.017288  d :     0.068193
      dxz     :     0.018682
      dyz     :     0.014278
      dx2y2   :     0.008599
      dxy     :     0.009346

  8 H s       :     0.929627  s :     0.929627

  9 C s       :     3.031897  s :     3.031897
      pz      :     0.747688  p :     2.702523
      px      :     0.885279
      py      :     1.069555
      dz2     :     0.030621  d :     0.101062
      dxz     :     0.028942
      dyz     :     0.014401
      dx2y2   :     0.009719
      dxy     :     0.017379

 10 H s       :     0.917076  s :     0.917076

 11 O s       :     3.759250  s :     3.759250
      pz      :     1.602502  p :     4.542525
      px      :     1.342016
      py      :     1.598007
      dz2     :     0.002654  d :     0.015116
      dxz     :     0.003305
      dyz     :     0.002337
      dx2y2   :     0.002441
      dxy     :     0.004379

 12 O s       :     3.765691  s :     3.765691
      pz      :     1.352944  p :     4.626422
      px      :     1.777871
      py      :     1.495606
      dz2     :     0.003900  d :     0.015161
      dxz     :     0.001904
      dyz     :     0.003746
      dx2y2   :     0.004114
      dxy     :     0.001496

 13 O s       :     3.777853  s :     3.777853
      pz      :     1.227291  p :     4.616300
      px      :     1.605716
      py      :     1.783293
      dz2     :     0.002466  d :     0.015813
      dxz     :     0.005754
      dyz     :     0.002502
      dx2y2   :     0.001727
      dxy     :     0.003364

 14 O s       :     3.782283  s :     3.782283
      pz      :     1.373793  p :     4.616716
      px      :     1.528041
      py      :     1.714881
      dz2     :     0.005578  d :     0.015027
      dxz     :     0.001975
      dyz     :     0.001686
      dx2y2   :     0.001635
      dxy     :     0.004153

 15 O s       :     3.784004  s :     3.784004
      pz      :     1.769138  p :     4.611712
      px      :     1.256750
      py      :     1.585824
      dz2     :     0.002955  d :     0.015579
      dxz     :     0.000999
      dyz     :     0.003097
      dx2y2   :     0.006688
      dxy     :     0.001841

 16 O s       :     3.787494  s :     3.787494
      pz      :     1.341239  p :     4.638383
      px      :     1.528985
      py      :     1.768158
      dz2     :     0.005703  d :     0.015638
      dxz     :     0.002370
      dyz     :     0.001929
      dx2y2   :     0.002148
      dxy     :     0.003488

 17 H s       :     0.932235  s :     0.932235

 18 H s       :     0.913611  s :     0.913611

 19 H s       :     0.686192  s :     0.686192

 20 H s       :     0.692953  s :     0.692953

 21 H s       :     0.688228  s :     0.688228

 22 H s       :     0.696974  s :     0.696974

 23 H s       :     0.698887  s :     0.698887


------------------------
MULLIKEN OVERLAP CHARGES
------------------------
B(  0-C ,  1-C ) :   0.7116 B(  0-C ,  3-C ) :  -0.0822 B(  0-C ,  4-H ) :  -0.0565 
B(  0-C , 11-O ) :  -0.0851 B(  0-C , 16-O ) :   0.7257 B(  0-C , 17-H ) :   0.6689 
B(  0-C , 18-H ) :   0.6684 B(  0-C , 23-H ) :  -0.0884 B(  1-C ,  2-H ) :   0.5598 
B(  1-C ,  3-C ) :   0.4379 B(  1-C ,  4-H ) :  -0.1008 B(  1-C ,  9-C ) :  -0.1433 
B(  1-C , 11-O ) :   0.4459 B(  1-C , 15-O ) :  -0.0910 B(  1-C , 16-O ) :  -0.1162 
B(  2-H , 11-O ) :  -0.0535 B(  3-C ,  4-H ) :   0.6404 B(  3-C ,  9-C ) :  -0.0758 
B(  3-C , 11-O ) :  -0.0636 B(  3-C , 14-O ) :  -0.1230 B(  3-C , 15-O ) :   0.5728 
B(  3-C , 22-H ) :  -0.0777 B(  4-H ,  5-C ) :  -0.0618 B(  4-H , 16-O ) :   0.0928 
B(  5-C ,  6-H ) :   0.5333 B(  5-C ,  8-H ) :  -0.1148 B(  5-C ,  9-C ) :   0.1825 
B(  5-C , 11-O ) :  -0.0580 B(  5-C , 13-O ) :  -0.1161 B(  5-C , 14-O ) :   0.4501 
B(  5-C , 15-O ) :  -0.0911 B(  5-C , 21-H ) :  -0.0747 B(  7-C ,  8-H ) :   0.6661 
B(  7-C ,  9-C ) :   0.4689 B(  7-C , 10-H ) :  -0.0849 B(  7-C , 12-O ) :  -0.0890 
B(  7-C , 13-O ) :   0.5810 B(  7-C , 20-H ) :  -0.1187 B(  8-H ,  9-C ) :  -0.0519 
B(  9-C , 10-H ) :   0.7284 B(  9-C , 11-O ) :   0.6257 B(  9-C , 12-O ) :   0.6237 
B(  9-C , 19-H ) :  -0.1001 B( 10-H , 11-O ) :  -0.0828 B( 10-H , 12-O ) :  -0.0604 
B( 11-O , 12-O ) :  -0.1348 B( 11-O , 20-H ) :   0.0582 B( 12-O , 19-H ) :   0.5256 
B( 12-O , 23-H ) :   0.0860 B( 13-O , 20-H ) :   0.5489 B( 14-O , 19-H ) :   0.1205 
B( 14-O , 21-H ) :   0.5244 B( 15-O , 22-H ) :   0.5238 B( 16-O , 17-H ) :  -0.0698 
B( 16-O , 18-H ) :  -0.0592 B( 16-O , 23-H ) :   0.5074 B( 17-H , 18-H ) :  -0.0793 



                     *******************************
                     * LOEWDIN POPULATION ANALYSIS *
                     *******************************

----------------------
LOEWDIN ATOMIC CHARGES
----------------------
   0 C :   -0.127311
   1 C :   -0.093321
   2 H :    0.112218
   3 C :   -0.077162
   4 H :    0.113752
   5 C :   -0.074823
   6 H :    0.120698
   7 C :   -0.097106
   8 H :    0.113882
   9 C :   -0.011465
  10 H :    0.111880
  11 O :   -0.148830
  12 O :   -0.297033
  13 O :   -0.307087
  14 O :   -0.311969
  15 O :   -0.312470
  16 O :   -0.336081
  17 H :    0.105048
  18 H :    0.105390
  19 H :    0.277269
  20 H :    0.282773
  21 H :    0.293409
  22 H :    0.286565
  23 H :    0.271773

-------------------------------
LOEWDIN REDUCED ORBITAL CHARGES
-------------------------------
  0 C s       :     2.922325  s :     2.922325
      pz      :     0.884021  p :     3.059268
      px      :     1.075809
      py      :     1.099438
      dz2     :     0.045204  d :     0.145718
      dxz     :     0.026725
      dyz     :     0.040827
      dx2y2   :     0.011736
      dxy     :     0.021225

  1 C s       :     2.910795  s :     2.910795
      pz      :     1.096884  p :     3.033073
      px      :     0.956623
      py      :     0.979566
      dz2     :     0.031135  d :     0.149454
      dxz     :     0.017300
      dyz     :     0.023271
      dx2y2   :     0.033407
      dxy     :     0.044340

  2 H s       :     0.887782  s :     0.887782

  3 C s       :     2.894216  s :     2.894216
      pz      :     1.060293  p :     3.028801
      px      :     1.027539
      py      :     0.940968
      dz2     :     0.032046  d :     0.154145
      dxz     :     0.019991
      dyz     :     0.036511
      dx2y2   :     0.038969
      dxy     :     0.026628

  4 H s       :     0.886248  s :     0.886248

  5 C s       :     2.907695  s :     2.907695
      pz      :     0.868927  p :     3.017007
      px      :     1.072445
      py      :     1.075635
      dz2     :     0.045790  d :     0.150122
      dxz     :     0.022962
      dyz     :     0.038329
      dx2y2   :     0.021646
      dxy     :     0.021395

  6 H s       :     0.879302  s :     0.879302

  7 C s       :     2.897925  s :     2.897925
      pz      :     0.906052  p :     3.037861
      px      :     1.058268
      py      :     1.073540
      dz2     :     0.041316  d :     0.161320
      dxz     :     0.042799
      dyz     :     0.030801
      dx2y2   :     0.019003
      dxy     :     0.027401

  8 H s       :     0.886118  s :     0.886118

  9 C s       :     2.884020  s :     2.884020
      pz      :     0.854656  p :     2.899537
      px      :     0.947843
      py      :     1.097037
      dz2     :     0.072291  d :     0.227908
      dxz     :     0.066606
      dyz     :     0.027472
      dx2y2   :     0.020491
      dxy     :     0.041048

 10 H s       :     0.888120  s :     0.888120

 11 O s       :     3.473189  s :     3.473189
      pz      :     1.636453  p :     4.646033
      px      :     1.382708
      py      :     1.626872
      dz2     :     0.004676  d :     0.029608
      dxz     :     0.007437
      dyz     :     0.003384
      dx2y2   :     0.005127
      dxy     :     0.008985

 12 O s       :     3.520694  s :     3.520694
      pz      :     1.424064  p :     4.749513
      px      :     1.779179
      py      :     1.546270
      dz2     :     0.008240  d :     0.026826
      dxz     :     0.003598
      dyz     :     0.006835
      dx2y2   :     0.006092
      dxy     :     0.002062

 13 O s       :     3.526574  s :     3.526574
      pz      :     1.306836  p :     4.752816
      px      :     1.654329
      py      :     1.791651
      dz2     :     0.005844  d :     0.027697
      dxz     :     0.010512
      dyz     :     0.004798
      dx2y2   :     0.001984
      dxy     :     0.004561

 14 O s       :     3.537509  s :     3.537509
      pz      :     1.446067  p :     4.747895
      px      :     1.572931
      py      :     1.728896
      dz2     :     0.010575  d :     0.026566
      dxz     :     0.003494
      dyz     :     0.003295
      dx2y2   :     0.002427
      dxy     :     0.006776

 15 O s       :     3.539648  s :     3.539648
      pz      :     1.792538  p :     4.745501
      px      :     1.331347
      py      :     1.621616
      dz2     :     0.004674  d :     0.027321
      dxz     :     0.001952
      dyz     :     0.005062
      dx2y2   :     0.011924
      dxy     :     0.003709

 16 O s       :     3.535219  s :     3.535219
      pz      :     1.418593  p :     4.773871
      px      :     1.572115
      py      :     1.783163
      dz2     :     0.011247  d :     0.026991
      dxz     :     0.004057
      dyz     :     0.003224
      dx2y2   :     0.003153
      dxy     :     0.005309

 17 H s       :     0.894952  s :     0.894952

 18 H s       :     0.894610  s :     0.894610

 19 H s       :     0.722731  s :     0.722731

 20 H s       :     0.717227  s :     0.717227

 21 H s       :     0.706591  s :     0.706591

 22 H s       :     0.713435  s :     0.713435

 23 H s       :     0.728227  s :     0.728227


---------------------------------
LOEWDIN BOND ORDERS (THRESH 0.050000)
---------------------------------
B(  0-C ,  1-C ) :   1.0618 B(  0-C ,  3-C ) :   0.0587 B(  0-C , 11-O ) :   0.0690 
B(  0-C , 16-O ) :   1.2549 B(  0-C , 17-H ) :   0.9070 B(  0-C , 18-H ) :   0.9029 
B(  1-C ,  2-H ) :   0.8728 B(  1-C ,  3-C ) :   1.0159 B(  1-C ,  9-C ) :   0.0611 
B(  1-C , 11-O ) :   1.1147 B(  1-C , 15-O ) :   0.0911 B(  1-C , 16-O ) :   0.0769 
B(  3-C ,  4-H ) :   0.8532 B(  3-C ,  5-C ) :   1.0232 B(  3-C , 14-O ) :   0.0651 
B(  3-C , 15-O ) :   1.2069 B(  5-C ,  6-H ) :   0.8685 B(  5-C ,  7-C ) :   1.0111 
B(  5-C ,  9-C ) :   0.0595 B(  5-C , 13-O ) :   0.0854 B(  5-C , 14-O ) :   1.1798 
B(  5-C , 15-O ) :   0.0657 B(  7-C ,  8-H ) :   0.8711 B(  7-C ,  9-C ) :   1.0213 
B(  7-C , 11-O ) :   0.0684 B(  7-C , 12-O ) :   0.0681 B(  7-C , 13-O ) :   1.2426 
B(  7-C , 14-O ) :   0.0825 B(  9-C , 10-H ) :   0.8847 B(  9-C , 11-O ) :   1.1764 
B(  9-C , 12-O ) :   1.2717 B(  9-C , 13-O ) :   0.0792 B( 11-O , 12-O ) :   0.0914 
B( 12-O , 19-H ) :   0.8387 B( 12-O , 23-H ) :   0.0731 B( 13-O , 20-H ) :   0.8687 
B( 14-O , 19-H ) :   0.0783 B( 14-O , 21-H ) :   0.8788 B( 15-O , 22-H ) :   0.8832 
B( 16-O , 23-H ) :   0.8513 

------------------------------------------
LOEWDIN REDUCED ORBITAL POPULATIONS PER MO
-------------------------------------------
THRESHOLD FOR PRINTING IS 0.1%%
                      0         1         2         3         4         5   
                 -18.78002 -18.77964 -18.77506 -18.76126 -18.75787 -18.74481
                   2.00000   2.00000   2.00000   2.00000   2.00000   2.00000
                  --------  --------  --------  --------  --------  --------
11 O  s              99.2       0.7       0.0       0.0       0.0       0.0
12 O  s               0.0       0.0      99.9       0.0       0.0       0.0
13 O  s               0.0       0.0       0.0       0.0      99.9       0.0
14 O  s               0.7      99.3       0.0       0.0       0.0       0.0
15 O  s               0.0       0.0       0.0      99.9       0.0       0.0
16 O  s               0.0       0.0       0.0       0.0       0.0      99.9

                      6         7         8         9        10        11   
                  -9.99409  -9.95375  -9.95185  -9.95049  -9.95024  -9.93614
                   2.00000   2.00000   2.00000   2.00000   2.00000   2.00000
                  --------  --------  --------  --------  --------  --------
 0 C  s               0.0       0.0       0.0       0.0       0.0      99.6
 1 C  s               0.0       0.0       0.0       0.7      98.9       0.0
 3 C  s               0.0       0.0      99.5       0.0       0.0       0.0
 5 C  s               0.0      99.5       0.0       0.0       0.0       0.0
 7 C  s               0.0       0.0       0.0      98.9       0.7       0.0
 9 C  s              99.6       0.0       0.0       0.0       0.0       0.0
12 O  pz              0.1       0.0       0.0       0.0       0.0       0.0
13 O  pz              0.0       0.0       0.0       0.1       0.0       0.0
14 O  pz              0.0       0.1       0.0       0.0       0.0       0.0
16 O  pz              0.0       0.0       0.0       0.0       0.0       0.1

                     12        13        14        15        16        17   
                  -0.99545  -0.95585  -0.94022  -0.93846  -0.92605  -0.91759
                   2.00000   2.00000   2.00000   2.00000   2.00000   2.00000
                  --------  --------  --------  --------  --------  --------
 0 C  s               0.6       0.1       0.9       0.3       6.4       3.2
 0 C  pz              0.0       0.0       0.2       0.2       3.8       4.7
 0 C  px              0.5       0.0       0.2       0.0       0.3       0.1
 0 C  py              0.0       0.0       0.0       0.0       0.1       0.2
 0 C  dz2             0.0       0.0       0.0       0.0       0.4       0.4
 1 C  s               4.2       0.1       2.1       0.1       1.8       1.3
 1 C  pz              0.2       0.0       0.1       0.1       0.2       0.2
 1 C  px              2.1       0.2       0.0       0.1       0.1       3.1
 1 C  py              1.2       1.0       0.2       0.1       1.8       0.7
 1 C  dxy             0.2       0.0       0.0       0.0       0.0       0.3
 2 H  s               0.5       0.0       0.5       0.0       0.2       0.2
 3 C  s               1.1       2.4       6.3       1.1       0.5       0.0
 3 C  pz              0.0       0.0       2.1       0.2       0.2       0.0
 3 C  px              0.1       0.2       2.0       0.5       0.3       0.1
 3 C  py              0.2       1.4       1.9       0.5       1.6       0.1
 3 C  dyz             0.0       0.0       0.2       0.0       0.1       0.0
 3 C  dxy             0.0       0.0       0.2       0.0       0.1       0.0
 4 H  s               0.2       0.5       0.7       0.2       0.0       0.1
 5 C  s               1.4       9.2       0.1       0.1       0.1       0.0
 5 C  pz              0.1       6.0       1.8       0.2       0.7       0.2
 5 C  px              0.0       0.0       0.9       1.0       0.0       0.0
 5 C  py              0.4       0.4       0.0       0.2       0.1       0.1
 5 C  dz2             0.0       0.5       0.1       0.0       0.1       0.0
 6 H  s               0.2       1.3       0.0       0.0       0.0       0.0
 7 C  s               3.4       0.6       0.1       6.8       0.5       0.9
 7 C  pz              0.1       0.1       1.0       7.7       0.2       0.7
 7 C  px              0.7       0.1       0.1       0.5       0.0       0.3
 7 C  py              0.7       1.1       0.0       0.0       0.1       0.0
 7 C  dz2             0.0       0.0       0.0       0.6       0.0       0.1
 7 C  dxz             0.0       0.0       0.0       0.1       0.0       0.0
 8 H  s               0.4       0.2       0.0       0.7       0.1       0.1
 9 C  s              14.7       0.8       0.4       0.1       0.6       0.0
 9 C  pz              0.0       0.0       3.3       2.7       3.9       5.3
 9 C  px              3.4       0.6       0.0       0.6       0.2       1.1
 9 C  py              0.1       0.2       0.0       0.6       0.1       0.2
 9 C  dz2             0.3       0.0       0.1       0.1       0.1       0.1
 9 C  dxz             0.0       0.0       0.1       0.0       0.3       0.5
10 H  s               1.7       0.1       0.0       0.0       0.1       0.0
11 O  s              25.0       3.5       2.2       0.1       5.8      18.6
11 O  pz              1.0       0.1       0.0       0.0       0.0       0.1
11 O  px              0.1       0.0       0.1       0.0       0.2       0.0
11 O  py              0.9       0.1       0.2       0.0       0.2       0.5
12 O  s              18.6       1.0      10.4       6.8      12.8       9.9
12 O  pz              1.2       0.1       0.1       0.1       0.1       0.0
12 O  py              0.6       0.0       0.4       0.2       0.5       0.4
13 O  s               3.0       0.5       2.0      43.0       2.3       6.8
13 O  pz              0.1       0.0       0.0       0.5       0.0       0.1
13 O  px              0.2       0.0       0.1       1.8       0.1       0.2
13 O  py              0.0       0.0       0.0       0.4       0.0       0.0
14 O  s               2.0      47.0       6.0       0.0       3.3       0.9
14 O  pz              0.1       1.5       0.1       0.0       0.1       0.0
14 O  px              0.0       1.0       0.2       0.0       0.1       0.0
15 O  s               0.5       5.9      35.9       7.2       8.2       0.3
15 O  pz              0.0       0.1       0.5       0.1       0.1       0.0
15 O  px              0.0       0.0       0.4       0.1       0.1       0.0
15 O  py              0.1       0.3       1.3       0.2       0.2       0.0
16 O  s               0.6       0.1       1.9       1.5      27.8      26.3
16 O  pz              0.0       0.0       0.1       0.1       1.1       0.7
16 O  px              0.0       0.0       0.0       0.0       0.7       0.7
17 H  s               0.1       0.0       0.1       0.0       0.7       0.4
18 H  s               0.1       0.0       0.1       0.0       0.8       0.3
19 H  s               4.1       0.1       2.3       1.3       2.2       2.0
20 H  s               1.0       0.1       0.5       8.7       0.4       1.1
21 H  s               0.4       9.5       1.2       0.0       0.7       0.2
22 H  s               0.1       1.2       7.4       1.5       1.7       0.1
23 H  s               0.5       0.1       0.2       0.5       4.9       5.6

                     18        19        20        21        22        23   
                  -0.71024  -0.69565  -0.63061  -0.59998  -0.57076  -0.52850
                   2.00000   2.00000   2.00000   2.00000   2.00000   2.00000
                  --------  --------  --------  --------  --------  --------
 0 C  s               2.9       3.4      13.4       1.3       9.2       0.3
 0 C  pz              1.1       1.4       1.7       0.0       0.2       0.7
 0 C  px              0.8       0.8       0.1       0.3       3.1       1.3
 0 C  py              1.0       0.3       0.3       0.5       0.7       0.3
 1 C  s              12.1       8.1       1.8       0.1       4.4       1.4
 1 C  pz              0.5       0.2       0.1       1.5       0.0       2.6
 1 C  px              0.3       0.7       5.9       1.8       1.2       0.0
 1 C  py              1.7       0.8       0.5       4.0       4.8       0.9
 1 C  dxy             0.1       0.0       0.1       0.2       0.0       0.0
 2 H  s               2.4       2.0       0.6       0.1       1.7       1.7
 3 C  s              13.5       0.2       3.1       6.4       2.0       0.9
 3 C  pz              0.0       0.5       0.7       0.3       1.2       3.1
 3 C  px              2.0       2.5       2.0       0.3       2.0       1.0
 3 C  py              2.9       1.2       0.8       0.1       4.2       1.0
 3 C  dyz             0.1       0.0       0.0       0.0       0.0       0.0
 3 C  dxy             0.1       0.0       0.0       0.0       0.0       0.0
 4 H  s               2.6       0.0       0.9       2.3       0.4       3.0
 5 C  s               9.2       7.4       1.7       0.9       6.4       2.6
 5 C  pz              1.0       0.7       0.0       0.2       0.2       2.0
 5 C  px              1.5       0.3       4.6       6.3       0.0       0.8
 5 C  py              1.3       1.4       0.6       0.3       1.6       4.2
 5 C  dz2             0.1       0.1       0.0       0.0       0.0       0.0
 5 C  dxy             0.0       0.0       0.1       0.1       0.0       0.0
 6 H  s               1.5       1.3       0.6       0.4       2.8       4.5
 7 C  s               1.6      11.3       7.0       5.4       1.3       0.3
 7 C  pz              0.3       2.1       1.1       0.5       0.1       0.0
 7 C  px              0.9       1.5       0.4       0.3       0.6       0.1
 7 C  py              1.6       0.1       1.4       4.0       2.4       2.2
 7 C  dz2             0.0       0.2       0.0       0.0       0.0       0.0
 8 H  s               0.3       2.3       2.9       2.7       0.8       0.0
 9 C  s               1.3       8.3       4.2       6.8       0.5       0.4
 9 C  pz              0.6       1.3       0.1       0.1       0.1       8.1
 9 C  px              0.3       1.0       3.1       0.1       1.5       0.1
 9 C  py              1.9       1.2       0.6       4.3       1.0       5.2
 9 C  dxz             0.1       0.0       0.0       0.0       0.0       0.2
10 H  s               0.5       1.9       1.5       3.8       0.1       0.9
11 O  s               2.4       0.1       1.4       1.2       1.4       0.1
11 O  pz              0.5       1.3       0.1       2.8       0.1       0.2
11 O  px              3.4       7.1       0.0       7.6       0.4       4.6
11 O  py              1.1       0.3       0.0       1.0       1.8       0.1
12 O  s               0.0       2.9       0.6       0.4       0.2       0.2
12 O  pz              0.3       1.8       1.7       5.7       0.3      12.6
12 O  px              0.0       0.3       1.1       0.7       0.1       2.5
12 O  py              0.2       0.2       0.2       2.5       0.0      11.1
12 O  dz2             0.0       0.0       0.0       0.1       0.0       0.1
13 O  s               0.4       4.0       1.0       0.4       0.2       0.1
13 O  pz              0.3       2.9       3.5       4.2       1.5       0.2
13 O  px              0.0       0.1       0.2       0.2       0.1       0.0
13 O  py              0.1       0.1       0.0       0.8       0.0       0.4
14 O  s               2.4       2.0       0.1       0.4       0.5       0.4
14 O  pz              1.8       1.7       0.9       0.3       6.9       1.3
14 O  px              1.1       0.4       1.4       0.1       2.9       0.4
14 O  py              0.8       0.6       0.2       0.3       1.4       1.3
14 O  dz2             0.0       0.0       0.0       0.0       0.1       0.0
15 O  s               4.2       0.0       0.2       1.2       0.4       0.1
15 O  pz              0.3       0.0       0.4       0.7       0.0       0.2
15 O  px              2.8       0.2       2.3       2.9       0.1       0.9
15 O  py              1.0       0.0       0.2       1.6       1.3       0.0
16 O  s               1.4       1.4       1.9       0.2       0.9       0.1
16 O  pz              0.4       0.5       3.9       0.7       5.7       1.0
16 O  px              0.1       0.1       1.3       0.4       2.9       0.9
16 O  py              0.2       0.1       0.6       0.3       0.5       0.8
16 O  dz2             0.0       0.0       0.1       0.0       0.1       0.0
17 H  s               0.6       0.7       4.7       0.8       4.2       0.7
18 H  s               0.5       0.8       3.4       0.1       4.0       0.0
19 H  s               0.1       1.2       0.9       2.4       0.2       8.0
20 H  s               0.2       1.8       1.3       1.5       0.4       0.0
21 H  s               1.8       1.3       0.7       0.1       3.2       0.0
22 H  s               2.3       0.0       1.0       1.7       0.2       0.2
23 H  s               0.5       0.4       2.3       0.5       2.5       0.8

                     24        25        26        27        28        29   
                  -0.52062  -0.49976  -0.48605  -0.47198  -0.45095  -0.43325
                   2.00000   2.00000   2.00000   2.00000   2.00000   2.00000
                  --------  --------  --------  --------  --------  --------
 0 C  s               0.5       0.1       0.0       0.1       1.6       0.1
 0 C  pz              0.1       0.1       1.0       5.0      11.0       0.4
 0 C  px              1.1       1.5       0.0       0.4       3.7       0.8
 0 C  py              0.2       0.0       1.8       1.6       5.0       1.8
 0 C  dz2             0.0       0.0       0.0       0.1       0.4       0.0
 1 C  s               1.2       0.0       0.0       1.5       0.6       0.1
 1 C  pz              0.0       2.3       7.9       2.5       3.5       1.2
 1 C  px              0.0       0.6       0.0       7.3       2.3       1.2
 1 C  py              0.0       1.3       1.9       3.7       5.2       0.0
 1 C  dz2             0.0       0.0       0.0       0.1       0.1       0.0
 1 C  dxy             0.0       0.0       0.0       0.2       0.1       0.0
 2 H  s               0.5       1.1       1.7       4.5       2.9       0.5
 3 C  s               1.1       0.8       0.1       0.4       0.1       0.2
 3 C  pz              1.6       7.7       0.3       1.7       1.5       0.1
 3 C  px              0.1       2.2       0.1       0.3       0.1       7.7
 3 C  py              4.1       0.0       8.0       0.9       1.0       0.1
 3 C  dyz             0.1       0.0       0.1       0.1       0.1       0.1
 4 H  s               0.0       4.6       0.4       0.5       0.2       0.8
 5 C  s               0.2       0.5       0.7       0.8       0.0       0.0
 5 C  pz              6.5       5.2       3.1       0.1       0.6       0.4
 5 C  px              0.0       0.6       2.5       1.2       0.1       9.0
 5 C  py              2.1       0.3       0.3       1.7       0.9       0.0
 5 C  dz2             0.1       0.1       0.1       0.1       0.1       0.0
 6 H  s               1.5       1.1       0.9       1.3       0.1       0.1
 7 C  s               0.4       0.1       0.1       0.1       0.2       0.5
 7 C  pz              2.1       0.9       1.0       1.0       0.2      16.0
 7 C  px              3.1      13.5       1.4       0.0       1.5       2.1
 7 C  py              1.5       0.4       8.5       0.5       0.2       2.9
 7 C  dz2             0.0       0.2       0.0       0.0       0.0       0.1
 7 C  dxz             0.0       0.1       0.0       0.0       0.0       0.3
 8 H  s               0.6       1.8       0.6       0.3       0.1       8.1
 9 C  s               0.8       0.1       0.6       0.1       0.0       0.2
 9 C  pz              0.8       0.6       0.3       7.6       0.0       0.1
 9 C  px              0.4       0.0      11.6       0.0       0.9       0.1
 9 C  py              0.9       4.3       0.2       4.6       2.3       0.6
 9 C  dyz             0.0       0.0       0.0       0.1       0.0       0.2
10 H  s               0.1       0.2       2.4       2.0       0.8       0.0
11 O  s               1.2       0.5       0.3       0.0       0.4       1.3
11 O  pz              0.0       0.5       7.2       0.2       3.4       0.0
11 O  px              0.6       1.5       0.7      11.8       0.3       0.0
11 O  py              1.1       2.4       0.0       3.0       0.3       3.8
12 O  s               0.9       0.0       0.0       0.3       0.5       0.0
12 O  pz              2.5       0.6       2.2       7.0       0.4       0.4
12 O  px              0.5       0.0       1.1       2.4       1.3       0.0
12 O  py              0.0       2.0       1.0       0.1       0.6       0.1
13 O  s               0.0       1.0       0.1       0.1       0.0       0.1
13 O  pz              8.9      10.7       0.2       0.5       0.7      17.0
13 O  px              1.0       5.7       0.0       0.0       0.4       0.0
13 O  py              1.4       1.4       2.2       0.0       0.1       0.2
13 O  dxz             0.0       0.0       0.0       0.0       0.0       0.2
14 O  s               0.1       0.2       0.4       0.0       0.0       1.7
14 O  pz              4.8       2.1       0.7       2.0       2.1       1.6
14 O  px              4.5       5.3       3.8       0.1       0.7       5.1
14 O  py              5.2       1.5       1.5       0.1       0.2       0.3
15 O  s               0.0       0.2       0.3       0.2       0.2       0.1
15 O  pz              1.1       1.0       0.6       0.9       0.7       1.5
15 O  px             15.5       0.8      10.7       1.1       0.8       0.8
15 O  py              2.2       0.0       0.6       0.1       0.1       2.7
15 O  dx2y2           0.1       0.0       0.0       0.0       0.0       0.0
16 O  s               0.0       0.2       0.1       0.0       2.3       0.0
16 O  pz              0.8       0.2       0.3       5.7       2.9       0.0
16 O  px              0.8       1.0       0.0       4.1      13.2       0.1
16 O  py              0.1       0.0       0.8       1.0       6.0       0.8
17 H  s               0.4       0.2       0.0       0.3       0.1       0.0
18 H  s               0.3       0.0       0.9       0.0       7.6       1.1
19 H  s               0.4       0.4       0.8       1.6       0.0       0.1
20 H  s               3.2       4.6       0.3       0.1       0.2       3.9
21 H  s               4.0       2.3       1.6       0.4       0.7       0.1
22 H  s               5.3       0.1       3.4       0.3       0.2       0.6
23 H  s               0.3       0.3       0.1       3.4       5.5       0.0

                     30        31        32        33        34        35   
                  -0.42820  -0.40547  -0.39105  -0.37645  -0.37042  -0.35661
                   2.00000   2.00000   2.00000   2.00000   2.00000   2.00000
                  --------  --------  --------  --------  --------  --------
 0 C  s               0.0       0.2       0.1       0.0       0.0       0.3
 0 C  pz              0.2       4.0       1.4       0.5       0.2       0.6
 0 C  px              1.2      15.0       3.0       3.6       0.0       3.8
 0 C  py              0.0       0.8      13.6       3.1      15.0       1.9
 0 C  dz2             0.0       0.0       0.1       0.0       0.0       0.3
 0 C  dxz             0.0       0.0       0.0       0.0       0.0       0.1
 0 C  dx2y2           0.0       0.1       0.1       0.0       0.2       0.0
 0 C  dxy             0.0       0.1       0.1       0.0       0.0       0.1
 1 C  s               0.0       1.1       0.0       0.0       0.0       0.2
 1 C  pz              0.8       7.6       0.4       0.3       0.3       9.6
 1 C  px              0.1       1.0       0.7       3.1       1.4       3.1
 1 C  py              2.3       0.6       0.9       2.9       1.1       0.1
 1 C  dz2             0.0       0.0       0.0       0.0       0.0       0.4
 1 C  dxz             0.0       0.0       0.0       0.1       0.0       0.0
 1 C  dyz             0.0       0.1       0.0       0.0       0.0       0.1
 1 C  dx2y2           0.0       0.0       0.2       0.0       0.1       0.0
 1 C  dxy             0.0       0.0       0.2       0.0       0.0       0.0
 2 H  s               0.8       1.3       0.0       0.0       0.1       8.2
 3 C  s               0.7       1.5       0.5       0.5       0.3       0.0
 3 C  pz              8.5       3.5       2.4       0.5       0.0       2.2
 3 C  px              0.4       0.0       2.5       3.8       8.6       0.1
 3 C  py              0.3       0.0       2.0       2.5       0.1       0.8
 3 C  dxz             0.2       0.0       0.0       0.0       0.0       0.0
 3 C  dyz             0.0       0.0       0.0       0.1       0.0       0.0
 3 C  dx2y2           0.1       0.3       0.0       0.0       0.0       0.1
 4 H  s               4.1       3.6       1.1       0.4       0.8       1.4
 5 C  s               1.1       0.0       0.0       0.0       0.1       0.1
 5 C  pz              4.6       0.3       0.0       0.0       1.9       1.1
 5 C  px              0.8       0.0       0.0       3.1       3.4       0.1
 5 C  py              3.4       6.1       9.1       4.1       3.0       0.4
 5 C  dz2             0.2       0.1       0.0       0.0       0.1       0.0
 5 C  dyz             0.0       0.0       0.0       0.0       0.1       0.1
 5 C  dx2y2           0.0       0.1       0.1       0.0       0.0       0.0
 5 C  dxy             0.1       0.0       0.0       0.2       0.0       0.0
 6 H  s               4.8       1.6       2.5       1.1       0.1       1.3
 7 C  s               0.1       0.1       0.0       0.5       0.0       0.2
 7 C  pz              0.2       0.4       0.2       4.4       1.0       0.1
 7 C  px              0.0       0.1       0.0      13.2       0.3       0.0
 7 C  py              1.5       3.4       3.4       1.3       0.4       0.3
 7 C  dyz             0.0       0.0       0.0       0.0       0.0       0.1
 7 C  dx2y2           0.1       0.0       0.0       0.1       0.1       0.0
 7 C  dxy             0.0       0.0       0.1       0.1       0.0       0.0
 8 H  s               0.1       0.4       0.1       7.3       0.6       0.0
 9 C  s               0.4       0.5       0.2       0.0       0.0       0.6
 9 C  pz              0.5       0.7       0.3       0.1       0.1       0.5
 9 C  px             12.8       0.1       0.9       0.2       0.1       1.7
 9 C  py              1.5       0.8       8.3       0.2       1.1       0.4
 9 C  dyz             0.0       0.0       0.0       0.1       0.1       0.4
 9 C  dx2y2           0.1       0.0       0.0       0.2       0.0       0.0
10 H  s               6.4       0.1       4.0       0.1       0.7       0.5
11 O  s               0.1       1.4       0.0       0.2       0.2       0.0
11 O  pz              4.5       6.3       0.0       2.3       0.2       0.0
11 O  px              1.3       0.2       0.0       0.3       0.7       1.5
11 O  py              0.1       1.0       2.9       2.2       2.7       4.2
12 O  s               0.2       0.2       0.1       0.2       0.6       3.4
12 O  pz              5.3       0.3       2.7       0.0       0.0       6.9
12 O  px              1.0       0.4       0.1       0.3       0.0       0.3
12 O  py              0.0       2.5       1.6       1.3       0.5      19.4
13 O  s               0.5       0.0       0.1       1.5       0.5       0.8
13 O  pz              0.1       0.2       0.4       3.4       1.2       0.2
13 O  px              0.5       0.2       0.0      13.7       1.4       2.2
13 O  py              0.8       0.7       0.8       0.3       0.7       2.7
14 O  s               0.9       0.0       0.4       0.5       0.9       0.0
14 O  pz              1.0       3.2       2.5       0.7      12.3       2.8
14 O  px              1.1       0.5       0.1       0.1       1.1       0.4
14 O  py              6.8       0.2       4.7       2.7       1.9       0.1
15 O  s               0.5       1.2       0.1       0.0       2.0       0.3
15 O  pz              0.5       1.2       2.7       2.8       3.5       0.7
15 O  px              6.8       3.1       0.1       0.9       2.3       0.8
15 O  py              2.9       0.4       0.0       1.2       8.6       0.1
16 O  s               0.1       0.6       0.6       0.0       0.2       0.2
16 O  pz              0.2       6.6       8.7       0.2       3.1       1.9
16 O  px              0.1       1.4       0.0       0.3       0.3       0.5
16 O  py              0.3       1.8       1.7       2.5       3.8       0.0
17 H  s               0.4       5.0       7.0       0.4       3.3       5.7
18 H  s               0.0       2.8       2.6       2.3       4.9       0.0
19 H  s               0.3       0.5       0.3       0.1       0.6       1.2
20 H  s               0.2       0.2       0.0       0.0       0.0       0.3
21 H  s               2.0       0.4       0.0       0.2       0.1       0.1
22 H  s               2.4       0.7       0.0       0.6       0.1       0.2
23 H  s               0.1       0.6       0.4       0.1       0.1       1.3

                     36        37        38        39        40        41   
                  -0.34069  -0.32274  -0.31256  -0.30031  -0.29378  -0.28456
                   2.00000   2.00000   2.00000   2.00000   2.00000   2.00000
                  --------  --------  --------  --------  --------  --------
 0 C  s               0.0       0.0       0.0       0.2       0.4       0.0
 0 C  pz              0.9       0.0       0.1       0.7       0.4       1.7
 0 C  px              1.7       0.1       0.1       0.2       0.4       3.7
 0 C  py              0.0       0.0       0.4       2.0       0.1       0.3
 0 C  dz2             0.1       0.0       0.0       0.0       0.0       0.0
[...]
 3 C  dxy             0.1       0.1       0.7       3.7       0.0       0.2
 5 C  s               1.6       0.0       0.0       0.2       0.4       0.1
 5 C  pz              2.0       0.0       0.0       0.5       1.0       0.0
 5 C  px              0.0       0.0       0.0       0.2       0.0       0.0
 5 C  py              0.1       0.0       0.0       0.0       0.2       0.1
 5 C  dz2             6.8       0.0       0.1       2.0       2.4       0.0
 5 C  dxz             0.0       0.0       0.0       0.0       0.2       0.0
 5 C  dyz             1.7       0.0       0.0       0.1       0.0       0.0
 5 C  dx2y2           0.0       0.0       0.0       0.5       0.0       0.0
 7 C  s               0.3       0.0       0.1       0.0       1.9       0.1
 7 C  pz              0.2       0.0       0.0       0.0       2.7       0.1
 7 C  px              0.1       0.0       0.0       0.0       0.4       0.1
 7 C  dz2             1.0       0.0       0.2       0.1       7.6       0.1
 7 C  dxz             1.2       0.0       0.3       0.1       1.7       0.1
 7 C  dyz             0.0       0.1       0.9       0.3       0.1       0.1
 8 H  s               0.0       0.0       0.0       0.0       0.1       0.0
 9 C  s               0.0       0.0       2.7       0.2       0.3       0.7
 9 C  pz              0.2       0.1       1.9       0.5       0.0       1.9
 9 C  px              0.1       0.0       0.6       0.0       0.2       1.0
 9 C  dz2             0.0       0.0       7.1       1.5       1.1       0.1
 9 C  dxz             0.8       0.4       1.1       0.4       0.4       5.8
 9 C  dyz             0.7       0.1       0.8       0.0       0.6       0.0
 9 C  dx2y2           0.0       0.0       0.4       0.0       0.1       1.2
10 H  s               0.0       0.0       0.1       0.0       0.0       0.0
11 O  s               0.8       0.4       0.2       0.0       0.0       0.0
11 O  pz              0.1       0.1       0.0       0.1       0.0       1.1
11 O  px              0.0       0.0       0.6       0.1       0.2       4.6
11 O  py              0.1       0.0       0.1       0.0       0.0       0.4
11 O  dz2             0.3       0.0       0.2       1.3       0.1      10.5
11 O  dxz             3.5       0.6       0.0       0.2       1.9      18.3
11 O  dyz             0.1       0.0       0.2       0.2       0.0       1.1
11 O  dx2y2           0.8       1.1       0.1       1.2       1.5       2.4
11 O  dxy             0.9       0.1       9.2       0.9       0.1      25.4
12 O  s               0.0       0.0       2.8       0.2       0.2       0.2
12 O  pz              0.1       0.1       3.1       0.4       0.1       0.4
12 O  px              0.0       0.0       0.4       0.2       0.1       0.0
12 O  py              0.0       0.0       0.1       0.1       0.0       0.0
12 O  dz2             1.1       1.0      34.6       5.0       0.6       3.8
12 O  dxz             0.0       0.0      10.6       2.1       2.0       0.4
12 O  dyz             0.3       0.0       1.5       0.5       1.1       0.2
12 O  dx2y2           0.1       0.0       1.3       0.5       0.0       0.0
12 O  dxy             0.1       0.0       0.1       0.3       0.3       0.0
13 O  s               0.2       0.0       0.2       0.0       4.1       0.2
13 O  pz              0.5       0.0       0.1       0.1       3.3       0.0
13 O  dz2             7.0       0.0       1.7       0.3      30.2       0.3
13 O  dxz             1.0       0.0       0.4       0.3      16.3       0.2
13 O  dyz             0.6       0.1       0.7       0.6       0.1       0.2
13 O  dx2y2           0.0       0.0       0.0       0.0       0.4       0.0
13 O  dxy             0.0       0.0       0.1       0.0       0.0       0.3
14 O  s               2.9       0.0       0.1       0.4       1.5       0.1
14 O  pz              2.5       0.0       0.0       0.5       0.8       0.0
14 O  px              0.3       0.0       0.0       0.1       0.0       0.0
14 O  py              0.2       0.0       0.0       0.2       0.2       0.0
14 O  dz2            37.3       0.0       0.3       7.0       7.7       0.1
14 O  dxz             0.6       0.0       0.0       0.1       0.0       0.0
14 O  dyz             4.0       0.0       0.1       1.0       3.7       0.4
14 O  dx2y2           0.1       0.0       0.0       0.2       0.2       0.0
15 O  s               0.8       0.4       0.5       2.8       0.0       0.7
15 O  pz              0.1       0.0       0.1       0.4       0.0       0.0
15 O  px              0.2       0.1       0.3       1.5       0.0       0.1
15 O  py              0.2       0.2       0.2       1.3       0.0       0.3
15 O  dz2             0.2       0.3       0.0       0.3       0.0       0.6
15 O  dxz             1.5       0.4       1.1       4.7       0.0       0.2
15 O  dyz             3.1       1.9       3.1      15.9       0.0       1.3
15 O  dx2y2           1.6       1.3       0.9       6.7       0.0       1.3
15 O  dxy             2.2       1.5       2.4      13.7       0.0       1.2
16 O  s               0.1       3.6       0.0       0.1       0.0       0.1
16 O  pz              0.1       3.6       0.0       0.2       0.0       0.0
16 O  px              0.0       0.3       0.0       0.1       0.0       0.0
16 O  py              0.0       0.3       0.0       0.0       0.0       0.0
16 O  dz2             2.1      58.8       0.0       4.4       0.0       0.0
16 O  dyz             0.0       4.1       0.0       0.1       0.0       0.1
16 O  dx2y2           0.1       0.2       0.0       0.0       0.0       0.1
16 O  dxy             0.0       0.4       0.0       0.1       0.0       0.0
19 H  s               0.1       0.0       0.6       0.2       0.0       0.0
20 H  s               0.1       0.0       0.0       0.0       0.5       0.0
21 H  s               0.4       0.0       0.0       0.1       0.1       0.0
22 H  s               0.1       0.1       0.1       0.5       0.0       0.0
23 H  s               0.0       0.8       0.0       0.1       0.0       0.0



                      *****************************
                      * MAYER POPULATION ANALYSIS *
                      *****************************

  NA   - Mulliken gross atomic population
  ZA   - Total nuclear charge
  QA   - Mulliken gross atomic charge
  VA   - Mayer's total valence
  BVA  - Mayer's bonded valence
  FA   - Mayer's free valence

  ATOM       NA         ZA         QA         VA         BVA        FA
  0 C      5.9211     6.0000     0.0789     3.9793     3.9793    -0.0000
  1 C      6.0293     6.0000    -0.0293     4.0072     4.0072    -0.0000
  2 H      0.9293     1.0000     0.0707     0.9756     0.9756     0.0000
  3 C      5.9629     6.0000     0.0371     4.0065     4.0065     0.0000
  4 H      0.9135     1.0000     0.0865     1.0330     1.0330     0.0000
  5 C      5.9863     6.0000     0.0137     3.9053     3.9053    -0.0000
  6 H      0.9117     1.0000     0.0883     0.9962     0.9962    -0.0000
  7 C      5.9536     6.0000     0.0464     4.0471     4.0471    -0.0000
  8 H      0.9296     1.0000     0.0704     0.9738     0.9738    -0.0000
  9 C      5.8355     6.0000     0.1645     4.1834     4.1834     0.0000
 10 H      0.9171     1.0000     0.0829     0.9675     0.9675     0.0000
 11 O      8.3169     8.0000    -0.3169     2.1409     2.1409     0.0000
 12 O      8.4073     8.0000    -0.4073     2.0771     2.0771    -0.0000
 13 O      8.4100     8.0000    -0.4100     2.0179     2.0179     0.0000
 14 O      8.4140     8.0000    -0.4140     2.0413     2.0413    -0.0000
 15 O      8.4113     8.0000    -0.4113     2.0196     2.0196     0.0000
 16 O      8.4415     8.0000    -0.4415     2.0462     2.0462    -0.0000
 17 H      0.9322     1.0000     0.0678     0.9626     0.9626    -0.0000
 18 H      0.9136     1.0000     0.0864     0.9586     0.9586    -0.0000
 19 H      0.6862     1.0000     0.3138     0.9351     0.9351    -0.0000
 20 H      0.6930     1.0000     0.3070     0.9021     0.9021    -0.0000
 21 H      0.6882     1.0000     0.3118     0.8786     0.8786    -0.0000
 22 H      0.6970     1.0000     0.3030     0.8844     0.8844    -0.0000
 23 H      0.6989     1.0000     0.3011     0.9358     0.9358    -0.0000

  Mayer bond orders larger than 0.100000
B(  0-C ,  1-C ) :   1.0374 B(  0-C , 16-O ) :   1.0942 B(  0-C , 17-H ) :   0.9186 
B(  0-C , 18-H ) :   0.9063 B(  1-C ,  2-H ) :   0.8829 B(  1-C ,  3-C ) :   0.9940 
B(  1-C , 11-O ) :   0.9463 B(  3-C ,  4-H ) :   0.8747 B(  3-C ,  5-C ) :   1.0144 
B(  3-C , 15-O ) :   1.0593 B(  5-C ,  6-H ) :   0.8703 B(  5-C ,  7-C ) :   0.9533 
B(  5-C , 14-O ) :   1.0231 B(  7-C ,  8-H ) :   0.8951 B(  7-C ,  9-C ) :   1.0196 
B(  7-C , 13-O ) :   1.0744 B(  9-C , 10-H ) :   0.9065 B(  9-C , 11-O ) :   1.0329 
B(  9-C , 12-O ) :   1.0935 B( 12-O , 19-H ) :   0.7895 B( 13-O , 20-H ) :   0.8294 
B( 14-O , 19-H ) :   0.1091 B( 14-O , 21-H ) :   0.8415 B( 15-O , 22-H ) :   0.8466 
B( 16-O , 23-H ) :   0.7992 

-------
TIMINGS
-------

Total SCF time: 0 days 0 hours 0 min 9 sec 

Total time                  ....       9.306 sec
Sum of individual times     ....       9.274 sec  ( 99.7%)

SCF preparation             ....       0.155 sec  (  1.7%)
Fock matrix formation       ....       6.199 sec  ( 66.6%)
  Startup                   ....       0.007 sec  (  0.1% of F)
  Split-RI-J                ....       3.156 sec  ( 50.9% of F)
  XC integration            ....       2.928 sec  ( 47.2% of F)
    Basis function eval.    ....       1.117 sec  ( 38.1% of XC)
    Density eval.           ....       0.624 sec  ( 21.3% of XC)
    XC-Functional eval.     ....       0.165 sec  (  5.6% of XC)
    XC-Potential eval.      ....       0.646 sec  ( 22.1% of XC)
Diagonalization             ....       0.000 sec  (  0.0%)
Density matrix formation    ....       0.029 sec  (  0.3%)
Total Energy calculation    ....       0.002 sec  (  0.0%)
Population analysis         ....       0.062 sec  (  0.7%)
Orbital Transformation      ....       0.019 sec  (  0.2%)
Orbital Orthonormalization  ....       0.000 sec  (  0.0%)
DIIS solution               ....       2.240 sec  ( 24.1%)
  MO trafo                  ....       0.000 sec  (  0.0 % of DIIS)
  Orb grad                  ....       0.000 sec  (  0.0 % of DIIS)
  Energy W gradient         ....       0.000 sec  (  0.0 % of DIIS)
  DIIS error                ....       0.006 sec  (  0.2 % of DIIS)
  DIIS work                 ....       2.225 sec  ( 99.3 % of DIIS)
  Form Q                    ....       0.000 sec  (  0.0 % of DIIS)
  Form QpQm                 ....       0.000 sec  (  0.0 % of DIIS)
  Exp/Cayley                ....       0.000 sec  (  0.0 % of DIIS)
  Orb update                ....       0.000 sec  (  0.0 % of DIIS)
  Wake-sleep                ....       0.001 sec  (  0.0 % of DIIS)
SOSCF solution              ....       0.568 sec  (  6.1%)
  MO trafo                  ....       0.015 sec  (  2.6 % of SOSCF)
  Orb grad                  ....       0.000 sec  (  0.0 % of SOSCF)
  Rot update                ....       0.002 sec  (  0.3 % of SOSCF)
  Step                      ....       0.552 sec  ( 97.1 % of SOSCF)
Finished LeanSCF after   9.3 sec

Maximum memory used throughout the entire LEANSCF-calculation: 19.2 MB


-------------------------------------------------------------------------------
                          DFT DISPERSION CORRECTION                            
                                                                               
                                DFTD4 V3.4.0                                   
-------------------------------------------------------------------------------
The PBE functional is recognized
Active option DFTDOPT                   ...         5   

-------------------------   ----------------
Dispersion correction           -0.025835548
-------------------------   ----------------

------------------   -----------------
gCP correction             0.160910461
------------------   -----------------

-------------------------   --------------------
FINAL SINGLE POINT ENERGY      -685.692031624447
-------------------------   --------------------


------------------------------------------------------------------------------
                              ORCA PROPERTY CALCULATIONS
------------------------------------------------------------------------------

GBWName                                 ... sp.gbw
Number of atoms                         ...     24
Number of basis functions               ...    192
Max core memory                         ...   1024 MB

Electric properties:
Dipole moment                           ... YES
Quadrupole moment                       ...  NO
Static polarizability (Dipole/Dipole)   ...  NO
Static polarizability (Dipole/Quad.)    ...  NO
Static polarizability (Quad./Quad.)     ...  NO
Static polarizability (Velocity)        ...  NO

Atomic electric properties:
Dipole moment                           ...  NO
Quadrupole moment                       ...  NO
Static polarizability                   ...  NO

Choice of electric origin               ... Center of mass
Position of electric origin             ...    -0.000004     0.000001     0.000004

General magnetic properties:
Magnetizability                         ...  NO

EPR properties:
g-Tensor (aka g-matrix)                 ...  NO
Zero-Field splitting spin-orbit         ...  NO
Zero-field splitting spin-spin          ...  NO
Hyperfine couplings                     ...  NO (   0 nuclei)
Quadrupole couplings                    ...  NO (   0 nuclei)
Contact density                         ...  NO (   0 nuclei)

NMR properties:
Chemical shifts                         ...  NO (   0 nuclei)
Spin-rotation constants                 ...  NO (   0 nuclei)
Spin-spin couplings                     ...  NO (   0 nuclei,    0 pairs)

Choice of magnetic origin               ... GIAO
Position of magnetic origin             ...     0.000000     0.000000     0.000000

Properties with geometric perturbations:
SCF Hessian                             ...  NO
IR spectrum                             ...  NO
VCD spectrum                            ...  NO
X-ray spectroscopy properties:
SCF XES/XAS/RIXS spectra                ...  NO


-------------
DIPOLE MOMENT
-------------

Method             : SCF
Type of density    : Electron Density
Multiplicity       :   1
Irrep              :   0
Energy             :  -685.8271065368913924 Eh
Relativity type    : 
Basis              : AO
                                X                 Y                 Z
Electronic contribution:      2.166712865      -0.109237395      -0.353771239
Nuclear contribution   :     -2.050756076       0.617682320       0.481090285
                        -----------------------------------------
Total Dipole Moment    :      0.115956789       0.508444925       0.127319046
                        -----------------------------------------
Magnitude (a.u.)       :      0.536816876
Magnitude (Debye)      :      1.364480062



--------------------
Rotational spectrum 
--------------------
 
Rotational constants in cm-1:             0.039170             0.029291             0.025627 
Rotational constants in MHz :          1174.287200           878.115713           768.273554 

Dipole components along the rotational axes: 
x,y,z [a.u.] :     0.308203    -0.434486     0.066368 
x,y,z [Debye]:     0.783390    -1.104377     0.168693 

 

Dipole moment calculation done in   0.0 sec 

Maximum memory used throughout the entire PROP-calculation: 12.7 MB

--------------------------------
SUGGESTED CITATIONS FOR THIS RUN
--------------------------------

Below you find a list of papers that are relevant to this ORCA run
We neither can nor want to force you to cite these papers, but we appreciate if you do
You receive ORCA, which is the product of decades of hard work by many enthusiastic individuals, for free
The only thing we kindly ask in return is that you cite our papers,
We deeply appreciate it, if you show your appreciation for ORCA by not just citing the generic ORCA reference.

Please note that relegating all ORCA citations to the supporting information does *not* help us.
SI sections are not indexed - citations you put there will not count into any citation statistics
But we need these citations in order to attract the funding resources that allow us to do what we are doing

Therefore, if you are a happy ORCA user, please consider citing a few of the papers listed below in the main body of your paper

In addition to the list printed below, the program has created the file sp.bibtex that contains the list in bibtex format
You can import this file easily into all common literature databanks and citation aid programs


List of essential papers. We consider these as the minimum necessary citations

  1. Neese,F.
     Software update: the ORCA program system, version 5.0
     WIRES Comput. Molec. Sci., 2022 12(1)e1606
     doi.org/10.1002/wcms.1606

List of papers to cite with high priority. The work reported in these papers was absolutely
necessary for this run to complete.
Our perspective: the developers of density functionals and basis sets usually get cited in chemistry papers
Good! But without the algorithms to do something with them, the functionals or basis sets would not do anything.
Hence, in our opinion, the algorithm design and method developments papers are equally worthy of getting cited

  1. Neese,F.
     An improvement of the resolution of the identity approximation for the formation of the Coulomb matrix
     J. Comp. Chem., 2003 24(14)1740-1747
     doi.org/10.1002/jcc.10318
  2. Neese,F.
     The SHARK Integral Generation and Digestion System
     J. Comp. Chem., 2022  1-16
     doi.org/10.1002/jcc.26942
  3. Caldeweyher,E.; Bannwarth,C.; Grimme,S.
     Extension of the D3 dispersion coefficient model
     J. Chem. Phys., 2017 147 034112
     doi.org/10.1063/1.4993215
  4. Caldeweyher,E.; Ehlert,S.; Hansen,A.; Neugebauer,H.; Spicher,S.; Bannwarth,C.; Grimme,S.
     A generally applicable atomic-charge dependent London dispersion correction
     J. Chem. Phys., 2019 150 154122
     doi.org/10.1063/1.5090222
  5. Caldeweyher,E.; Mewes,J.; Ehlert,S.; Grimme,S.
     Extension and evaluation of the D4 London-dispersion model for periodic systems
     Phys. Chem. Chem. Phys., 2020 22(16)8499-8512
     doi.org/10.1039/D0CP00502A
  6. Wittmann,L.; Gordiy,I.; Friede,M.; Helmich-Paris,B.; Grimme,S.; Hansen,A.; Bursch,M.
     Extension of the D3 and D4 London Dispersion Corrections to the full Actinides Series
     Phys. Chem. Chem. Phys., 2024 26(32)21379-21394
     doi.org/https://doi.org/10.1039/D4CP01514B 

List of suggested additional citations. These are papers that are important in the 'surrounding' of 
of this run, or papers that preceded the highly important papers. If you like your results we are grateful for a citation.

  1. Neese,F.
     The ORCA program system
     WIRES Comput. Molec. Sci., 2012 2(1)73-78
     doi.org/10.1002/wcms.81
  2. Neese,F.
     Software update: the ORCA program system, version 4.0
     WIRES Comput. Molec. Sci., 2018 8(1)1-6
     doi.org/10.1002/wcms.1327
  3. Neese,F.; Wennmohs,F.; Becker,U.; Riplinger,C.
     The ORCA quantum chemistry program package
     J. Chem. Phys., 2020 152 Art. No. L224108
     doi.org/10.1063/5.0004608

List of optional additional citations

  1. Neese,F.
     Approximate second-order SCF convergence for spin unrestricted wavefunctions
     Chem. Phys. Lett., 2000 325(1-3)93-98
     doi.org/10.1016/s0009-2614(00)00662-x

Timings for individual modules:

Sum of individual times          ...       10.891 sec (=   0.182 min)
Startup calculation              ...        0.740 sec (=   0.012 min)   6.8 %
SCF iterations                   ...       10.083 sec (=   0.168 min)  92.6 %
Property calculations            ...        0.068 sec (=   0.001 min)   0.6 %
                             ****ORCA TERMINATED NORMALLY****
TOTAL RUN TIME: 0 days 0 hours 0 minutes 11 seconds 552 msec
