
                                 *****************
                                 * O   R   C   A *
                                 *****************

                                            #,                                       
                                            ###                                      
                                            ####                                     
                                            #####                                    
                                            ######                                   
                                           ########,                                 
                                     ,,################,,,,,                         
                               ,,#################################,,                 
                          ,,##########################################,,             
                       ,#########################################, ''#####,          
                    ,#############################################,,   '####,        
                  ,##################################################,,,,####,       
                ,###########''''           ''''###############################       
              ,#####''   ,,,,##########,,,,          '''####'''          '####       
            ,##' ,,,,###########################,,,                        '##       
           ' ,,###''''                  '''############,,,                           
         ,,##''                                '''############,,,,        ,,,,,,###''
      ,#''                                            '''#######################'''  
     '                                                          ''''####''''         
             ,#######,   #######,   ,#######,      ##                                
            ,#'     '#,  ##    ##  ,#'     '#,    #''#        ,####,   ,####,        
            ##       ##  ##   ,#'  ##            #'  '#       #'       #'  '#        
            ##       ##  #######   ##           ,######,      #####,   #    #        
            '#,     ,#'  ##    ##  '#,     ,#' ,#      #,     #,   #   #,  ,#        
             '#######'   ##     ##  '#######'  #'      '#     '####' # '####'        



                #########################################################
                #                        -***-                          #
                #          Department of theory and spectroscopy        #
                #                                                       #
                #                      Frank Neese                      #
                #                                                       #
                #     Directorship, Architecture, Infrastructure        #
                #                    SHARK, DRIVERS                     #
                #        Core code/Algorithms in most modules           #
                #                                                       #
                #        Max Planck Institute fuer Kohlenforschung      #
                #                Kaiser Wilhelm Platz 1                 #
                #                 D-45470 Muelheim/Ruhr                 #
                #                      Germany                          #
                #                                                       #
                #                  All rights reserved                  #
                #                        -***-                          #
                #########################################################


                         Program Version 6.0.1  -  RELEASE   -


 With contributions from (in alphabetic order):
[Max-Planck-Institut fuer Kohlenforschung]                               
  Daniel Aravena         : Magnetic Suceptibility                        
  Michael Atanasov       : Ab Initio Ligand Field Theory (pilot matlab implementation)
  Alexander A. Auer      : GIAO ZORA, VPT2 properties, NMR spectrum      
  Ute Becker             : All parallelization in ORCA, NUMFREQ, NUMCALC 
  Giovanni Bistoni       : ED, misc. LED, open-shell LED, HFLD           
  Martin Brehm           : Molecular dynamics                            
  Dmytro Bykov           : pre 5.0 version of the SCF Hessian            
  Marcos Casanova-Páez   : Triplet and SCS-CIS(D). UHF-(DLPNO)-IP/EA/STEOM-CCSD. UHF-CVS-IP/STEOM-CCSD   
  Vijay G. Chilkuri      : MRCI spin determinant printing, contributions to CSF-ICE 
  Pauline Colinet        : FMM embedding                                 
  Dipayan Datta          : RHF DLPNO-CCSD density                        
  Achintya Kumar Dutta   : EOM-CC, STEOM-CC                              
  Nicolas Foglia         : Exact transition moments, OPA infrastructure, MCD improvements    
  Dmitry Ganyushin       : Spin-Orbit,Spin-Spin,Magnetic field MRCI      
  Miquel Garcia-Rates    : C-PCM and meta-GGA Hessian, CCSD/C-PCM, Gaussian charge scheme 
  Tiago L. C. Gouveia    : GS-ROHF, GS-ROCIS                             
  Yang Guo               : DLPNO-NEVPT2, F12-NEVPT2, CIM, IAO-localization        
  Andreas Hansen         : Spin unrestricted coupled pair/coupled cluster methods 
  Ingolf Harden          : AUTO-CI MPn and infrastructure                
  Benjamin Helmich-Paris : MC-RPA, TRAH-(SCF,CASSCF), AVAS, COSX integrals, SCF dyn. polar. 
  Lee Huntington         : MR-EOM, pCC                                   
  Robert Izsak           : Overlap fitted RIJCOSX, COSX-SCS-MP3, EOM     
  Riya Kayal             : Wick's Theorem for AUTO-CI, AUTO-CI UHF-CCSDT 
  Emily Kempfer          : AUTO-CI, RHF CISDT and CCSDT                  
  Christian Kollmar      : KDIIS, OOCD, Brueckner-CCSD(T), CCSD density, CASPT2, CASPT2-K, improved NEVPT2 
  Axel Koslowski         : Symmetry handling                             
  Simone Kossmann        : meta-GGA functionals, TD-DFT gradient, OOMP2, (MP2 Hessian; deprecated post 5.0) 
  Lucas Lang             : DCDCAS                                        
  Marvin Lechner         : AUTO-CI (C++ implementation), FIC-MRCC        
  Spencer Leger          : CASSCF response                               
  Dagmar Lenk            : GEPOL surface, SMD, ORCA-2-JSON               
  Dimitrios Liakos       : Extrapolation schemes; Compound Job, initial MDCI parallelization 
  Dimitrios Manganas     : Further ROCIS development; embedding schemes. LFT, Crystal Embedding 
  Dimitrios Pantazis     : SARC Basis sets                               
  Anastasios Papadopoulos: AUTO-CI, single reference methods and gradients 
  Taras Petrenko         : pre 6.0 DFT Hessian and TD-DFT gradient, (ASA, deprecated), ECA, 1-Electron XAS/XES, NRVS 
  Peter Pinski           : DLPNO-MP2, DLPNO-MP2 Gradient                 
  Christoph Reimann      : Effective Core Potentials                     
  Marius Retegan         : Local ZFS, SOC                                
  Christoph Riplinger    : Optimizer, TS searches, QM/MM, DLPNO-CCSD(T), (RO)-DLPNO pert. Triples 
  Michael Roemelt        : Original ROCIS implementation                 
  Masaaki Saitow         : Open-shell DLPNO-CCSD energy and density      
  Barbara Sandhoefer     : DKH picture change effects                    
  Kantharuban Sivalingam : CASSCF convergence/infrastructure, NEVPT2 and variants, FIC-MRCI 
  Bernardo de Souza      : ESD, SOC TD-DFT                               
  Georgi L. Stoychev     : AutoAux, RI-MP2 NMR, DLPNO-MP2 response, X2C  
  Van Anh Tran           : RI-MP2 g-tensors                              
  Willem Van den Heuvel  : Paramagnetic NMR                              
  Zikuan Wang            : NOTCH, Electric field optimization            
  Frank Wennmohs         : Technical directorship and infrastructure     
  Hang Xu                : AUTO-CI-Response properties                   
                                                                         
[FACCTs GmbH]                                                            
  Markus Bursch, Miquel Garcia-Rates, Christoph Riplinger, Bernardo de Souza, Georgi L. Stoychev 
                                                                 
  APM, Basis sets (HGBS, AHGBS, def-TZVP (Ac-Lr), def2-XVPD (La-Lu)), CI-OPT, improved COSX, DLPNO-Multilevel,           
  DOCKER, DRACO, updates on ESD, GOAT, IRC, LR-CPCM, MBIS, meta-GGA TD-DFT gradient, ML-optimized integration grids, 
  MM, NACMEs, nearIR, NEB, NEB-TS, NL-DFT gradient (VV10), 2- and 3-layer-ONIOM, interface openCOSMO-RS, QMMM,   
  Crystal-QMMM, SF, symmetry and pop. for TD-DFT, r2SCAN hybrids, SOLVATOR                                   
                                                                         
[Other institutions]                                                     
  V. Asgeirsson          : NEB                                           
  Christoph Bannwarth    : sTDA-DFT, sTD-DFT, PBEh-3c, B97-3c, D3        
  Sebastian Ehlert       : rSCAN, r2SCAN, r2SCAN-3c, D4, dhf basis sets  
  Marvin Friede          : D4 for Fr, Ra, Ac-Lr                          
  Lars Goerigk           : TD-DFT with DH, B97 family of functionals     
  Stefan Grimme          : VdW corrections, initial TS optimization, DFT functionals, gCP, sTDA/sTD-DF 
  Waldemar Hujo          : DFT-NL                                        
  H. Jonsson             : NEB                                           
  Holger Kruse           : gCP                                           
  Marcel Mueller         : wB97X-3c, vDZP basis set                      
  Hagen Neugebauer       : wr2SCAN                                       
  Tobias Risthaus        : range-separated hybrid DFT                    
  Lukas Wittmann         : regularized MP2, r2SCAN double-hybrids, wr2SCAN        
                                                                         
We gratefully acknowledge several colleagues who have allowed us to      
interface, adapt or use parts of their codes:                            
  Ed Valeev, F. Pavosevic, A. Kumar             : LibInt (2-el integral package), F12 methods 
  Garnet Chan, S. Sharma, J. Yang, R. Olivares  : DMRG                   
  Ulf Ekstrom                                   : XCFun DFT Library      
  Mihaly Kallay                                 : mrcc  (arbitrary order and MRCC methods)
  Frank Weinhold                                : gennbo (NPA and NBO analysis)           
  Simon Mueller                                 : openCOSMO-RS                            
  Christopher J. Cramer and Donald G. Truhlar   : smd solvation model                     
  S Lehtola, MJT Oliveira, MAL Marques          : LibXC Library                           
  Liviu Ungur et al                             : ANISO software                          


 Your calculation uses the libint2 library for the computation of 2-el integrals
 For citations please refer to: http://libint.valeyev.net

 Your ORCA version has been built with support for libXC version: 6.2.2
 For citations please refer to: https://libxc.gitlab.io

 This ORCA versions uses:
   CBLAS   interface :  Fast vector & matrix operations
   LAPACKE interface :  Fast linear algebra routines
   SCALAPACK package :  Parallel linear algebra routines
   Shared memory     :  Shared parallel matrices
   BLAS/LAPACK       :  OpenBLAS 0.3.27  USE64BITINT DYNAMIC_ARCH NO_AFFINITY Zen SINGLE_THREADED
        Core in use  :  Zen
   Copyright (c) 2011-2014, The OpenBLAS Project


Your calculation utilizes the geometrical counterpoise correction gCP
Please cite in your paper:
H.Kruse, S. Grimme J.Chem.Phys., 136, (2012), 154101 
   

Your calculation utilizes the atom-pairwise dispersion correction
based on EEQ partial charges (D4)


================================================================================

----- Orbital basis set information -----
Your calculation utilizes the basis: def2-mTZVPP
   Stefan Grimme, Andreas Hansen, Sebastian Ehlert, and Jan-Michael Mewes 
   J. Chem. Phys. 154, 064103 (2021). DOI: 10.1063/5.0040021

----- AuxJ basis set information -----
Your calculation utilizes the auxiliary basis: def2/J
   F. Weigend, Phys. Chem. Chem. Phys. 8, 1057 (2006).

================================================================================
                                        WARNINGS
                       Please study these warnings very carefully!
================================================================================



WARNING: SCAN, rSCAN, or r2SCAN functional requested.
  ===> : libXC variant has now been activated.



================================================================================
                                       INPUT FILE
================================================================================
NAME = sp.inp
|  1> ! r2scan-3c def2/J RI DEFGRID2 scfconv6 printgap
|  2> %output
|  3>     printlevel normal
|  4> end
|  5> * xyz 0 1
|  6> C -1.6025642274 0.1033887075 -0.508178815
|  7> C -0.6691724668 -0.4696117869 0.5539591101
|  8> C 0.6736356861 0.2638325694 0.6121125092
|  9> O 1.4769472912 0.0521845776 -0.5237908152
| 10> H -1.1926463897 -0.0318321434 -1.5078325635
| 11> H -2.5656174944 -0.40002485 -0.4739485143
| 12> H -1.7657733062 1.1665636921 -0.3403383075
| 13> H -0.4828739354 -1.5255090822 0.3490009801
| 14> H -1.1419945831 -0.3915150438 1.5343437941
| 15> H 0.4980863556 1.3402835113 0.7610455852
| 16> H 1.2634052338 -0.10751089 1.4535591847
| 17> H 0.986700475 0.3413401091 -1.3011915081
| 18> *
| 19> 
| 20>                          ****END OF INPUT****
================================================================================

                       ****************************
                       * Single Point Calculation *
                       ****************************

---------------------------------
CARTESIAN COORDINATES (ANGSTROEM)
---------------------------------
  C     -1.602564    0.103389   -0.508179
  C     -0.669172   -0.469612    0.553959
  C      0.673636    0.263833    0.612113
  O      1.476947    0.052185   -0.523791
  H     -1.192646   -0.031832   -1.507833
  H     -2.565617   -0.400025   -0.473949
  H     -1.765773    1.166564   -0.340338
  H     -0.482874   -1.525509    0.349001
  H     -1.141995   -0.391515    1.534344
  H      0.498086    1.340284    0.761046
  H      1.263405   -0.107511    1.453559
  H      0.986700    0.341340   -1.301192

----------------------------
CARTESIAN COORDINATES (A.U.)
----------------------------
  NO LB      ZA    FRAG     MASS         X           Y           Z
   0 C     6.0000    0    12.011   -3.028408    0.195376   -0.960319
   1 C     6.0000    0    12.011   -1.264553   -0.887438    1.046831
   2 C     6.0000    0    12.011    1.272987    0.498571    1.156725
   3 O     8.0000    0    15.999    2.791026    0.098615   -0.989821
   4 H     1.0000    0     1.008   -2.253775   -0.060154   -2.849391
   5 H     1.0000    0     1.008   -4.848314   -0.755937   -0.895633
   6 H     1.0000    0     1.008   -3.336828    2.204486   -0.643146
   7 H     1.0000    0     1.008   -0.912499   -2.882794    0.659516
   8 H     1.0000    0     1.008   -2.158057   -0.739856    2.899490
   9 H     1.0000    0     1.008    0.941247    2.532769    1.438168
  10 H     1.0000    0     1.008    2.387490   -0.203166    2.746829
  11 H     1.0000    0     1.008    1.864594    0.645039   -2.458896

--------------------------------
INTERNAL COORDINATES (ANGSTROEM)
--------------------------------
 C      0   0   0     0.000000000000     0.00000000     0.00000000
 C      1   0   0     1.525675823127     0.00000000     0.00000000
 C      2   1   0     1.531161708348   112.52386660     0.00000000
 O      3   2   1     1.407260022066   113.44790780   291.35909795
 H      1   2   3     1.088864054450   111.23420425    64.21460321
 H      1   2   3     1.087229745013   110.24879572   183.68409012
 H      1   2   3     1.088645345023   110.55899732   303.44766799
 H      2   1   3     1.091619932063   109.69296021   238.84927504
 H      2   1   3     1.091244236442   109.48087071   120.29784398
 H      3   2   1     1.100793013642   109.49350655    55.07887350
 H      3   2   1     1.092591685829   109.86678030   173.91841410
 H      4   3   2     0.963485702807   108.40228360    58.19865584

---------------------------
INTERNAL COORDINATES (A.U.)
---------------------------
 C      0   0   0     0.000000000000     0.00000000     0.00000000
 C      1   0   0     2.883109474855     0.00000000     0.00000000
 C      2   1   0     2.893476295524   112.52386660     0.00000000
 O      3   2   1     2.659336040920   113.44790780   291.35909795
 H      1   2   3     2.057654859981   111.23420425    64.21460321
 H      1   2   3     2.054566462727   110.24879572   183.68409012
 H      1   2   3     2.057241559061   110.55899732   303.44766799
 H      2   1   3     2.062862713928   109.69296021   238.84927504
 H      2   1   3     2.062152752095   109.48087071   120.29784398
 H      3   2   1     2.080197325917   109.49350655    55.07887350
 H      3   2   1     2.064699062417   109.86678030   173.91841410
 H      4   3   2     1.820724112253   108.40228360    58.19865584

---------------------
BASIS SET INFORMATION
---------------------
There are 3 groups of distinct atoms

 Group   1 Type C   : 11s6p1d contracted to 5s3p1d pattern {62111/411/1}
 Group   2 Type O   : 11s6p2d contracted to 5s3p2d pattern {62111/411/11}
 Group   3 Type H   : 4s1p contracted to 2s1p pattern {31/1}

Atom   0C    basis set group =>   1
Atom   1C    basis set group =>   1
Atom   2C    basis set group =>   1
Atom   3O    basis set group =>   2
Atom   4H    basis set group =>   3
Atom   5H    basis set group =>   3
Atom   6H    basis set group =>   3
Atom   7H    basis set group =>   3
Atom   8H    basis set group =>   3
Atom   9H    basis set group =>   3
Atom  10H    basis set group =>   3
Atom  11H    basis set group =>   3
---------------------------------
AUXILIARY/J BASIS SET INFORMATION
---------------------------------
There are 3 groups of distinct atoms

 Group   1 Type C   : 12s5p4d2f1g contracted to 6s4p3d1f1g pattern {711111/2111/211/2/1}
 Group   2 Type O   : 12s5p4d2f1g contracted to 6s4p3d1f1g pattern {711111/2111/211/2/1}
 Group   3 Type H   : 5s2p1d contracted to 3s1p1d pattern {311/2/1}

Atom   0C    basis set group =>   1
Atom   1C    basis set group =>   1
Atom   2C    basis set group =>   1
Atom   3O    basis set group =>   2
Atom   4H    basis set group =>   3
Atom   5H    basis set group =>   3
Atom   6H    basis set group =>   3
Atom   7H    basis set group =>   3
Atom   8H    basis set group =>   3
Atom   9H    basis set group =>   3
Atom  10H    basis set group =>   3
Atom  11H    basis set group =>   3

Checking for AutoStart:
The File: sp.gbw exists
Trying to determine its content:
     ... Fine, the file contains calculation information
     ... Fine, the calculation information was read
     ... Fine, the file contains a basis set
     ... Fine, the basis set was read
     ... Fine, the file contains a geometry
     ... Fine, the geometry was read
     ... Fine, the file contains a set of orbitals
     ... Fine, the orbitals can be read
     => possible old guess file was deleted
     => GBW file was renamed to GES file
     => GES file is set as startup file
     => Guess is set to MORead
     ... now leaving AutoStart

------------------------------------------------------------------------------
                             ORCA STARTUP CALCULATIONS
                           -- RI-GTO INTEGRALS CHOSEN --
------------------------------------------------------------------------------
------------------------------------------------------------------------------
                   ___                                                        
                  /   \      - P O W E R E D   B Y -                         
                 /     \                                                     
                 |  |  |   _    _      __       _____    __    __             
                 |  |  |  | |  | |    /  \     |  _  \  |  |  /  |          
                  \  \/   | |  | |   /    \    | | | |  |  | /  /          
                 / \  \   | |__| |  /  /\  \   | |_| |  |  |/  /          
                |  |  |   |  __  | /  /__\  \  |    /   |      \           
                |  |  |   | |  | | |   __   |  |    \   |  |\   \          
                \     /   | |  | | |  |  |  |  | |\  \  |  | \   \       
                 \___/    |_|  |_| |__|  |__|  |_| \__\ |__|  \__/        
                                                                              
                      - O R C A' S   B I G   F R I E N D -                    
                                      &                                       
                       - I N T E G R A L  F E E D E R -                       
                                                                              
 v1 FN, 2020, v2 2021, v3 2022-2024                                           
------------------------------------------------------------------------------


----------------------
SHARK INTEGRAL PACKAGE
----------------------

Number of atoms                             ...     12
Number of basis functions                   ...    121
Number of shells                            ...     61
Maximum angular momentum                    ...      2
Integral batch strategy                     ... SHARK/LIBINT Hybrid
RI-J (if used) integral strategy            ... SPLIT-RIJ (Revised 2003 algorithm where possible)
Printlevel                                  ...      1
Contraction scheme used                     ... SEGMENTED contraction
Prescreening option                         ... SCHWARTZ
   Thresh                                   ... 1.000e-10
   Tcut                                     ... 1.000e-11
   Tpresel                                  ... 1.000e-11 
Coulomb Range Separation                    ... NOT USED
Exchange Range Separation                   ... NOT USED
Multipole approximations                    ... NOT USED
Finite Nucleus Model                        ... NOT USED
CABS basis                                  ... NOT available
Auxiliary Coulomb fitting basis             ... AVAILABLE
   # of basis functions in Aux-J            ...    284
   # of shells in Aux-J                     ...    100
   Maximum angular momentum in Aux-J        ...      4
Auxiliary J/K fitting basis                 ... NOT available
Auxiliary Correlation fitting basis         ... NOT available
Auxiliary 'external' fitting basis          ... NOT available

Checking pre-screening integrals            ... done (  0.0 sec) Dimension = 61
Check shell pair data                       ... done (  0.0 sec)
Shell pair information
Shell pair cut-off parameter TPreSel        ...   1.0e-11
Total number of shell pairs                 ...      1891
Shell pairs after pre-screening             ...      1845
Total number of primitive shell pairs       ...      6553
Primitive shell pairs kept                  ...      5033
          la=0 lb=0:    642 shell pairs
          la=1 lb=0:    702 shell pairs
          la=1 lb=1:    208 shell pairs
          la=2 lb=0:    179 shell pairs
          la=2 lb=1:     99 shell pairs
          la=2 lb=2:     15 shell pairs

Calculating one electron integrals          ... done (  0.0 sec)
Calculating RI/J V-Matrix + Cholesky decomp.... done (  0.0 sec)
Calculating Nuclear repulsion               ... done (  0.0 sec) ENN=    132.829278005117 Eh

Diagonalization of the overlap matrix:
Smallest eigenvalue                        ... 3.814e-04
Time for diagonalization                   ...    0.002 sec
Threshold for overlap eigenvalues          ... 1.000e-07
Number of eigenvalues below threshold      ... 0
Time for construction of square roots      ...    0.003 sec
Total time needed                          ...    0.006 sec

-------------------
DFT GRID GENERATION
-------------------

General Integration Accuracy     IntAcc      ... 4.388
Radial Grid Type                 RadialGrid  ... OptM3 with GC (2021)
Angular Grid (max. ang.)         AngularGrid ... 4 (Lebedev-302)
Angular grid pruning method      GridPruning ... 4 (adaptive)
Weight generation scheme         WeightScheme... mBecke (2022)
Basis function cutoff            BFCut       ... 1.0000e-10
Integration weight cutoff        WCut        ... 1.0000e-14
Partially contracted basis set               ... off
Rotationally invariant grid construction     ... off
Angular grids for H and He will be reduced by one unit
Diffuse basis detected: some atoms will have their outermost
                        angular grid increased by 1.

Total number of grid points                  ...    50340
Total number of batches                      ...      795
Average number of points per batch           ...       63
Average number of grid points per atom       ...     4195
Initializing property integral containers    ... done (  0.0 sec)

SHARK setup successfully completed in   0.4 seconds

Maximum memory used throughout the entire STARTUP-calculation: 22.0 MB
-------------------------------------------------------------------------------
                                 ORCA GUESS
                   Start orbitals & Density for SCF / CASSCF
-------------------------------------------------------------------------------

------------
SCF SETTINGS
------------
Hamiltonian:
 Density Functional     Method          .... DFT(GTOs)
  Functional kind                       .... Exchange
  Functional name                       .... Re-regularized SCAN exchange by Furness et al
  Functional family                     .... MGGA
  Functional refs                              
    [ 0] J. W. Furness, A. D. Kaplan, J. Ning, J. P. Perdew, and J. Sun.,  J. Phys. Chem. Lett. 11, 8208-8215 (2020), doi: 10.1021/acs.jpclett.0c02405
    [ 1] J. W. Furness, A. D. Kaplan, J. Ning, J. P. Perdew, and J. Sun.,  J. Phys. Chem. Lett. 11, 9248-9248 (2020), doi: 10.1021/acs.jpclett.0c03077
  Functional external parameters        .... 6
    Parameter  0 _c1        =  6.670000e-01 : c1 parameter        
    Parameter  1 _c2        =  8.000000e-01 : c2 parameter        
    Parameter  2 _d         =  1.240000e+00 : d parameter         
    Parameter  3 _k1        =  6.500000e-02 : k1 parameter        
    Parameter  4 _eta       =  1.000000e-03 : eta parameter       
    Parameter  5 _dp2       =  3.610000e-01 : dp2 parameter       
  Functional kind                       .... Correlation
  Functional name                       .... Re-regularized SCAN correlation by Furness et al
  Functional family                     .... MGGA
  Functional refs                              
    [ 0] J. W. Furness, A. D. Kaplan, J. Ning, J. P. Perdew, and J. Sun.,  J. Phys. Chem. Lett. 11, 8208-8215 (2020), doi: 10.1021/acs.jpclett.0c02405
    [ 1] J. W. Furness, A. D. Kaplan, J. Ning, J. P. Perdew, and J. Sun.,  J. Phys. Chem. Lett. 11, 9248-9248 (2020), doi: 10.1021/acs.jpclett.0c03077
  Functional external parameters        .... 1
    Parameter  0 _eta       =  1.000000e-03 : Regularization parameter
 Gradients option       PostSCFGGA      .... off
 RI-approximation to the Coulomb term is turned on
   Number of AuxJ basis functions       .... 284


General Settings:
 Integral files         IntName         .... sp
 Hartree-Fock type      HFTyp           .... RHF
 Total Charge           Charge          ....    0
 Multiplicity           Mult            ....    1
 Number of Electrons    NEL             ....   34
 Basis Dimension        Dim             ....  121
 Nuclear Repulsion      ENuc            ....    132.8292780051 Eh

Convergence Acceleration:
 AO-DIIS                CNVDIIS         .... on
   Start iteration      DIISMaxIt       ....    12
   Startup error        DIISStart       ....  0.200000
   # of expansion vecs  DIISMaxEq       ....     5
   Bias factor          DIISBfac        ....   1.050
   Max. coefficient     DIISMaxC        ....  10.000
 MO-DIIS                CNVKDIIS        .... off
 Trust-Rad. Augm. Hess. CNVTRAH         .... auto
   Auto Start mean grad. ratio tolernc. ....  1.125000
   Auto Start start iteration           ....     1
   Auto Start num. interpolation iter.  ....    10
   Max. Number of Micro iterations      ....    24
   Max. Number of Macro iterations      .... Maxiter - #DIIS iter
   Number of Davidson start vectors     ....     2
   Converg. threshold    (grad. norm)   ....   3.330e-04
   Grad. Scal. Fac. for Micro threshold ....   0.100
   Minimum threshold for Micro iter.    ....   1.000e-02
   NR start threshold (gradient norm)   ....   1.000e-04
   Initial trust radius                 ....   0.400
   Minimum AH scaling param. (alpha)    ....   1.000
   Maximum AH scaling param. (alpha)    .... 1000.000
   Quad. conv. algorithm                .... NR
   White noise on init. David. guess    .... on
   Maximum white noise                  ....   0.010
   Pseudo random numbers                .... off
   Inactive MOs                         .... canonical
   Orbital update algorithm             .... Taylor
   Preconditioner                       .... Diag
   Full preconditioner red. dimension   ....   250
   COSX micro iterations for RIJONX calc.... off
 SOSCF                  CNVSOSCF        .... on
   Start iteration      SOSCFMaxIt      ....   150
   Startup grad/error   SOSCFStart      ....  0.003300
   Hessian update       SOSCFHessUp     .... L-BFGS
 Level Shifting         CNVShift        .... on
   Level shift para.    LevelShift      ....    0.2500
   Turn off err/grad.   ShiftErr        ....    0.0010
 Zerner damping         CNVZerner       .... off
 Static damping         CNVDamp         .... on
   Fraction old density DampFac         ....    0.7000
   Max. Damping (<1)    DampMax         ....    0.9800
   Min. Damping (>=0)   DampMin         ....    0.0000
   Turn off err/grad.   DampErr         ....    0.1000

SCF Procedure:
 Maximum # iterations   MaxIter         ....   125
 SCF integral mode      SCFMode         .... Direct
   Integral package                     .... SHARK and LIBINT hybrid scheme
 Reset frequency        DirectResetFreq ....    20
 Integral Threshold     Thresh          ....  1.000e-10 Eh
 Primitive CutOff       TCut            ....  1.000e-11 Eh

Convergence Tolerance:
 Convergence Check Mode ConvCheckMode   .... Total+1el-Energy
 Convergence forced     ConvForced      .... 0
 Energy Change          TolE            ....  1.000e-06 Eh
 1-El. energy change                    ....  1.000e-03 Eh
 Orbital Gradient       TolG            ....  3.330e-04
 Orbital Rotation angle TolX            ....  3.330e-04
 DIIS Error             TolErr          ....  1.000e-06

---------------------
INITIAL GUESS: MOREAD
---------------------
Guess MOs are being read from file: sp.ges
Input Geometry matches current geometry (good)
Atom 0: N(Shells)= 9 and 6 - projection required
Input basis set needs projection
NBasis(read)= 72
NBasis(calc)= 121
Basis set overlap was calculated
Using GuessMode=FMatrix for the initial guess
C*T matrix was formed
Effective Fockian was calculated
Effective Fockian was diagonalized
Initial density was built
                      ------------------
                      INITIAL GUESS DONE (   0.0 sec)
                      ------------------
             **** ENERGY FILE WAS UPDATED (sp.en.tmp) ****
Finished Guess after   0.1 sec
Maximum memory used throughout the entire GUESS-calculation: 9.0 MB

-------------------------------------------------------------------------------------------
                                      ORCA LEAN-SCF
                              memory conserving SCF solver
-------------------------------------------------------------------------------------------

----------------------------------------D-I-I-S--------------------------------------------
Iteration    Energy (Eh)           Delta-E    RMSDP     MaxDP     DIISErr   Damp  Time(sec)
-------------------------------------------------------------------------------------------
               ***  Starting incremental Fock matrix formation  ***
    1    -194.1895592969904669     0.00e+00  3.67e-03  8.01e-02  6.26e-01  0.700   0.6
    2    -194.2233204680441645    -3.38e-02  3.07e-03  6.51e-02  4.40e-01  0.700   0.6
    3    -194.2472723976117095    -2.40e-02  2.28e-03  4.74e-02  3.08e-01  0.700   0.6
    4    -194.2641021033266497    -1.68e-02  1.64e-03  3.36e-02  2.16e-01  0.700   0.6
                               ***Turning on AO-DIIS***
    5    -194.2759152632821724    -1.18e-02  1.19e-03  2.38e-02  1.51e-01  0.700   0.6
    6    -194.2842017873180680    -8.29e-03  8.51e-04  1.68e-02  1.06e-01  0.700   0.6
    7    -194.2900136035101468    -5.81e-03  6.02e-04  1.18e-02  7.41e-02  0.700   0.6
    8    -194.2940877266585744    -4.07e-03  1.41e-03  2.76e-02  5.19e-02  0.000   0.6
                              *** Initializing SOSCF ***
---------------------------------------S-O-S-C-F--------------------------------------
Iteration    Energy (Eh)           Delta-E    RMSDP     MaxDP     MaxGrad    Time(sec)
--------------------------------------------------------------------------------------
    9    -194.3036124753837726    -9.52e-03  1.04e-05  1.38e-04  1.48e-04     0.6
               *** Restarting incremental Fock matrix formation ***
   10    -194.3036125557408127    -8.04e-08  8.24e-06  1.22e-04  2.91e-05     0.6
                  *** Gradient check signals convergence ***

               *****************************************************
               *                     SUCCESS                       *
               *           SCF CONVERGED AFTER  10 CYCLES          *
               *****************************************************

             **** ENERGY FILE WAS UPDATED (sp.en.tmp) ****

----------------
TOTAL SCF ENERGY
----------------

Total Energy       :       -194.30361255574081 Eh           -5287.27010 eV

Components:
Nuclear Repulsion  :        132.82927800511709 Eh            3614.46841 eV
Electronic Energy  :       -327.13289056085790 Eh           -8901.73851 eV
One Electron Energy:       -525.65551280237105 Eh          -14303.81370 eV
Two Electron Energy:        198.52262224151315 Eh            5402.07519 eV

Virial components:
Potential Energy   :       -387.77466936279450 Eh          -10551.88520 eV
Kinetic Energy     :        193.47105680705371 Eh            5264.61510 eV
Virial Ratio       :          2.00430325735760

DFT components:
N(Alpha)           :       17.000011801124 electrons
N(Beta)            :       17.000011801124 electrons
N(Total)           :       34.000023602248 electrons
E(X)               :      -26.739705100555 Eh       
E(C)               :       -1.062034325307 Eh       
E(XC)              :      -27.801739425862 Eh       

---------------
SCF CONVERGENCE
---------------

  Last Energy change         ...    8.0357e-08  Tolerance :   1.0000e-06
  Last MAX-Density change    ...    1.2162e-04  Tolerance :   1.0000e-05
  Last RMS-Density change    ...    8.2358e-06  Tolerance :   1.0000e-06
  Last DIIS Error            ...    1.4809e-04  Tolerance :   1.0000e-06
  Last Orbital Gradient      ...    2.9055e-05  Tolerance :   3.3300e-04
  Last Orbital Rotation      ...    5.0562e-05  Tolerance :   3.3300e-04


----------------
ORBITAL ENERGIES
----------------

  NO   OCC          E(Eh)            E(eV) 
   0   2.0000     -18.945727      -515.5394 
   1   2.0000     -10.072525      -274.0873 
   2   2.0000     -10.029194      -272.9083 
   3   2.0000     -10.026502      -272.8350 
   4   2.0000      -0.985345       -26.8126 
   5   2.0000      -0.746049       -20.3010 
   6   2.0000      -0.648705       -17.6521 
   7   2.0000      -0.560855       -15.2616 
   8   2.0000      -0.475138       -12.9292 
   9   2.0000      -0.431723       -11.7478 
  10   2.0000      -0.407180       -11.0799 
  11   2.0000      -0.389566       -10.6006 
  12   2.0000      -0.348917        -9.4945 
  13   2.0000      -0.327451        -8.9104 
  14   2.0000      -0.316853        -8.6220 
  15   2.0000      -0.288211        -7.8426 
  16   2.0000      -0.234540        -6.3822 
  17   0.0000       0.057949         1.5769 
  18   0.0000       0.110252         3.0001 
  19   0.0000       0.121954         3.3186 
  20   0.0000       0.136912         3.7256 
  21   0.0000       0.142866         3.8876 
  22   0.0000       0.151978         4.1355 
  23   0.0000       0.168598         4.5878 
  24   0.0000       0.191511         5.2113 
  25   0.0000       0.197774         5.3817 
  26   0.0000       0.204074         5.5531 
  27   0.0000       0.220138         5.9902 
*Only the first 10 virtual orbitals were printed.

                    ********************************
                    * MULLIKEN POPULATION ANALYSIS *
                    ********************************

-----------------------
MULLIKEN ATOMIC CHARGES
-----------------------
   0 C :   -0.475140
   1 C :   -0.226534
   2 C :   -0.146712
   3 O :   -0.419168
   4 H :    0.131359
   5 H :    0.152369
   6 H :    0.148178
   7 H :    0.148610
   8 H :    0.132871
   9 H :    0.123179
  10 H :    0.140196
  11 H :    0.290791
Sum of atomic charges:    0.0000000

--------------------------------
MULLIKEN REDUCED ORBITAL CHARGES
--------------------------------
  0 C s       :     3.314782  s :     3.314782
      pz      :     1.004816  p :     3.133315
      px      :     1.064431
      py      :     1.064068
      dz2     :     0.008394  d :     0.027042
      dxz     :     0.005345
      dyz     :     0.002352
      dx2y2   :     0.006357
      dxy     :     0.004594

  1 C s       :     3.195644  s :     3.195644
      pz      :     1.015790  p :     2.995282
      px      :     0.944984
      py      :     1.034508
      dz2     :     0.008615  d :     0.035607
      dxz     :     0.008224
      dyz     :     0.002980
      dx2y2   :     0.008938
      dxy     :     0.006851

  2 C s       :     3.283038  s :     3.283038
      pz      :     0.849050  p :     2.803872
      px      :     0.914128
      py      :     1.040694
      dz2     :     0.012634  d :     0.059802
      dxz     :     0.016682
      dyz     :     0.009370
      dx2y2   :     0.011810
      dxy     :     0.009305

  3 O s       :     3.762008  s :     3.762008
      pz      :     1.180791  p :     4.645104
      px      :     1.610513
      py      :     1.853799
      dz2     :    -0.002557  d :     0.012055
      dxz     :     0.004289
      dyz     :     0.000923
      dx2y2   :     0.005990
      dxy     :     0.003411

  4 H s       :     0.850246  s :     0.850246
      pz      :     0.009855  p :     0.018395
      px      :     0.004682
      py      :     0.003857

  5 H s       :     0.829259  s :     0.829259
      pz      :     0.003712  p :     0.018372
      px      :     0.009489
      py      :     0.005170

  6 H s       :     0.833689  s :     0.833689
      pz      :     0.003757  p :     0.018133
      px      :     0.003768
      py      :     0.010608

  7 H s       :     0.833608  s :     0.833608
      pz      :     0.003661  p :     0.017782
      px      :     0.003564
      py      :     0.010557

  8 H s       :     0.849139  s :     0.849139
      pz      :     0.009514  p :     0.017990
      px      :     0.004926
      py      :     0.003550

  9 H s       :     0.859924  s :     0.859924
      pz      :     0.002757  p :     0.016897
      px      :     0.003243
      py      :     0.010897

 10 H s       :     0.842566  s :     0.842566
      pz      :     0.007589  p :     0.017237
      px      :     0.005326
      py      :     0.004322

 11 H s       :     0.665471  s :     0.665471
      pz      :     0.016920  p :     0.043738
      px      :     0.013108
      py      :     0.013710


------------------------
MULLIKEN OVERLAP CHARGES
------------------------
B(  0-C ,  1-C ) :   0.4140 B(  0-C ,  2-C ) :  -0.2037 B(  0-C ,  4-H ) :   0.8326 
B(  0-C ,  5-H ) :   0.7956 B(  0-C ,  6-H ) :   0.8446 B(  0-C ,  7-H ) :  -0.0744 
B(  0-C ,  8-H ) :  -0.0594 B(  1-C ,  2-C ) :   0.5736 B(  1-C ,  3-O ) :  -0.1413 
B(  1-C ,  4-H ) :  -0.0841 B(  1-C ,  5-H ) :  -0.0622 B(  1-C ,  6-H ) :  -0.1010 
B(  1-C ,  7-H ) :   0.8347 B(  1-C ,  8-H ) :   0.7875 B(  1-C ,  9-H ) :  -0.1298 
B(  1-C , 10-H ) :  -0.0793 B(  2-C ,  3-O ) :   0.4400 B(  2-C ,  7-H ) :  -0.0625 
B(  2-C ,  8-H ) :  -0.0601 B(  2-C ,  9-H ) :   0.8859 B(  2-C , 10-H ) :   0.8309 
B(  2-C , 11-H ) :  -0.1081 B(  3-O ,  9-H ) :  -0.1224 B(  3-O , 10-H ) :  -0.0994 
B(  3-O , 11-H ) :   0.6015 B(  4-H ,  6-H ) :  -0.0557 B(  9-H , 10-H ) :  -0.0586 



                     *******************************
                     * LOEWDIN POPULATION ANALYSIS *
                     *******************************

----------------------
LOEWDIN ATOMIC CHARGES
----------------------
   0 C :   -0.429359
   1 C :   -0.310140
   2 C :   -0.002198
   3 O :   -0.617713
   4 H :    0.144492
   5 H :    0.155119
   6 H :    0.151798
   7 H :    0.159949
   8 H :    0.156670
   9 H :    0.153487
  10 H :    0.175588
  11 H :    0.262308

-------------------------------
LOEWDIN REDUCED ORBITAL CHARGES
-------------------------------
  0 C s       :     2.974980  s :     2.974980
      pz      :     1.117935  p :     3.391115
      px      :     1.126480
      py      :     1.146700
      dz2     :     0.019575  d :     0.063264
      dxz     :     0.012894
      dyz     :     0.005126
      dx2y2   :     0.014987
      dxy     :     0.010682

  1 C s       :     2.948603  s :     2.948603
      pz      :     1.105052  p :     3.284119
      px      :     1.056609
      py      :     1.122458
      dz2     :     0.018967  d :     0.077418
      dxz     :     0.018780
      dyz     :     0.006186
      dx2y2   :     0.019105
      dxy     :     0.014380

  2 C s       :     2.874154  s :     2.874154
      pz      :     0.922831  p :     2.994093
      px      :     0.999500
      py      :     1.071761
      dz2     :     0.028187  d :     0.133952
      dxz     :     0.038241
      dyz     :     0.019645
      dx2y2   :     0.027141
      dxy     :     0.020738

  3 O s       :     3.519780  s :     3.519780
      pz      :     1.328863  p :     4.820454
      px      :     1.647466
      py      :     1.844125
      dz2     :     0.084814  d :     0.277479
      dxz     :     0.083425
      dyz     :     0.051273
      dx2y2   :     0.029768
      dxy     :     0.028198

  4 H s       :     0.811930  s :     0.811930
      pz      :     0.024008  p :     0.043578
      px      :     0.011115
      py      :     0.008456

  5 H s       :     0.801209  s :     0.801209
      pz      :     0.008244  p :     0.043672
      px      :     0.023268
      py      :     0.012160

  6 H s       :     0.804800  s :     0.804800
      pz      :     0.008415  p :     0.043402
      px      :     0.008462
      py      :     0.026525

  7 H s       :     0.796884  s :     0.796884
      pz      :     0.008566  p :     0.043167
      px      :     0.008299
      py      :     0.026302

  8 H s       :     0.799629  s :     0.799629
      pz      :     0.023230  p :     0.043701
      px      :     0.012180
      py      :     0.008291

  9 H s       :     0.806604  s :     0.806604
      pz      :     0.006507  p :     0.039909
      px      :     0.007444
      py      :     0.025958

 10 H s       :     0.785350  s :     0.785350
      pz      :     0.015929  p :     0.039062
      px      :     0.013349
      py      :     0.009784

 11 H s       :     0.613390  s :     0.613390
      pz      :     0.048935  p :     0.124302
      px      :     0.038766
      py      :     0.036601


---------------------------------
LOEWDIN BOND ORDERS (THRESH 0.050000)
---------------------------------
B(  0-C ,  1-C ) :   1.1414 B(  0-C ,  2-C ) :   0.0664 B(  0-C ,  4-H ) :   0.9288 
B(  0-C ,  5-H ) :   0.9284 B(  0-C ,  6-H ) :   0.9295 B(  1-C ,  2-C ) :   1.0519 
B(  1-C ,  3-O ) :   0.1696 B(  1-C ,  7-H ) :   0.8924 B(  1-C ,  8-H ) :   0.8889 
B(  2-C ,  3-O ) :   1.4574 B(  2-C ,  9-H ) :   0.8355 B(  2-C , 10-H ) :   0.8293 
B(  3-O ,  9-H ) :   0.1055 B(  3-O , 10-H ) :   0.1014 B(  3-O , 11-H ) :   0.9771 


------------------------------------------
LOEWDIN REDUCED ORBITAL POPULATIONS PER MO
-------------------------------------------
THRESHOLD FOR PRINTING IS 0.1%%
                      0         1         2         3         4         5   
                 -18.94573 -10.07253 -10.02919 -10.02650  -0.98535  -0.74605
                   2.00000   2.00000   2.00000   2.00000   2.00000   2.00000
                  --------  --------  --------  --------  --------  --------
 0 C  s               0.0       0.0       0.1      99.7       0.1      21.9
 0 C  pz              0.0       0.0       0.0       0.0       0.0       1.5
 0 C  px              0.0       0.0       0.0       0.0       0.3       1.2
 0 C  py              0.0       0.0       0.0       0.0       0.0       0.3
 1 C  s               0.0       0.0      99.6       0.1       0.9      29.6
 1 C  pz              0.0       0.0       0.0       0.0       0.1       0.6
 1 C  px              0.0       0.1       0.0       0.0       1.2       0.2
 1 C  py              0.0       0.0       0.0       0.0       0.2       0.8
 2 C  s               0.0      99.4       0.0       0.0       9.8       7.6
 2 C  pz              0.0       0.0       0.0       0.0       6.3       0.4
 2 C  px              0.0       0.0       0.1       0.0       2.2       5.7
 2 C  py              0.0       0.0       0.0       0.0       0.2       0.6
 2 C  dz2             0.0       0.0       0.0       0.0       0.2       0.1
 2 C  dxz             0.0       0.0       0.0       0.0       0.5       0.0
 3 O  s              99.9       0.0       0.0       0.0      60.1       2.5
 3 O  pz              0.0       0.1       0.0       0.0       0.1       1.6
 3 O  px              0.0       0.0       0.0       0.0       2.3       0.4
 3 O  py              0.0       0.0       0.0       0.0       0.4       0.0
 3 O  dz2             0.0       0.1       0.0       0.0       0.1       0.0
 3 O  dxz             0.0       0.2       0.0       0.0       0.1       0.6
 3 O  dx2y2           0.0       0.0       0.0       0.0       0.1       0.2
 4 H  s               0.0       0.0       0.0       0.0       0.0       3.3
 4 H  pz              0.0       0.0       0.0       0.0       0.0       0.3
 5 H  s               0.0       0.0       0.0       0.0       0.0       3.3
 5 H  px              0.0       0.0       0.0       0.0       0.0       0.2
 6 H  s               0.0       0.0       0.0       0.0       0.0       3.3
 6 H  py              0.0       0.0       0.0       0.0       0.0       0.3
 7 H  s               0.0       0.0       0.0       0.0       0.1       4.2
 7 H  py              0.0       0.0       0.0       0.0       0.0       0.4
 8 H  s               0.0       0.0       0.0       0.0       0.1       4.6
 8 H  pz              0.0       0.0       0.0       0.0       0.0       0.3
 9 H  s               0.0       0.0       0.0       0.0       0.7       1.2
 9 H  py              0.0       0.0       0.0       0.0       0.1       0.1
10 H  s               0.0       0.0       0.0       0.0       0.7       1.2
11 H  s               0.0       0.0       0.0       0.0      10.7       0.7
11 H  pz              0.0       0.0       0.0       0.0       1.7       0.1
11 H  px              0.0       0.0       0.0       0.0       0.5       0.1
11 H  py              0.0       0.0       0.0       0.0       0.2       0.0

                      6         7         8         9        10        11   
                  -0.64870  -0.56086  -0.47514  -0.43172  -0.40718  -0.38957
                   2.00000   2.00000   2.00000   2.00000   2.00000   2.00000
                  --------  --------  --------  --------  --------  --------
 0 C  s              18.8       6.9       0.1       0.1       0.2       0.0
 0 C  pz              0.7       4.1       0.0       7.9      14.3       0.1
 0 C  px              0.7       2.2       1.1      12.7       1.5       0.6
 0 C  py              0.0       2.3       3.8       0.4       1.7      28.1
 0 C  dxz             0.0       0.1       0.0       0.0       0.2       0.0
 0 C  dx2y2           0.0       0.0       0.0       0.0       0.0       0.1
 1 C  s               0.7      13.7       0.3       0.1       0.5       0.0
 1 C  pz              4.0       2.2       0.3      16.9       0.6       2.2
 1 C  px              9.1       0.1       0.8      10.3       6.0       4.0
 1 C  py              0.0       4.1      11.0       0.4       5.2       6.2
 1 C  dxy             0.2       0.0       0.1       0.0       0.0       0.0
 2 C  s              17.7       5.1       1.4       0.2       0.9       0.1
 2 C  pz              2.6       0.2       1.6       7.8      19.5       0.1
 2 C  px              0.1       6.0      11.0       3.2       0.7       1.2
 2 C  py              0.0       2.9      13.0       1.6       4.6      16.9
 2 C  dxz             0.0       0.0       0.2       0.0       0.4       0.0
 2 C  dx2y2           0.0       0.0       0.1       0.0       0.1       0.2
 2 C  dxy             0.0       0.2       0.0       0.1       0.0       0.0
 3 O  s               2.0       0.4       1.6       2.0       0.1       0.5
 3 O  pz             10.6      13.7      23.0       0.3      13.4       0.0
 3 O  px              0.4       0.0       2.5      10.4       1.2       0.3
 3 O  py              0.0       0.1       4.8       0.3       1.4      10.5
 3 O  dz2             0.4       0.2       0.0       0.4       1.2       0.0
 3 O  dxz             1.4       0.3       0.1       0.1       0.1       0.0
 3 O  dyz             0.1       0.3       0.1       0.0       0.3       0.5
 3 O  dx2y2           0.0       0.0       0.0       0.5       0.0       0.1
 3 O  dxy             0.0       0.2       0.6       0.0       0.1       0.2
 4 H  s               5.1       3.4       0.0       5.0       5.5       0.1
 4 H  pz              0.3       0.2       0.0       0.2       0.1       0.0
 4 H  py              0.0       0.0       0.0       0.0       0.0       0.2
 5 H  s               5.1       2.8       0.9       3.4       1.5       4.0
 5 H  px              0.3       0.1       0.0       0.0       0.0       0.2
 6 H  s               4.4       3.9       0.6       1.2       0.7      11.8
 6 H  py              0.4       0.2       0.0       0.1       0.0       0.2
 7 H  s               0.2       6.7       3.8       1.1       1.3       2.2
 7 H  px              0.0       0.0       0.0       0.0       0.0       0.1
 7 H  py              0.0       0.4       0.1       0.1       0.0       0.0
 8 H  s               0.3       6.5       0.0       9.4       0.5       0.2
 8 H  pz              0.0       0.3       0.0       0.2       0.1       0.0
 9 H  s               4.2       3.0       8.9       0.5       0.2       7.4
 9 H  pz              0.0       0.0       0.0       0.0       0.2       0.0
 9 H  py              0.4       0.2       0.4       0.0       0.0       0.2
10 H  s               5.8       3.0       0.1       2.1      12.0       0.3
10 H  pz              0.3       0.2       0.1       0.0       0.1       0.0
10 H  px              0.2       0.0       0.0       0.0       0.3       0.0
11 H  s               2.8       3.0       7.0       0.0       2.7       0.1
11 H  pz              0.2       0.1       0.1       0.0       0.0       0.0
11 H  px              0.2       0.2       0.1       0.2       0.1       0.0
11 H  py              0.1       0.1       0.0       0.0       0.1       0.1

                     12        13        14        15        16        17   
                  -0.34892  -0.32745  -0.31685  -0.28821  -0.23454   0.05795
                   2.00000   2.00000   2.00000   2.00000   2.00000   0.00000
                  --------  --------  --------  --------  --------  --------
 0 C  s               0.1       0.6       0.0       0.2       0.1       9.9
 0 C  pz              1.3      15.4       8.3       2.0       0.0       1.9
 0 C  px             29.9       0.5       0.2       5.3       0.3       1.1
 0 C  py              0.2      10.2      10.1       0.0       0.1       1.2
 0 C  dz2             0.3       0.0       0.5       0.1       0.0       0.0
 0 C  dxz             0.0       0.2       0.0       0.0       0.0       0.1
 0 C  dx2y2           0.0       0.2       0.3       0.0       0.1       0.2
 0 C  dxy             0.2       0.0       0.1       0.0       0.0       0.3
 1 C  s               0.3       0.3       0.0       0.1       1.0       1.4
 1 C  pz              0.8      16.5      10.7       0.2       0.1       0.1
 1 C  px              4.6       0.3       0.6       9.8       5.7       0.2
 1 C  py              0.1      11.0      14.8       0.1       2.2       0.3
 1 C  dz2             0.2       0.0       0.4       0.2       0.0       0.0
 1 C  dxz             0.0       0.5       0.1       0.0       0.1       0.4
 1 C  dx2y2           0.1       0.2       0.3       0.1       0.1       0.0
 1 C  dxy             0.1       0.0       0.2       0.1       0.0       0.0
 2 C  s               0.9       0.2       0.2       0.0       0.2       3.7
 2 C  pz              2.7       2.3       0.8       1.6       0.1      13.5
 2 C  px              2.4       1.0       1.8      13.4       1.3       2.2
 2 C  py              3.1       1.6       0.9       3.0       5.2       0.9
 2 C  dz2             0.1       0.0       0.0       0.9       0.0       0.6
 2 C  dxz             0.0       0.3       0.2       0.2       0.0       0.8
 2 C  dyz             0.0       0.0       0.0       0.2       0.6       0.1
 2 C  dx2y2           0.0       0.0       0.2       0.0       0.7       0.0
 2 C  dxy             0.0       0.0       0.0       0.0       0.6       0.0
 3 O  s               2.2       0.4       0.2       3.9       0.0       7.8
 3 O  pz              0.1       2.0       1.1       0.1       0.5       2.1
 3 O  px             26.4       2.5       0.4      25.1      10.5       4.7
 3 O  py              0.1       8.6       1.6       6.2      58.2       0.8
 3 O  dz2             0.0       0.1       0.1       1.6       0.0       0.4
 3 O  dxz             0.1       0.1       0.0       0.9       0.1       2.3
 3 O  dyz             0.1       0.0       0.0       0.3       0.7       1.3
 3 O  dx2y2           0.1       0.1       0.1       0.0       0.2       0.0
 3 O  dxy             0.0       0.1       0.0       0.0       0.1       0.7
 4 H  s               5.5       4.8       7.7       0.1       0.1       2.6
 4 H  pz              0.2       0.0       0.0       0.0       0.0       0.8
 4 H  px              0.1       0.1       0.0       0.1       0.0       0.9
 4 H  py              0.0       0.1       0.0       0.0       0.0       0.0
 5 H  s              14.4       1.4       0.6       2.1       0.5       3.3
 5 H  pz              0.0       0.1       0.1       0.0       0.0       0.2
 5 H  px              0.1       0.1       0.0       0.0       0.0       0.5
 5 H  py              0.2       0.0       0.0       0.0       0.0       0.1
 6 H  s               0.1       3.3      10.6       0.0       0.1       0.5
 6 H  pz              0.0       0.2       0.0       0.0       0.0       0.1
 6 H  px              0.2       0.0       0.0       0.0       0.0       0.0
 6 H  py              0.0       0.0       0.1       0.0       0.0       0.2
 7 H  s               0.0       4.1      14.4       1.4       0.5       0.2
 7 H  pz              0.0       0.3       0.0       0.0       0.0       0.0
 7 H  py              0.0       0.0       0.2       0.0       0.0       0.0
 8 H  s               0.3       7.3       9.2       0.9       0.8       0.9
 8 H  px              0.0       0.1       0.1       0.1       0.1       0.2
 8 H  py              0.0       0.2       0.1       0.0       0.0       0.0
 9 H  s               0.6       0.2       1.0       5.1       7.3       0.9
 9 H  pz              0.0       0.0       0.0       0.0       0.0       0.5
 9 H  px              0.0       0.0       0.0       0.1       0.0       0.0
 9 H  py              0.0       0.0       0.0       0.0       0.0       0.3
10 H  s               0.4       1.9       1.0      10.8       0.0       0.6
10 H  px              0.0       0.0       0.0       0.0       0.0       0.3
10 H  py              0.1       0.0       0.0       0.0       0.1       0.2
11 H  s               0.8       0.0       0.2       2.8       0.0      21.7
11 H  pz              0.1       0.0       0.0       0.2       0.0       3.9
11 H  px              0.1       0.1       0.0       0.2       0.2       1.3
11 H  py              0.0       0.1       0.0       0.0       1.1       0.5

                     18        19        20        21        22        23   
                   0.11025   0.12195   0.13691   0.14287   0.15198   0.16860
                   0.00000   0.00000   0.00000   0.00000   0.00000   0.00000
                  --------  --------  --------  --------  --------  --------
 0 C  s               3.3      23.8       1.7       1.4       0.4       0.2
 0 C  pz              4.3       4.8       3.8       4.5       1.3      22.1
 0 C  px              3.7       9.9       7.9       6.9       1.8       2.2
 0 C  py              1.9       0.6       4.3       2.2      11.3       3.5
 0 C  dz2             0.5       0.2       0.0       0.2       0.6       0.0
 0 C  dxz             0.2       0.0       0.7       0.4       0.0       0.8
 0 C  dyz             0.4       0.0       0.1       0.4       0.2       0.5
 0 C  dx2y2           0.0       0.3       0.2       0.1       0.7       0.0
 0 C  dxy             0.3       0.3       0.5       0.0       0.0       0.5
 1 C  s              16.8       0.5       8.8       0.4       2.6       3.2
 1 C  pz              7.2       5.2       4.9       3.5       1.0       2.7
 1 C  px              1.6       6.7       2.5       7.1       4.1       5.6
 1 C  py              1.1       2.0       9.4       6.1      10.1       2.2
 1 C  dz2             0.2       0.3       0.7       0.0       0.1       0.5
 1 C  dxz             0.0       0.0       0.8       0.9       0.2       0.7
 1 C  dyz             0.0       1.0       0.1       0.2       0.1       0.1
 1 C  dx2y2           0.1       0.1       0.0       0.0       1.3       0.6
 1 C  dxy             0.0       0.2       0.2       0.8       0.8       0.1
 2 C  s              10.1       2.6       7.4       2.7       0.4       3.9
 2 C  pz              9.5       4.4       7.6       7.7       2.8       2.5
 2 C  px              3.7       6.8      11.2       2.3       5.1       4.7
 2 C  py              0.9       0.2       6.5       6.8      14.6       0.5
 2 C  dz2             0.5       0.2       0.0       0.1       0.0       0.4
 2 C  dxz             0.0       0.4       0.4       2.3       0.0       0.2
 2 C  dyz             0.0       0.1       0.2       0.4       0.0       0.1
 2 C  dx2y2           0.0       0.4       0.0       0.1       0.5       0.4
 2 C  dxy             0.3       0.1       0.5       0.0       0.1       0.3
 3 O  s               1.3       1.2       0.1       0.3       0.2       1.4
 3 O  pz              0.3       0.7       0.4       6.5       0.3       2.6
 3 O  px              0.3       0.2       0.5       0.3       0.2       0.4
 3 O  py              0.7       0.7       0.1       0.1       1.1       0.6
 3 O  dz2             3.2       0.4       0.6       0.3       0.0       0.3
 3 O  dxz             0.3       0.0       0.6       2.6       1.8       1.3
 3 O  dyz             0.4       0.1       0.3       0.6       1.2       1.1
 3 O  dx2y2           0.0       0.2       0.0       0.9       0.0       0.0
 3 O  dxy             0.0       0.5       2.0       1.3       0.9       3.3
 4 H  s               0.1       4.4       0.4       2.8       2.8       1.6
 4 H  pz              0.2       2.4       0.0       0.2       0.5       0.1
 4 H  px              0.1       0.1       0.2       0.2       0.1       0.0
 4 H  py              0.2       0.3       0.0       0.4       0.0       0.6
 5 H  s               1.9       1.4       0.0       2.9       0.2       2.5
 5 H  pz              0.1       0.0       0.4       0.1       0.0       0.2
 5 H  px              0.1       0.6       0.2       1.0       0.1       0.1
 5 H  py              0.7       0.2       0.2       0.2       0.5       0.1
 6 H  s               2.4       4.3       0.3       0.1       6.2       0.7
 6 H  pz              0.3       0.2       0.1       0.7       0.1       0.6
 6 H  px              0.3       0.3       0.4       0.0       0.0       0.4
 6 H  py              0.6       1.9       0.2       0.0       2.7       0.0
 7 H  s               2.0       2.0       0.8       0.3      10.3       0.6
 7 H  pz              0.1       0.8       0.2       0.0       0.4       0.4
 7 H  px              0.1       0.3       0.1       0.3       0.8       0.2
 7 H  py              1.2       0.2       1.8       0.0       2.2       0.2
 8 H  s               2.7       0.3       2.9       1.6       0.3      10.8
 8 H  pz              2.5       0.1       0.0       0.1       0.0       2.2
 8 H  px              0.1       0.1       0.0       0.9       0.0       1.3
 8 H  py              0.1       0.4       0.3       0.3       1.0       0.1
 9 H  s               2.3       1.5       1.4       3.3       2.8       0.2
 9 H  pz              0.0       0.3       0.1       1.0       0.0       0.0
 9 H  px              0.6       0.2       0.3       0.0       0.2       0.4
 9 H  py              0.9       0.7       1.2       1.4       1.0       0.0
10 H  s               3.5       1.0       1.2       5.8       0.4       4.9
10 H  pz              1.4       0.1       0.4       0.2       0.4       1.6
10 H  px              0.0       0.4       1.2       0.5       0.5       0.1
10 H  py              0.4       0.3       0.1       0.1       0.1       0.2
11 H  s               1.4       0.0       0.5       4.2       0.2       0.0
11 H  pz              0.7       0.0       0.1       0.6       0.0       0.1
11 H  px              0.0       0.0       0.0       0.4       0.1       0.2
11 H  py              0.0       0.0       0.0       0.1       0.0       0.1

                     24        25        26        27        28        29   
                   0.19151   0.19777   0.20407   0.22014   0.22561   0.23789
                   0.00000   0.00000   0.00000   0.00000   0.00000   0.00000
                  --------  --------  --------  --------  --------  --------
 0 C  s               0.3       0.8       0.5       0.4       2.6       2.9
 0 C  pz              1.7       1.1       5.1       1.6      16.2      22.3
 0 C  px              8.6       0.2      18.4       3.6       2.5       1.7
 0 C  py             13.2      13.4       7.2      11.8       0.3       5.0
 0 C  dz2             2.0       0.0       1.5       0.5       0.2       0.0
 0 C  dxz             0.3       0.1       0.3       0.5       1.2       0.3
 0 C  dyz             0.0       0.6       0.0       0.0       0.3       0.2
 0 C  dx2y2           0.4       1.0       2.0       0.1       0.0       0.2
 0 C  dxy             0.9       0.0       0.3       0.0       0.4       0.1
 1 C  s               0.5       0.1       0.3       0.4       4.7       0.4
 1 C  pz              0.5      14.2       2.1       0.7      12.0       6.7
 1 C  px              3.0       3.3       0.1      18.7       0.7       7.6
 1 C  py              0.5       4.8       0.2       2.5      13.7       6.1
 1 C  dz2             0.9       0.0       0.5       1.3       0.0       0.7
 1 C  dxz             0.0       0.1       0.2       0.0       0.0       0.8
 1 C  dyz             0.0       0.0       0.4       0.0       0.0       1.2
 1 C  dx2y2           0.6       0.0       0.0       0.3       0.2       0.8
 1 C  dxy             0.0       0.1       0.9       1.1       0.0       0.2
 2 C  s               0.2       1.0       0.7       1.6       0.9       0.7
 2 C  pz              4.3       8.7       3.3       3.3       0.2       0.7
 2 C  px              4.6       3.4       1.2      13.8       0.3       1.0
 2 C  py             10.8       2.0       2.4      18.4       7.8       3.1
 2 C  dz2             0.0       0.5       0.3       0.1       0.1       0.0
 2 C  dxz             0.1       0.1       0.1       0.0       0.1       0.0
 2 C  dyz             0.2       0.3       0.0       0.2       0.3       0.0
 2 C  dx2y2           0.6       0.1       0.4       0.0       0.2       0.3
 2 C  dxy             0.4       0.0       0.0       0.1       0.0       0.9
 3 O  s               0.0       0.7       0.7       0.1       0.3       0.2
 3 O  pz              1.3       2.9       1.3       0.2       0.2       0.2
 3 O  px              0.3       3.0       0.6       0.3       0.2       0.2
 3 O  py              1.1       0.2       0.2       0.6       0.1       0.3
 3 O  dz2             0.4       0.2       0.2       0.2       0.2       0.1
 3 O  dxz             0.7       0.4       0.4       0.0       1.0       0.1
 3 O  dyz             0.6       0.1       0.4       0.2       0.3       2.9
 3 O  dx2y2           0.0       3.6       0.8       1.2       1.1       0.1
 3 O  dxy             0.3       0.3       0.0       0.5       1.2       0.1
 4 H  s               8.3       1.2       6.9       3.9       1.3       5.8
 4 H  pz              1.8       0.1       0.5       1.1       0.0       1.5
 4 H  px              0.0       0.2       0.1       0.1       0.8       0.6
 4 H  py              0.1       1.2       0.5       0.0       0.1       0.5
 5 H  s              13.7       0.4       4.0       0.3       5.3       0.5
 5 H  pz              0.2       0.4       0.5       0.6       0.3       0.1
 5 H  px              3.0       0.1       2.6       0.0       1.0       0.0
 5 H  py              1.0       0.6       0.0       0.1       0.6       0.2
 6 H  s               0.9       7.4      11.6       1.4       1.2       2.2
 6 H  pz              0.2       0.1       0.1       0.0       0.5       0.2
 6 H  px              0.9       0.0       0.1       0.0       0.1       0.0
 6 H  py              0.3       0.8       1.5       0.6       0.6       0.0
 7 H  s               0.0       2.2       0.6       0.4       2.7      11.7
 7 H  pz              0.0       0.0       0.6       0.1       0.0       0.8
 7 H  px              0.0       0.1       0.3       1.3       0.0       0.1
 7 H  py              0.0       0.8       0.1       0.0       1.0       2.3
 8 H  s               0.7       2.7       3.9       2.3       3.0       0.2
 8 H  pz              0.2       1.1       0.9       0.8       1.0       0.4
 8 H  px              0.4       0.4       0.0       0.1       0.2       0.7
 8 H  py              0.0       0.0       0.0       0.3       0.0       1.0
 9 H  s               1.8       3.6       5.9       0.6       2.3       0.6
 9 H  pz              0.2       0.4       0.0       0.2       0.2       0.0
 9 H  px              0.3       0.0       0.0       0.1       0.0       0.9
 9 H  py              0.1       1.2       1.7       0.1       0.7       0.1
10 H  s               2.6       0.1       0.7       0.5       5.0       0.9
10 H  pz              0.4       0.4       0.4       0.2       1.0       0.0
10 H  px              0.2       0.2       0.1       0.1       0.6       0.1
10 H  py              1.6       0.4       0.1       0.3       0.0       0.0
11 H  s               1.4       5.7       2.5       0.2       0.5       0.3
11 H  pz              0.2       0.4       0.6       0.1       0.2       0.0
11 H  px              0.1       0.5       0.2       0.0       0.1       0.0
11 H  py              0.0       0.1       0.0       0.0       0.1       0.2

                     30        31        32        33        34        35   
                   0.25129   0.28924   0.30420   0.32285   0.33934   0.35739
                   0.00000   0.00000   0.00000   0.00000   0.00000   0.00000
                  --------  --------  --------  --------  --------  --------
 0 C  s               0.3       0.6       0.9       0.3       1.6       1.6
 0 C  pz              7.3       3.6       0.7       2.0       0.2       3.2
 0 C  px              2.6      19.3       2.8       3.9       3.6       1.5
 0 C  py             21.9       6.8       2.9       1.2       1.7       0.8
 0 C  dz2             0.0       0.0       0.3       0.1       0.0       0.0
 0 C  dxz             0.2       0.1       0.3       0.0       0.0       0.6
 0 C  dyz             0.0       0.1       0.5       0.1       0.0       0.0
 0 C  dx2y2           0.0       0.3       0.3       0.1       0.0       0.0
 0 C  dxy             0.1       0.7       0.0       0.5       0.7       0.2
 1 C  s               1.0       0.1       0.4       0.4       0.1       6.3
 1 C  pz              2.2       0.7      24.2       0.7       0.8       3.1
 1 C  px              1.0       2.5       1.6       7.1       0.9       9.6
 1 C  py             23.4       1.7      10.9       3.6       0.5       8.4
 1 C  dz2             0.1       0.0       0.9       0.0       0.2       0.0
 1 C  dxz             0.5       0.2       0.8       0.2       0.0       0.2
 1 C  dyz             0.1       0.0       0.0       0.1       0.0       0.0
 1 C  dx2y2           0.0       0.6       1.4       0.1       0.0       0.2
 1 C  dxy             0.1       0.4       0.1       0.0       0.1       0.0
 2 C  s               0.4       2.6       0.1       3.6       1.6      12.0
 2 C  pz              1.8       3.8       1.3      12.2      27.2       0.9
 2 C  px              6.9       4.8       1.2      13.1       6.5       1.1
 2 C  py              3.1       7.0       2.3       8.8       2.6       3.5
 2 C  dz2             0.0       0.0       0.0       0.1       0.9       1.6
 2 C  dxz             0.2       0.9       0.0       1.1       0.0       0.0
 2 C  dyz             0.0       0.0       0.0       0.4       0.2       0.1
 2 C  dx2y2           0.6       0.6       0.5       0.1       0.1       0.3
 2 C  dxy             0.8       0.2       0.0       0.1       0.2       0.1
 3 O  s               0.0       0.9       0.4       0.1       1.0       1.5
 3 O  pz              0.4       6.2       0.0       3.1       3.9       2.1
 3 O  px              0.5       1.2       7.0       7.6       1.3       2.0
 3 O  py              0.5       1.6       8.8       3.2       6.5       0.3
 3 O  dz2             0.1       0.2       3.4       1.9       9.2       8.6
 3 O  dxz             0.9       0.1       0.1       4.4       4.7       7.9
 3 O  dyz             1.8       3.0       0.7       0.8       0.7       0.0
 3 O  dx2y2           0.0       0.5       0.0       0.4       1.5       0.3
 3 O  dxy             0.5       0.1       1.2       0.0       0.1       0.0
 4 H  s               0.4       1.9       0.2       0.4       0.1       0.0
 4 H  pz              0.6       1.3       0.0       0.0       0.0       0.0
 4 H  px              0.1       0.2       1.4       0.0       0.1       0.1
 4 H  py              0.0       0.0       0.2       0.3       0.3       0.0
 5 H  s               0.1       2.9       1.3       1.6       4.8       0.2
 5 H  pz              0.3       0.0       0.5       0.0       0.0       0.1
 5 H  px              0.0       0.1       0.3       0.0       0.5       0.0
 5 H  py              0.1       0.0       0.1       0.8       1.0       0.0
 6 H  s               3.8       0.7       0.8       0.1       0.5       1.3
 6 H  pz              0.0       0.1       0.7       0.1       0.0       0.0
 6 H  px              0.6       0.5       0.0       0.6       0.4       0.2
 6 H  py              1.8       0.1       0.1       0.3       0.7       0.3
 7 H  s               1.5       3.4       4.1       0.0       0.6       1.1
 7 H  pz              0.2       0.0       1.2       0.0       0.1       0.0
 7 H  px              0.0       0.1       0.0       0.1       0.0       0.0
 7 H  py              0.6       0.6       0.2       0.1       0.2       0.2
 8 H  s               1.1       1.0       5.8       0.8       2.4       1.0
 8 H  pz              0.4       0.4       0.1       0.1       0.4       0.1
 8 H  px              0.3       0.0       0.3       0.4       0.2       0.0
 8 H  py              0.3       0.1       0.4       0.1       0.1       0.0
 9 H  s               3.5       2.3       3.5       0.2       0.4       9.2
 9 H  pz              0.1       0.3       0.4       0.5       0.6       0.1
 9 H  px              0.9       0.1       0.0       0.0       0.1       0.0
 9 H  py              0.9       0.0       0.7       0.3       0.1       2.0
10 H  s               1.6       1.4       0.0       7.2       5.5       1.8
10 H  pz              0.0       0.2       0.0       1.9       0.8       0.0
10 H  px              0.1       0.2       0.2       0.2       0.0       1.4
10 H  py              1.0       0.6       0.0       0.0       0.0       0.4
11 H  s               0.6       8.0       1.1       1.5       0.2       2.1
11 H  pz              0.0       1.6       0.4       0.6       0.4       0.2
11 H  px              0.0       0.1       0.0       0.1       0.7       0.1
11 H  py              0.0       0.3       0.1       0.0       0.3       0.1

                     36        37        38        39        40        41   
                   0.40875   0.44385   0.44944   0.47881   0.50775   0.53819
                   0.00000   0.00000   0.00000   0.00000   0.00000   0.00000
                  --------  --------  --------  --------  --------  --------
 0 C  s              13.7       0.8       5.9      10.5      26.5       0.1
 0 C  pz              4.0       0.1       3.9       3.4       3.6       0.3
 0 C  px              3.6       1.3       3.2       2.0       4.9       0.6
 0 C  py              0.8       0.0       2.3       1.1       1.0       0.1
 0 C  dz2             0.1       0.1       0.1       0.0       0.0       0.0
 0 C  dxz             0.7       0.0       0.3       0.2       0.1       0.0
 0 C  dyz             0.1       0.0       0.2       0.1       0.3       0.0
 0 C  dx2y2           0.1       0.0       0.0       0.0       0.0       0.1
 0 C  dxy             0.1       0.0       0.3       0.0       0.1       0.1
 1 C  s               3.6       2.5      17.0       9.0       0.9       8.1
 1 C  pz             11.8       0.4       4.8       1.0       0.4       1.0
 1 C  px             13.3      16.5       4.5       4.2       0.3       1.3
 1 C  py              0.3       1.2       4.4       1.4       0.1       1.7
 1 C  dz2             0.1       0.1       0.0       0.1       0.1       0.1
 1 C  dxz             0.4       0.0       0.5       0.0       0.0       0.0
 1 C  dyz             0.1       0.0       0.4       0.0       0.2       0.0
 1 C  dx2y2           0.1       0.0       0.0       0.0       0.0       0.1
 1 C  dxy             0.3       0.5       0.0       0.2       0.0       0.0
 2 C  s               0.7      14.4       1.4       2.1       6.5       0.0
 2 C  pz              2.7       0.2       3.4       0.3       1.2       1.3
 2 C  px              0.7      14.2       1.4       2.3       2.6       0.1
 2 C  py              0.1       3.0       0.4       0.4       1.1       1.8
 2 C  dz2             0.4       0.0       0.2       0.0       0.0       0.5
 2 C  dxz             0.0       0.0       0.0       0.1       0.3       0.0
 2 C  dyz             0.0       0.2       0.3       0.1       0.2       0.0
 2 C  dx2y2           0.1       0.5       0.0       0.1       0.0       0.4
 2 C  dxy             0.2       1.6       0.2       0.0       0.0       0.0
 3 O  s               0.7       0.8       0.7       1.3       3.0       0.2
 3 O  pz              3.0       1.9       6.0       2.0       5.1       1.7
 3 O  px              3.9       1.3       2.7       3.8       5.1      13.3
 3 O  py              0.5       1.9       4.4       1.7       0.5      11.1
 3 O  dz2             2.2       2.3       0.4       1.3       1.6       0.0
 3 O  dxz             0.6       3.4       0.1      11.9       7.8       0.1
 3 O  dyz             1.7       1.7      10.9       5.4       4.0       3.1
 3 O  dx2y2           1.1      12.1       1.5       4.0       0.1      19.5
 3 O  dxy             4.7       3.2       4.2       0.5       5.0      24.2
 4 H  s               4.5       0.0       0.6       2.4       2.9       0.4
 4 H  pz              1.6       0.1       0.2       0.7       1.2       0.2
 4 H  px              0.0       0.2       0.1       0.1       0.0       0.0
 4 H  py              0.0       0.0       0.0       0.0       0.5       0.1
 5 H  s               4.6       2.3       0.6       1.6       0.1       0.1
 5 H  pz              0.1       0.2       0.0       0.1       0.0       0.0
 5 H  px              1.4       1.3       0.0       0.3       0.0       0.0
 5 H  py              0.0       0.1       0.0       0.2       0.0       0.2
 6 H  s               3.1       0.9       0.7       2.1       2.5       0.2
 6 H  pz              0.0       0.0       0.2       0.0       0.3       0.0
 6 H  px              0.1       0.0       0.2       0.1       0.5       0.2
 6 H  py              1.0       0.2       0.1       0.8       0.6       0.0
 7 H  s               1.6       1.8       0.1       2.6       0.1       1.1
 7 H  pz              0.0       0.0       0.2       0.1       0.1       0.0
 7 H  px              0.1       0.0       0.0       0.3       0.0       0.0
 7 H  py              0.5       0.7       0.2       0.7       0.0       0.5
 8 H  s               1.3       1.0       0.7       5.7       0.0       1.7
 8 H  pz              0.2       0.0       0.1       1.4       0.1       0.8
 8 H  px              0.0       0.1       0.1       0.3       0.3       0.0
 8 H  py              0.0       0.1       0.2       0.0       0.0       0.1
 9 H  s               0.8       1.6       0.3       1.4       1.2       0.8
 9 H  pz              0.0       0.2       0.0       0.0       0.1       0.0
 9 H  px              0.1       0.1       1.2       0.1       0.0       0.0
 9 H  py              0.2       0.1       0.1       0.1       0.3       0.5
10 H  s               0.4       0.3       5.2       2.8       0.1       0.5
10 H  pz              0.0       0.0       0.9       1.2       0.1       0.0
10 H  px              0.3       0.0       0.7       0.5       0.1       0.1
10 H  py              0.0       0.1       0.1       0.0       0.0       0.1
11 H  s               1.2       1.9       0.4       2.7       5.1       0.6
11 H  pz              0.0       0.1       0.1       0.1       0.0       0.1
11 H  px              0.0       0.1       0.0       0.9       0.3       0.2
11 H  py              0.1       0.0       0.5       0.3       0.3       0.3

                     42        43        44        45        46        47   
                   0.56021   0.65120   0.66079   0.72640   0.73616   0.76514
                   0.00000   0.00000   0.00000   0.00000   0.00000   0.00000
                  --------  --------  --------  --------  --------  --------
 0 C  s               0.2       1.2       1.5       0.7       1.0       2.5
 0 C  pz              0.0       0.1       0.7       0.1       0.3       0.1
 0 C  px              0.6       0.7       0.6       0.2       0.2       0.8
 0 C  py              0.0       0.6       0.6       1.3       0.0       0.2
 0 C  dz2             0.1       0.1       0.0       0.0       0.1       0.3
 0 C  dxz             0.0       0.1       0.1       0.2       0.0       0.0
 0 C  dyz             0.0       0.1       0.0       0.3       0.0       0.0
 0 C  dx2y2           0.1       0.1       0.3       0.0       0.0       0.0
 0 C  dxy             0.0       0.0       0.0       0.2       0.1       0.3
 1 C  s               1.0      21.4       0.5       1.6       0.4       5.0
 1 C  pz              1.5       0.9       1.4       4.8       0.1       0.6
[...]
 4 H  py              0.0       0.0       0.1       0.4       0.4       0.2
 5 H  s               0.1       3.4       3.2       0.2       3.2       2.2
 5 H  pz              0.0       0.9       0.0       0.0       0.2       0.0
 5 H  px              0.3       8.6       4.6       0.3       6.2       4.1
 5 H  py              0.1       1.5       4.0       0.2       1.3       1.0
 6 H  s               0.0       2.0       1.2       4.1       0.0       3.4
 6 H  pz              0.0       0.0       0.0       1.0       0.1       0.3
 6 H  px              0.0       0.2       0.2       0.1       0.1       0.9
 6 H  py              0.0       3.6       3.9      11.0       0.0       7.0
 7 H  s               0.5       3.0       0.0       0.1       0.6       1.2
 7 H  pz              0.0       1.0       1.0       0.0       0.3       0.1
 7 H  px              0.0       0.0       0.6       0.5       0.0       0.2
 7 H  py              2.1       6.8       0.1       0.1       2.2       2.6
 8 H  s               0.2       0.5       4.1       0.2       2.5       0.6
 8 H  pz              0.2       1.0       8.1       0.1       6.8       1.5
 8 H  px              0.1       0.0       2.3       1.2       0.9       0.0
 8 H  py              0.0       0.7       0.8       0.1       0.1       0.1
 9 H  s               0.3       1.1       0.3       0.4       1.0       3.4
 9 H  pz              0.1       0.1       0.0       0.0       0.0       0.7
 9 H  px              0.2       0.2       0.2       0.8       0.3       0.0
 9 H  py              1.7       2.2       1.0       1.4       2.4       7.1
10 H  s               0.1       0.9       0.5       2.4       0.0       5.4
10 H  pz              2.0       1.7       0.6       5.1       0.0       9.0
10 H  px              0.9       0.4       0.2       1.1       0.0       3.0
10 H  py              0.0       0.0       0.9       1.8       0.2       0.6
11 H  pz              3.7       0.1       0.0       0.0       0.1       0.1
11 H  px              7.7       0.0       0.1       0.0       0.0       0.1
11 H  py              0.9       0.0       0.0       0.0       0.0       0.0

                    114       115       116       117       118       119   
                   3.64879   4.09896   4.59235  21.87662  21.97501  22.01300
                   0.00000   0.00000   0.00000   0.00000   0.00000   0.00000
                  --------  --------  --------  --------  --------  --------
 0 C  s               0.0       0.1       0.0      69.2      16.2      14.3
 0 C  pz              0.3       0.0       0.0       0.0       0.0       0.0
 0 C  px              0.2       0.1       0.0       0.0       0.0       0.0
 0 C  py              0.4       0.0       0.0       0.0       0.0       0.0
 0 C  dz2             1.3       0.0       0.0       0.0       0.0       0.0
 0 C  dxz             0.4       0.0       0.0       0.0       0.0       0.0
 0 C  dyz             0.1       0.0       0.0       0.0       0.0       0.0
 0 C  dx2y2           1.5       0.0       0.0       0.0       0.0       0.0
 1 C  s               0.2       0.1       0.0      13.1      83.6       3.0
 1 C  pz              2.9       0.1       0.0       0.0       0.0       0.0
 1 C  px              0.3       0.0       0.0       0.0       0.0       0.0
 1 C  py              4.2       0.2       0.0       0.0       0.0       0.0
 1 C  dz2             7.0       0.1       0.0       0.0       0.0       0.0
 1 C  dxz             0.9       0.3       0.0       0.0       0.0       0.0
 1 C  dyz             0.8       0.0       0.0       0.0       0.0       0.0
 1 C  dx2y2           8.2       0.0       0.0       0.0       0.0       0.0
 1 C  dxy             1.0       0.0       0.0       0.0       0.0       0.0
 2 C  s               0.1       1.7       0.2      17.3       0.0      82.3
 2 C  pz              0.6       5.9       0.9       0.0       0.0       0.0
 2 C  px              0.2       2.8       0.3       0.0       0.0       0.0
 2 C  py              3.4       0.5       0.0       0.0       0.0       0.0
 2 C  dz2             2.8       3.4       0.1       0.0       0.0       0.0
 2 C  dxz             1.4       7.9       1.6       0.0       0.0       0.0
 2 C  dyz             1.5       0.4       0.2       0.0       0.0       0.0
 2 C  dx2y2           4.2       1.5       0.1       0.0       0.0       0.0
 2 C  dxy             0.6       0.1       0.0       0.0       0.0       0.0
 3 O  s               0.5      24.9       6.3       0.0       0.0       0.1
 3 O  pz              0.0       8.5      16.7       0.0       0.0       0.0
 3 O  px              0.0       9.7       1.8       0.0       0.0       0.0
 3 O  py              0.0       1.0       0.9       0.0       0.0       0.0
 3 O  dz2             0.4      12.1       3.9       0.0       0.0       0.0
 3 O  dxz             0.1       6.7      26.9       0.0       0.0       0.0
 3 O  dyz             0.3       0.0       7.4       0.0       0.0       0.0
 3 O  dx2y2           0.3       4.0       0.4       0.0       0.0       0.0
 3 O  dxy             0.1       2.6       2.0       0.0       0.0       0.0
 4 H  s               0.6       0.0       0.0       0.0       0.0       0.0
 4 H  pz              1.8       0.0       0.0       0.0       0.0       0.0
 6 H  s               0.7       0.0       0.0       0.0       0.0       0.0
 6 H  py              1.8       0.0       0.0       0.0       0.0       0.0
 7 H  s               5.9       0.0       0.0       0.0       0.0       0.0
 7 H  px              0.4       0.0       0.0       0.0       0.0       0.0
 7 H  py             14.1       0.0       0.0       0.0       0.0       0.0
 8 H  s               3.4       0.1       0.0       0.0       0.0       0.0
 8 H  pz              5.5       0.1       0.0       0.0       0.0       0.0
 8 H  px              1.8       0.1       0.0       0.0       0.0       0.0
 9 H  s               3.2       0.6       0.0       0.0       0.0       0.0
 9 H  pz              0.5       0.2       0.0       0.0       0.0       0.0
 9 H  py              8.0       1.0       0.0       0.0       0.0       0.0
10 H  s               1.8       0.2       0.2       0.0       0.0       0.0
10 H  pz              1.6       0.0       0.1       0.0       0.0       0.0
10 H  px              2.1       0.7       0.1       0.0       0.0       0.0
10 H  py              0.2       0.2       0.0       0.0       0.0       0.0
11 H  s               0.0       0.7      14.0       0.0       0.0       0.0
11 H  pz              0.0       0.9      10.3       0.0       0.0       0.0
11 H  px              0.2       0.2       4.1       0.0       0.0       0.0
11 H  py              0.0       0.1       1.4       0.0       0.0       0.0

                    120   
                  43.59846
                   0.00000
                  --------
 3 O  s              99.9


                      *****************************
                      * MAYER POPULATION ANALYSIS *
                      *****************************

  NA   - Mulliken gross atomic population
  ZA   - Total nuclear charge
  QA   - Mulliken gross atomic charge
  VA   - Mayer's total valence
  BVA  - Mayer's bonded valence
  FA   - Mayer's free valence

  ATOM       NA         ZA         QA         VA         BVA        FA
  0 C      6.4751     6.0000    -0.4751     3.7956     3.7956     0.0000
  1 C      6.2265     6.0000    -0.2265     3.6384     3.6384     0.0000
  2 C      6.1467     6.0000    -0.1467     3.7615     3.7615     0.0000
  3 O      8.4192     8.0000    -0.4192     1.8048     1.8048     0.0000
  4 H      0.8686     1.0000     0.1314     0.9671     0.9671     0.0000
  5 H      0.8476     1.0000     0.1524     0.9633     0.9633    -0.0000
  6 H      0.8518     1.0000     0.1482     0.9633     0.9633     0.0000
  7 H      0.8514     1.0000     0.1486     0.9612     0.9612    -0.0000
  8 H      0.8671     1.0000     0.1329     0.9646     0.9646     0.0000
  9 H      0.8768     1.0000     0.1232     0.9554     0.9554     0.0000
 10 H      0.8598     1.0000     0.1402     0.9572     0.9572     0.0000
 11 H      0.7092     1.0000     0.2908     0.9157     0.9157    -0.0000

  Mayer bond orders larger than 0.100000
B(  0-C ,  1-C ) :   0.8982 B(  0-C ,  4-H ) :   0.9781 B(  0-C ,  5-H ) :   0.9694 
B(  0-C ,  6-H ) :   0.9799 B(  1-C ,  2-C ) :   0.9242 B(  1-C ,  7-H ) :   0.9669 
B(  1-C ,  8-H ) :   0.9607 B(  2-C ,  3-O ) :   0.9273 B(  2-C ,  9-H ) :   0.9790 
B(  2-C , 10-H ) :   0.9760 B(  3-O , 11-H ) :   0.8967 

-------
TIMINGS
-------

Total SCF time: 0 days 0 hours 0 min 6 sec 

Total time                  ....       6.162 sec
Sum of individual times     ....       6.128 sec  ( 99.5%)

SCF preparation             ....       0.227 sec  (  3.7%)
Fock matrix formation       ....       5.693 sec  ( 92.4%)
  Startup                   ....       0.007 sec  (  0.1% of F)
  Split-RI-J                ....       0.739 sec  ( 13.0% of F)
  XC integration            ....       4.855 sec  ( 85.3% of F)
    Basis function eval.    ....       0.962 sec  ( 19.8% of XC)
    Density eval.           ....       1.377 sec  ( 28.4% of XC)
    XC-Functional eval.     ....       0.843 sec  ( 17.4% of XC)
    XC-Potential eval.      ....       1.437 sec  ( 29.6% of XC)
Diagonalization             ....       0.000 sec  (  0.0%)
Density matrix formation    ....       0.035 sec  (  0.6%)
Total Energy calculation    ....       0.002 sec  (  0.0%)
Population analysis         ....       0.076 sec  (  1.2%)
Orbital Transformation      ....       0.011 sec  (  0.2%)
Orbital Orthonormalization  ....       0.000 sec  (  0.0%)
DIIS solution               ....       0.075 sec  (  1.2%)
  MO trafo                  ....       0.000 sec  (  0.0 % of DIIS)
  Orb grad                  ....       0.000 sec  (  0.0 % of DIIS)
  Energy W gradient         ....       0.000 sec  (  0.0 % of DIIS)
  DIIS error                ....       0.002 sec  (  3.3 % of DIIS)
  DIIS work                 ....       0.065 sec  ( 87.5 % of DIIS)
  Form Q                    ....       0.000 sec  (  0.0 % of DIIS)
  Form QpQm                 ....       0.000 sec  (  0.0 % of DIIS)
  Exp/Cayley                ....       0.000 sec  (  0.0 % of DIIS)
  Orb update                ....       0.000 sec  (  0.0 % of DIIS)
  Wake-sleep                ....       0.001 sec  (  1.6 % of DIIS)
SOSCF solution              ....       0.009 sec  (  0.1%)
  MO trafo                  ....       0.007 sec  ( 78.9 % of SOSCF)
  Orb grad                  ....       0.000 sec  (  0.7 % of SOSCF)
  Rot update                ....       0.000 sec  (  0.2 % of SOSCF)
  Step                      ....       0.002 sec  ( 19.8 % of SOSCF)
Finished LeanSCF after   6.2 sec

Maximum memory used throughout the entire LEANSCF-calculation: 12.9 MB


-------------------------------------------------------------------------------
                          DFT DISPERSION CORRECTION                            
                                                                               
                                DFTD4 V3.4.0                                   
-------------------------------------------------------------------------------
The R2SCAN3C composite method is recognized
Using three-body term ABC
Active option DFTDOPT                   ...         5   

-------------------------   ----------------
Dispersion correction           -0.002130446
-------------------------   ----------------

------------------   -----------------
gCP correction             0.007062050
------------------   -----------------

-------------------------   --------------------
FINAL SINGLE POINT ENERGY      -194.298680951572
-------------------------   --------------------


------------------------------------------------------------------------------
                              ORCA PROPERTY CALCULATIONS
------------------------------------------------------------------------------

GBWName                                 ... sp.gbw
Number of atoms                         ...     12
Number of basis functions               ...    121
Max core memory                         ...   1024 MB

Electric properties:
Dipole moment                           ... YES
Quadrupole moment                       ...  NO
Static polarizability (Dipole/Dipole)   ...  NO
Static polarizability (Dipole/Quad.)    ...  NO
Static polarizability (Quad./Quad.)     ...  NO
Static polarizability (Velocity)        ...  NO

Atomic electric properties:
Dipole moment                           ...  NO
Quadrupole moment                       ...  NO
Static polarizability                   ...  NO

Choice of electric origin               ... Center of mass
Position of electric origin             ...    -0.000032     0.000001     0.000008

General magnetic properties:
Magnetizability                         ...  NO

EPR properties:
g-Tensor (aka g-matrix)                 ...  NO
Zero-Field splitting spin-orbit         ...  NO
Zero-field splitting spin-spin          ...  NO
Hyperfine couplings                     ...  NO (   0 nuclei)
Quadrupole couplings                    ...  NO (   0 nuclei)
Contact density                         ...  NO (   0 nuclei)

NMR properties:
Chemical shifts                         ...  NO (   0 nuclei)
Spin-rotation constants                 ...  NO (   0 nuclei)
Spin-spin couplings                     ...  NO (   0 nuclei,    0 pairs)

Choice of magnetic origin               ... GIAO
Position of magnetic origin             ...     0.000000     0.000000     0.000000

Properties with geometric perturbations:
SCF Hessian                             ...  NO
IR spectrum                             ...  NO
VCD spectrum                            ...  NO
X-ray spectroscopy properties:
SCF XES/XAS/RIXS spectra                ...  NO


-------------
DIPOLE MOMENT
-------------

Method             : SCF
Type of density    : Electron Density
Multiplicity       :   1
Irrep              :   0
Energy             :  -194.3036125557408127 Eh
Relativity type    : 
Basis              : AO
                                X                 Y                 Z
Electronic contribution:      3.462298718      -0.191986733      -0.419741339
Nuclear contribution   :     -4.106673746       0.368342596       0.437516132
                        -----------------------------------------
Total Dipole Moment    :     -0.644375028       0.176355863       0.017774794
                        -----------------------------------------
Magnitude (a.u.)       :      0.668308694
Magnitude (Debye)      :      1.698705701



--------------------
Rotational spectrum 
--------------------
 
Rotational constants in cm-1:             0.490158             0.166564             0.142292 
Rotational constants in MHz :         14694.581084          4993.457658          4265.793298 

Dipole components along the rotational axes: 
x,y,z [a.u.] :    -0.629353     0.021416     0.223814 
x,y,z [Debye]:    -1.599688     0.054435     0.568889 

 

Dipole moment calculation done in   0.0 sec 

Maximum memory used throughout the entire PROP-calculation: 7.2 MB

--------------------------------
SUGGESTED CITATIONS FOR THIS RUN
--------------------------------

Below you find a list of papers that are relevant to this ORCA run
We neither can nor want to force you to cite these papers, but we appreciate if you do
You receive ORCA, which is the product of decades of hard work by many enthusiastic individuals, for free
The only thing we kindly ask in return is that you cite our papers,
We deeply appreciate it, if you show your appreciation for ORCA by not just citing the generic ORCA reference.

Please note that relegating all ORCA citations to the supporting information does *not* help us.
SI sections are not indexed - citations you put there will not count into any citation statistics
But we need these citations in order to attract the funding resources that allow us to do what we are doing

Therefore, if you are a happy ORCA user, please consider citing a few of the papers listed below in the main body of your paper

In addition to the list printed below, the program has created the file sp.bibtex that contains the list in bibtex format
You can import this file easily into all common literature databanks and citation aid programs


List of essential papers. We consider these as the minimum necessary citations

  1. Neese,F.
     Software update: the ORCA program system, version 5.0
     WIRES Comput. Molec. Sci., 2022 12(1)e1606
     doi.org/10.1002/wcms.1606
  2. Grimme,S.; Hansen,A.; Ehlert,S.; Mewes,J.
     r2SCAN-3c: A 'Swiss army knife' composite electronic-structure method
     J. Chem. Phys., 2021 154 064103
     doi.org/10.1063/5.0040021

List of papers to cite with high priority. The work reported in these papers was absolutely
necessary for this run to complete.
Our perspective: the developers of density functionals and basis sets usually get cited in chemistry papers
Good! But without the algorithms to do something with them, the functionals or basis sets would not do anything.
Hence, in our opinion, the algorithm design and method developments papers are equally worthy of getting cited

  1. Neese,F.
     An improvement of the resolution of the identity approximation for the formation of the Coulomb matrix
     J. Comp. Chem., 2003 24(14)1740-1747
     doi.org/10.1002/jcc.10318
  2. Neese,F.
     The SHARK Integral Generation and Digestion System
     J. Comp. Chem., 2022  1-16
     doi.org/10.1002/jcc.26942
  3. Lehtola,S.; Steigemann,C.; Oliveira,M.; Marques,M.
     Recent developments in Libxc - A comprehensive library of functionals for density functional theory
     Software X, 2018 7 
     doi.org/10.1016/j.softx.2017.11.002
  4. Caldeweyher,E.; Bannwarth,C.; Grimme,S.
     Extension of the D3 dispersion coefficient model
     J. Chem. Phys., 2017 147 034112
     doi.org/10.1063/1.4993215
  5. Caldeweyher,E.; Ehlert,S.; Hansen,A.; Neugebauer,H.; Spicher,S.; Bannwarth,C.; Grimme,S.
     A generally applicable atomic-charge dependent London dispersion correction
     J. Chem. Phys., 2019 150 154122
     doi.org/10.1063/1.5090222
  6. Caldeweyher,E.; Mewes,J.; Ehlert,S.; Grimme,S.
     Extension and evaluation of the D4 London-dispersion model for periodic systems
     Phys. Chem. Chem. Phys., 2020 22(16)8499-8512
     doi.org/10.1039/D0CP00502A
  7. Wittmann,L.; Gordiy,I.; Friede,M.; Helmich-Paris,B.; Grimme,S.; Hansen,A.; Bursch,M.
     Extension of the D3 and D4 London Dispersion Corrections to the full Actinides Series
     Phys. Chem. Chem. Phys., 2024 26(32)21379-21394
     doi.org/https://doi.org/10.1039/D4CP01514B 

List of suggested additional citations. These are papers that are important in the 'surrounding' of 
of this run, or papers that preceded the highly important papers. If you like your results we are grateful for a citation.

  1. Neese,F.
     The ORCA program system
     WIRES Comput. Molec. Sci., 2012 2(1)73-78
     doi.org/10.1002/wcms.81
  2. Neese,F.
     Software update: the ORCA program system, version 4.0
     WIRES Comput. Molec. Sci., 2018 8(1)1-6
     doi.org/10.1002/wcms.1327
  3. Neese,F.; Wennmohs,F.; Becker,U.; Riplinger,C.
     The ORCA quantum chemistry program package
     J. Chem. Phys., 2020 152 Art. No. L224108
     doi.org/10.1063/5.0004608

List of optional additional citations

  1. Neese,F.
     Approximate second-order SCF convergence for spin unrestricted wavefunctions
     Chem. Phys. Lett., 2000 325(1-3)93-98
     doi.org/10.1016/s0009-2614(00)00662-x

Timings for individual modules:

Sum of individual times          ...        6.823 sec (=   0.114 min)
Startup calculation              ...        0.418 sec (=   0.007 min)   6.1 %
SCF iterations                   ...        6.330 sec (=   0.105 min)  92.8 %
Property calculations            ...        0.074 sec (=   0.001 min)   1.1 %
                             ****ORCA TERMINATED NORMALLY****
TOTAL RUN TIME: 0 days 0 hours 0 minutes 7 seconds 117 msec
