
                                 *****************
                                 * O   R   C   A *
                                 *****************

                                            #,                                       
                                            ###                                      
                                            ####                                     
                                            #####                                    
                                            ######                                   
                                           ########,                                 
                                     ,,################,,,,,                         
                               ,,#################################,,                 
                          ,,##########################################,,             
                       ,#########################################, ''#####,          
                    ,#############################################,,   '####,        
                  ,##################################################,,,,####,       
                ,###########''''           ''''###############################       
              ,#####''   ,,,,##########,,,,          '''####'''          '####       
            ,##' ,,,,###########################,,,                        '##       
           ' ,,###''''                  '''############,,,                           
         ,,##''                                '''############,,,,        ,,,,,,###''
      ,#''                                            '''#######################'''  
     '                                                          ''''####''''         
             ,#######,   #######,   ,#######,      ##                                
            ,#'     '#,  ##    ##  ,#'     '#,    #''#        ,####,   ,####,        
            ##       ##  ##   ,#'  ##            #'  '#       #'       #'  '#        
            ##       ##  #######   ##           ,######,      #####,   #    #        
            '#,     ,#'  ##    ##  '#,     ,#' ,#      #,     #,   #   #,  ,#        
             '#######'   ##     ##  '#######'  #'      '#     '####' # '####'        



                #########################################################
                #                        -***-                          #
                #          Department of theory and spectroscopy        #
                #                                                       #
                #                      Frank Neese                      #
                #                                                       #
                #     Directorship, Architecture, Infrastructure        #
                #                    SHARK, DRIVERS                     #
                #        Core code/Algorithms in most modules           #
                #                                                       #
                #        Max Planck Institute fuer Kohlenforschung      #
                #                Kaiser Wilhelm Platz 1                 #
                #                 D-45470 Muelheim/Ruhr                 #
                #                      Germany                          #
                #                                                       #
                #                  All rights reserved                  #
                #                        -***-                          #
                #########################################################


                         Program Version 6.0.0  -   RELEASE  -


 With contributions from (in alphabetic order):
   Daniel Aravena         : Magnetic Suceptibility
   Michael Atanasov       : Ab Initio Ligand Field Theory (pilot matlab implementation)
   Alexander A. Auer      : GIAO ZORA, VPT2 properties, NMR spectrum
   Ute Becker             : All parallelization in ORCA, NUMFREQ, NUMCALC
   Giovanni Bistoni       : ED, misc. LED, open-shell LED, HFLD
   Martin Brehm           : Molecular dynamics
   Dmytro Bykov           : pre 5.0 version of the SCF Hessian
   Marcos Casanova-Páez   : Triplet and SCS-CIS(D). UHF-(DLPNO)-IP/EA/STEOM-CCSD. UHF-CVS-IP/STEOM-CCSD
   Vijay G. Chilkuri      : MRCI spin determinant printing, contributions to CSF-ICE
   Pauline Colinet        : FMM embedding
   Dipayan Datta          : RHF DLPNO-CCSD density
   Achintya Kumar Dutta   : EOM-CC, STEOM-CC
   Nicolas Foglia         : Exact transition moments, OPA infrastructure, MCD improvements
   Dmitry Ganyushin       : Spin-Orbit,Spin-Spin,Magnetic field MRCI
   Miquel Garcia          : C-PCM and meta-GGA Hessian, CCSD/C-PCM, Gaussian charge scheme
   Tiago L. C. Gouveia    : GS-ROHF, GS-ROCIS
   Yang Guo               : DLPNO-NEVPT2, F12-NEVPT2, CIM, IAO-localization
   Andreas Hansen         : Spin unrestricted coupled pair/coupled cluster methods
   Ingolf Harden          : AUTO-CI MPn and infrastructure 
   Benjamin Helmich-Paris : MC-RPA, TRAH-(SCF,CASSCF), AVAS, COSX integrals, SCF dyn. polar.
   Lee Huntington         : MR-EOM, pCC
   Robert Izsak           : Overlap fitted RIJCOSX, COSX-SCS-MP3, EOM
   Riya Kayal             : Wick's Theorem for AUTO-CI, AUTO-CI UHF-CCSDT
   Emily Kempfer          : AUTO-CI, RHF CISDT and CCSDT
   Christian Kollmar      : KDIIS, OOCD, Brueckner-CCSD(T), CCSD density, CASPT2, CASPT2-K, improved NEVPT2
   Axel Koslowski         : Symmetry handling
   Simone Kossmann        : Meta GGA functionals, TD-DFT gradient, OOMP2, (MP2 Hessian; deprecated post 5.0)
   Lucas Lang             : DCDCAS
   Marvin Lechner         : AUTO-CI (C++ implementation), FIC-MRCC
   Spencer Leger          : CASSCF response
   Dagmar Lenk            : GEPOL surface, SMD, ORCA-2-JSON
   Dimitrios Liakos       : Extrapolation schemes; Compound Job, initial MDCI parallelization
   Dimitrios Manganas     : Further ROCIS development; embedding schemes. LFT, Crystal Embedding
   Dimitrios Pantazis     : SARC Basis sets
   Anastasios Papadopoulos: AUTO-CI, single reference methods and gradients
   Taras Petrenko         : pre 6.0 DFT Hessian and TD-DFT gradient, (ASA, deprecated), ECA, 1-Electron XAS/XES, NRVS
   Peter Pinski           : DLPNO-MP2, DLPNO-MP2 Gradient
   Christoph Reimann      : Effective Core Potentials
   Marius Retegan         : Local ZFS, SOC
   Christoph Riplinger    : Optimizer, TS searches, QM/MM, DLPNO-CCSD(T), (RO)-DLPNO pert. Triples
   Michael Roemelt        : Original ROCIS implementation
   Masaaki Saitow         : Open-shell DLPNO-CCSD energy and density
   Barbara Sandhoefer     : DKH picture change effects
   Kantharuban Sivalingam : CASSCF convergence/infrastructure, NEVPT2 and variants, FIC-MRCI
   Bernardo de Souza      : ESD, SOC TD-DFT
   Georgi Stoychev        : AutoAux, RI-MP2 NMR, DLPNO-MP2 response, X2C
   Van Anh Tran           : RI-MP2 g-tensors
   Willem Van den Heuvel  : Paramagnetic NMR
   Zikuan Wang            : NOTCH, Electric field optimization 
   Frank Wennmohs         : Technical directorship and infrastructure
   Hang Xu                : AUTO-CI-Response properties 


 We gratefully acknowledge several colleagues who have allowed us to
 interface, adapt or use parts of their codes:
   Stefan Grimme, W. Hujo, H. Kruse, P. Pracht,  : VdW corrections, initial TS optimization,
                  C. Bannwarth, S. Ehlert,         DFT functionals, gCP, sTDA/sTD-DF
                  L. Wittmann, M. Mueller
   Ed Valeev, F. Pavosevic, A. Kumar             : LibInt (2-el integral package), F12 methods
   Garnet Chan, S. Sharma, J. Yang, R. Olivares  : DMRG
   Ulf Ekstrom                                   : XCFun DFT Library
   Mihaly Kallay                                 : mrcc  (arbitrary order and MRCC methods)
   Frank Weinhold                                : gennbo (NPA and NBO analysis)
   Simon Mueller                                 : openCOSMO-RS
   Christopher J. Cramer and Donald G. Truhlar   : smd solvation model
   Lars Goerigk                                  : TD-DFT with DH, B97 family of functionals
   V. Asgeirsson, H. Jonsson                     : NEB implementation
   FAccTs GmbH                                   : IRC, NEB, NEB-TS, DLPNO-Multilevel, CI-OPT
                                                   MM, QMMM, 2- and 3-layer-ONIOM, Crystal-QMMM,
                                                   LR-CPCM, SF, NACMEs, symmetry and pop. for TD-DFT,
                                                   nearIR, NL-DFT gradient (VV10), updates on ESD,
                                                   ML-optimized integration grids, MBIS, APM,
                                                   GOAT, DOCKER, SOLVATOR, interface openCOSMO-RS
   S Lehtola, MJT Oliveira, MAL Marques          : LibXC Library
   Liviu Ungur et al                             : ANISO software


 Your calculation uses the libint2 library for the computation of 2-el integrals
 For citations please refer to: http://libint.valeyev.net

 Your ORCA version has been built with support for libXC version: 6.2.2
 For citations please refer to: https://libxc.gitlab.io

 This ORCA versions uses:
   CBLAS   interface :  Fast vector & matrix operations
   LAPACKE interface :  Fast linear algebra routines
   SCALAPACK package :  Parallel linear algebra routines
   Shared memory     :  Shared parallel matrices
   BLAS/LAPACK       :  OpenBLAS 0.3.27  USE64BITINT DYNAMIC_ARCH NO_AFFINITY SkylakeX SINGLE_THREADED
        Core in use  :  SkylakeX
   Copyright (c) 2011-2014, The OpenBLAS Project




***************************************
The coordinates will be read from file: vacuum_censo.xyz
***************************************


Your calculation utilizes the geometrical counterpoise correction gCP
Please cite in your paper:
H.Kruse, S. Grimme J.Chem.Phys., 136, (2012), 154101 
   

Your calculation utilizes the atom-pairwise dispersion correction
based on EEQ partial charges (D4)


================================================================================

----- Orbital basis set information -----
Your calculation utilizes the basis: def2-TZVP
   F. Weigend and R. Ahlrichs, Phys. Chem. Chem. Phys. 7, 3297 (2005).

----- AuxJ basis set information -----
Your calculation utilizes the basis: def2-mTZVPP/J
   Stefan Grimme, Andreas Hansen, Sebastian Ehlert, and Jan-Michael Mewes 
   J. Chem. Phys. 154, 000000 (2021). DOI: 10.1063/5.0040021

================================================================================
                                        WARNINGS
                       Please study these warnings very carefully!
================================================================================

Using LibXC functional ID 497 : Re-regularized SCAN exchange by Furness et al
[ 1]  J. W. Furness, A. D. Kaplan, J. Ning, J. P. Perdew, and J. Sun.,  J. Phys. Chem. Lett. 11, 8208-8215 (2020)
[ 2]  J. W. Furness, A. D. Kaplan, J. Ning, J. P. Perdew, and J. Sun.,  J. Phys. Chem. Lett. 11, 9248-9248 (2020)
Using LibXC functional ID 498 : Re-regularized SCAN correlation by Furness et al
[ 1]  J. W. Furness, A. D. Kaplan, J. Ning, J. P. Perdew, and J. Sun.,  J. Phys. Chem. Lett. 11, 8208-8215 (2020)
[ 2]  J. W. Furness, A. D. Kaplan, J. Ning, J. P. Perdew, and J. Sun.,  J. Phys. Chem. Lett. 11, 9248-9248 (2020)
Using LibXC functional ID 497 : Re-regularized SCAN exchange by Furness et al
[ 1]  J. W. Furness, A. D. Kaplan, J. Ning, J. P. Perdew, and J. Sun.,  J. Phys. Chem. Lett. 11, 8208-8215 (2020)
[ 2]  J. W. Furness, A. D. Kaplan, J. Ning, J. P. Perdew, and J. Sun.,  J. Phys. Chem. Lett. 11, 9248-9248 (2020)
Using LibXC functional ID 498 : Re-regularized SCAN correlation by Furness et al
[ 1]  J. W. Furness, A. D. Kaplan, J. Ning, J. P. Perdew, and J. Sun.,  J. Phys. Chem. Lett. 11, 8208-8215 (2020)
[ 2]  J. W. Furness, A. D. Kaplan, J. Ning, J. P. Perdew, and J. Sun.,  J. Phys. Chem. Lett. 11, 9248-9248 (2020)

================================================================================
                                       INPUT FILE
================================================================================
NAME = vacuum_censo.inp
|  1> ! r2SCAN-3c DEF2-TZVP FREQ
|  2> * xyzfile 0 1 vacuum_censo.xyz
|  3> 
|  4>                          ****END OF INPUT****
================================================================================

                       ****************************
                       * Single Point Calculation *
                       ****************************

---------------------------------
CARTESIAN COORDINATES (ANGSTROEM)
---------------------------------
  C      0.724790   -1.676536   -0.898167
  C      0.393363   -0.966401    0.418464
  H      0.925249   -1.503216    1.217455
  C     -1.110158   -1.030145    0.738454
  C     -1.948700   -0.147278   -0.189241
  C     -1.463386    1.302802   -0.140128
  C      0.029786    1.396224   -0.459927
  C      0.869901    0.503874    0.463435
  H      0.690586    0.850532    1.493362
  C      2.362199    0.655432    0.174744
  H      0.308534   -2.689384   -0.896341
  H      0.315558   -1.155132   -1.768489
  H      1.805143   -1.764831   -1.043373
  H     -1.455055   -2.070414    0.690818
  H     -1.263836   -0.693319    1.773348
  H     -1.886486   -0.519696   -1.220282
  H     -3.005428   -0.204546    0.097036
  H     -2.041253    1.925057   -0.833505
  H     -1.640175    1.704204    0.867995
  H      0.199944    1.105914   -1.505961
  H      0.372728    2.434664   -0.370054
  H      2.959801   -0.021604    0.795301
  H      2.693891    1.679092    0.377433
  H      2.589651    0.439449   -0.874562

----------------------------
CARTESIAN COORDINATES (A.U.)
----------------------------
  NO LB      ZA    FRAG     MASS         X           Y           Z
   0 C     6.0000    0    12.011    1.369654   -3.168194   -1.697289
   1 C     6.0000    0    12.011    0.743348   -1.826234    0.790782
   2 H     1.0000    0     1.008    1.748467   -2.840666    2.300656
   3 C     6.0000    0    12.011   -2.097894   -1.946692    1.395476
   4 C     6.0000    0    12.011   -3.682510   -0.278316   -0.357614
   5 C     6.0000    0    12.011   -2.765399    2.461939   -0.264803
   6 C     6.0000    0    12.011    0.056288    2.638480   -0.869135
   7 C     6.0000    0    12.011    1.643874    0.952183    0.875765
   8 H     1.0000    0     1.008    1.305019    1.607272    2.822046
   9 C     6.0000    0    12.011    4.463909    1.238586    0.330219
  10 H     1.0000    0     1.008    0.583045   -5.082199   -1.693839
  11 H     1.0000    0     1.008    0.596318   -2.182884   -3.341959
  12 H     1.0000    0     1.008    3.411226   -3.335047   -1.971690
  13 H     1.0000    0     1.008   -2.749655   -3.912516    1.305456
  14 H     1.0000    0     1.008   -2.388303   -1.310183    3.351142
  15 H     1.0000    0     1.008   -3.564942   -0.982082   -2.305998
  16 H     1.0000    0     1.008   -5.679435   -0.386537    0.183372
  17 H     1.0000    0     1.008   -3.857409    3.637830   -1.575096
  18 H     1.0000    0     1.008   -3.099482    3.220479    1.640273
  19 H     1.0000    0     1.008    0.377840    2.089875   -2.845853
  20 H     1.0000    0     1.008    0.704355    4.600848   -0.699301
  21 H     1.0000    0     1.008    5.593214   -0.040826    1.502902
  22 H     1.0000    0     1.008    5.090716    3.173024    0.713246
  23 H     1.0000    0     1.008    4.893731    0.830439   -1.652683

--------------------------------
INTERNAL COORDINATES (ANGSTROEM)
--------------------------------
 C      0   0   0     0.000000000000     0.00000000     0.00000000
 C      1   0   0     1.532204413283     0.00000000     0.00000000
 H      2   1   0     1.099754463404   107.06485558     0.00000000
 C      2   1   3     1.538515541738   111.77164760   242.48381326
 C      4   2   1     1.530759635585   112.66807061   288.92395752
 C      5   4   2     1.529926757176   110.69707134   303.68861328
 C      6   5   4     1.529889962390   111.14734973    55.01383171
 C      7   6   5     1.534495698412   111.90397749   304.71304094
 H      8   7   6     1.101397414978   106.88928088   299.97268844
 C      8   7   6     1.527503043469   111.31182507   182.57936252
 H      1   2   3     1.095049185952   110.18330970    65.63994962
 H      1   2   3     1.093979964254   112.44601420   185.48424506
 H      1   2   3     1.093637972608   111.41936836   306.38145552
 H      4   2   1     1.096988382394   109.72524190    52.34815350
 H      4   2   1     1.099124570672   108.64922874   168.66858215
 H      5   4   2     1.098002494101   110.02421818    64.84027108
 H      5   4   2     1.096315121930   109.85459292   181.63710562
 H      6   5   4     1.096313494055   110.51541439   177.87893308
 H      6   5   4     1.099404129929   108.93411857   294.84159363
 H      7   6   5     1.098826853155   109.51147218    66.37170818
 H      7   6   5     1.097289683534   110.22472086   182.90220464
 H     10   8   7     1.095717708820   111.37586660   183.12371172
 H     10   8   7     1.094980997578   110.71449574    63.04650265
 H     10   8   7     1.095183841448   111.37119153   303.63847258

---------------------------
INTERNAL COORDINATES (A.U.)
---------------------------
 C      0   0   0     0.000000000000     0.00000000     0.00000000
 C      1   0   0     2.895446722291     0.00000000     0.00000000
 H      2   1   0     2.078234750392   107.06485558     0.00000000
 C      2   1   3     2.907373026666   111.77164760   242.48381326
 C      4   2   1     2.892716488118   112.66807061   288.92395752
 C      5   4   2     2.891142576021   110.69707134   303.68861328
 C      6   5   4     2.891073043952   111.14734973    55.01383171
 C      7   6   5     2.899776623679   111.90397749   304.71304094
 H      8   7   6     2.081339478917   106.88928088   299.97268844
 C      8   7   6     2.886562420888   111.31182507   182.57936252
 H      1   2   3     2.069343064623   110.18330970    65.63994962
 H      1   2   3     2.067322528437   112.44601420   185.48424506
 H      1   2   3     2.066676257885   111.41936836   306.38145552
 H      4   2   1     2.073007614817   109.72524190    52.34815350
 H      4   2   1     2.077044425634   108.64922874   168.66858215
 H      5   4   2     2.074924008213   110.02421818    64.84027108
 H      5   4   2     2.071735336924   109.85459292   181.63710562
 H      6   5   4     2.071732260687   110.51541439   177.87893308
 H      6   5   4     2.077572716068   108.93411857   294.84159363
 H      7   6   5     2.076481821062   109.51147218    66.37170818
 H      7   6   5     2.073576991456   110.22472086   182.90220464
 H     10   8   7     2.070606389757   111.37586660   183.12371172
 H     10   8   7     2.069214207270   110.71449574    63.04650265
 H     10   8   7     2.069597526633   111.37119153   303.63847258

---------------------
BASIS SET INFORMATION
---------------------
There are 2 groups of distinct atoms

 Group   1 Type C   : 11s6p2d1f contracted to 5s3p2d1f pattern {62111/411/11/1}
 Group   2 Type H   : 5s1p contracted to 3s1p pattern {311/1}

Atom   0C    basis set group =>   1
Atom   1C    basis set group =>   1
Atom   2H    basis set group =>   2
Atom   3C    basis set group =>   1
Atom   4C    basis set group =>   1
Atom   5C    basis set group =>   1
Atom   6C    basis set group =>   1
Atom   7C    basis set group =>   1
Atom   8H    basis set group =>   2
Atom   9C    basis set group =>   1
Atom  10H    basis set group =>   2
Atom  11H    basis set group =>   2
Atom  12H    basis set group =>   2
Atom  13H    basis set group =>   2
Atom  14H    basis set group =>   2
Atom  15H    basis set group =>   2
Atom  16H    basis set group =>   2
Atom  17H    basis set group =>   2
Atom  18H    basis set group =>   2
Atom  19H    basis set group =>   2
Atom  20H    basis set group =>   2
Atom  21H    basis set group =>   2
Atom  22H    basis set group =>   2
Atom  23H    basis set group =>   2
---------------------------------
AUXILIARY/J BASIS SET INFORMATION
---------------------------------
There are 2 groups of distinct atoms

 Group   1 Type C   : 8s3p3d contracted to 6s3p3d pattern {311111/111/111}
 Group   2 Type H   : 5s2p1d contracted to 3s1p1d pattern {311/2/1}

Atom   0C    basis set group =>   1
Atom   1C    basis set group =>   1
Atom   2H    basis set group =>   2
Atom   3C    basis set group =>   1
Atom   4C    basis set group =>   1
Atom   5C    basis set group =>   1
Atom   6C    basis set group =>   1
Atom   7C    basis set group =>   1
Atom   8H    basis set group =>   2
Atom   9C    basis set group =>   1
Atom  10H    basis set group =>   2
Atom  11H    basis set group =>   2
Atom  12H    basis set group =>   2
Atom  13H    basis set group =>   2
Atom  14H    basis set group =>   2
Atom  15H    basis set group =>   2
Atom  16H    basis set group =>   2
Atom  17H    basis set group =>   2
Atom  18H    basis set group =>   2
Atom  19H    basis set group =>   2
Atom  20H    basis set group =>   2
Atom  21H    basis set group =>   2
Atom  22H    basis set group =>   2
Atom  23H    basis set group =>   2
------------------------------------------------------------------------------
                             ORCA STARTUP CALCULATIONS
                           -- RI-GTO INTEGRALS CHOSEN --
------------------------------------------------------------------------------
------------------------------------------------------------------------------
                   ___                                                        
                  /   \      - P O W E R E D   B Y -                         
                 /     \                                                     
                 |  |  |   _    _      __       _____    __    __             
                 |  |  |  | |  | |    /  \     |  _  \  |  |  /  |          
                  \  \/   | |  | |   /    \    | | | |  |  | /  /          
                 / \  \   | |__| |  /  /\  \   | |_| |  |  |/  /          
                |  |  |   |  __  | /  /__\  \  |    /   |      \           
                |  |  |   | |  | | |   __   |  |    \   |  |\   \          
                \     /   | |  | | |  |  |  |  | |\  \  |  | \   \       
                 \___/    |_|  |_| |__|  |__|  |_| \__\ |__|  \__/        
                                                                              
                      - O R C A' S   B I G   F R I E N D -                    
                                      &                                       
                       - I N T E G R A L  F E E D E R -                       
                                                                              
 v1 FN, 2020, v2 2021, v3 2022-2024                                           
------------------------------------------------------------------------------


----------------------
SHARK INTEGRAL PACKAGE
----------------------

Number of atoms                             ...     24
Number of basis functions                   ...    344
Number of shells                            ...    152
Maximum angular momentum                    ...      3
Integral batch strategy                     ... SHARK/LIBINT Hybrid
RI-J (if used) integral strategy            ... SPLIT-RIJ (Revised 2003 algorithm where possible)
Printlevel                                  ...      1
Contraction scheme used                     ... SEGMENTED contraction
Prescreening option                         ... SCHWARTZ
   Thresh                                   ... 1.000e-10
   Tcut                                     ... 1.000e-11
   Tpresel                                  ... 1.000e-11 
Coulomb Range Separation                    ... NOT USED
Exchange Range Separation                   ... NOT USED
Multipole approximations                    ... NOT USED
Finite Nucleus Model                        ... NOT USED
CABS basis                                  ... NOT available
Auxiliary Coulomb fitting basis             ... AVAILABLE
   # of basis functions in Aux-J            ...    416
   # of shells in Aux-J                     ...    176
   Maximum angular momentum in Aux-J        ...      2
Auxiliary J/K fitting basis                 ... NOT available
Auxiliary Correlation fitting basis         ... NOT available
Auxiliary 'external' fitting basis          ... NOT available

Checking pre-screening integrals            ... done (  0.0 sec) Dimension = 152
Check shell pair data                       ... done (  0.0 sec)
Shell pair information
Shell pair cut-off parameter TPreSel        ...   1.0e-11
Total number of shell pairs                 ...     11628
Shell pairs after pre-screening             ...     10884
Total number of primitive shell pairs       ...     33120
Primitive shell pairs kept                  ...     23571
          la=0 lb=0:   3560 shell pairs
          la=1 lb=0:   3277 shell pairs
          la=1 lb=1:    783 shell pairs
          la=2 lb=0:   1350 shell pairs
          la=2 lb=1:    624 shell pairs
          la=2 lb=2:    135 shell pairs
          la=3 lb=0:    674 shell pairs
          la=3 lb=1:    317 shell pairs
          la=3 lb=2:    128 shell pairs
          la=3 lb=3:     36 shell pairs

Calculating one electron integrals          ... done (  0.1 sec)
Calculating RI/J V-Matrix + Cholesky decomp.... done (  0.1 sec)
Calculating Nuclear repulsion               ... done (  0.0 sec) ENN=    415.666747214489 Eh

Diagonalization of the overlap matrix:
Smallest eigenvalue                        ... 8.088e-05
Time for diagonalization                   ...    0.012 sec
Threshold for overlap eigenvalues          ... 1.000e-07
Number of eigenvalues below threshold      ... 0
Time for construction of square roots      ...    0.020 sec
Total time needed                          ...    0.042 sec

-------------------
DFT GRID GENERATION
-------------------

General Integration Accuracy     IntAcc      ... 4.388
Radial Grid Type                 RadialGrid  ... OptM3 with GC (2021)
Angular Grid (max. ang.)         AngularGrid ... 4 (Lebedev-302)
Angular grid pruning method      GridPruning ... 4 (adaptive)
Weight generation scheme         WeightScheme... mBecke (2022)
Basis function cutoff            BFCut       ... 1.0000e-10
Integration weight cutoff        WCut        ... 1.0000e-14
Partially contracted basis set               ... off
Rotationally invariant grid construction     ... off
Angular grids for H and He will be reduced by one unit

Total number of grid points                  ...    98453
Total number of batches                      ...     1549
Average number of points per batch           ...       63
Average number of grid points per atom       ...     4102
Initializing property integral containers    ... done (  0.0 sec)

SHARK setup successfully completed in   1.6 seconds

Maximum memory used throughout the entire STARTUP-calculation: 54.9 MB
-------------------------------------------------------------------------------
                                 ORCA GUESS
                   Start orbitals & Density for SCF / CASSCF
-------------------------------------------------------------------------------

------------
SCF SETTINGS
------------
Hamiltonian:
 Density Functional     Method          .... DFT(GTOs)
  Functional kind                       .... Exchange
  Functional name                       .... Re-regularized SCAN exchange by Furness et al
  Functional family                     .... MGGA
  Functional refs                              
    [ 0] J. W. Furness, A. D. Kaplan, J. Ning, J. P. Perdew, and J. Sun.,  J. Phys. Chem. Lett. 11, 8208-8215 (2020), doi: 10.1021/acs.jpclett.0c02405
    [ 1] J. W. Furness, A. D. Kaplan, J. Ning, J. P. Perdew, and J. Sun.,  J. Phys. Chem. Lett. 11, 9248-9248 (2020), doi: 10.1021/acs.jpclett.0c03077
  Functional external parameters        .... 6
    Parameter  0 _c1        =  6.670000e-01 : c1 parameter        
    Parameter  1 _c2        =  8.000000e-01 : c2 parameter        
    Parameter  2 _d         =  1.240000e+00 : d parameter         
    Parameter  3 _k1        =  6.500000e-02 : k1 parameter        
    Parameter  4 _eta       =  1.000000e-03 : eta parameter       
    Parameter  5 _dp2       =  3.610000e-01 : dp2 parameter       
  Functional kind                       .... Correlation
  Functional name                       .... Re-regularized SCAN correlation by Furness et al
  Functional family                     .... MGGA
  Functional refs                              
    [ 0] J. W. Furness, A. D. Kaplan, J. Ning, J. P. Perdew, and J. Sun.,  J. Phys. Chem. Lett. 11, 8208-8215 (2020), doi: 10.1021/acs.jpclett.0c02405
    [ 1] J. W. Furness, A. D. Kaplan, J. Ning, J. P. Perdew, and J. Sun.,  J. Phys. Chem. Lett. 11, 9248-9248 (2020), doi: 10.1021/acs.jpclett.0c03077
  Functional external parameters        .... 1
    Parameter  0 _eta       =  1.000000e-03 : Regularization parameter
 Gradients option       PostSCFGGA      .... off
 RI-approximation to the Coulomb term is turned on
   Number of AuxJ basis functions       .... 416


General Settings:
 Integral files         IntName         .... vacuum_censo
 Hartree-Fock type      HFTyp           .... RHF
 Total Charge           Charge          ....    0
 Multiplicity           Mult            ....    1
 Number of Electrons    NEL             ....   64
 Basis Dimension        Dim             ....  344
 Nuclear Repulsion      ENuc            ....    415.6667472145 Eh

Convergence Acceleration:
 AO-DIIS                CNVDIIS         .... on
   Start iteration      DIISMaxIt       ....    12
   Startup error        DIISStart       ....  0.200000
   # of expansion vecs  DIISMaxEq       ....     5
   Bias factor          DIISBfac        ....   1.050
   Max. coefficient     DIISMaxC        ....  10.000
 MO-DIIS                CNVKDIIS        .... off
 Trust-Rad. Augm. Hess. CNVTRAH         .... auto
   Auto Start mean grad. ratio tolernc. ....  1.125000
   Auto Start start iteration           ....    50
   Auto Start num. interpolation iter.  ....    10
   Max. Number of Micro iterations      ....    24
   Max. Number of Macro iterations      .... Maxiter - #DIIS iter
   Number of Davidson start vectors     ....     2
   Converg. threshold    (grad. norm)   ....   5.000e-05
   Grad. Scal. Fac. for Micro threshold ....   0.100
   Minimum threshold for Micro iter.    ....   1.000e-02
   NR start threshold (gradient norm)   ....   1.000e-04
   Initial trust radius                 ....   0.400
   Minimum AH scaling param. (alpha)    ....   1.000
   Maximum AH scaling param. (alpha)    .... 1000.000
   Quad. conv. algorithm                .... NR
   White noise on init. David. guess    .... on
   Maximum white noise                  ....   0.010
   Pseudo random numbers                .... off
   Inactive MOs                         .... canonical
   Orbital update algorithm             .... Taylor
   Preconditioner                       .... Diag
   Full preconditioner red. dimension   ....   250
   COSX micro iterations for RIJONX calc.... off
 SOSCF                  CNVSOSCF        .... on
   Start iteration      SOSCFMaxIt      ....   150
   Startup grad/error   SOSCFStart      ....  0.003300
   Hessian update       SOSCFHessUp     .... L-BFGS
 Level Shifting         CNVShift        .... on
   Level shift para.    LevelShift      ....    0.2500
   Turn off err/grad.   ShiftErr        ....    0.0010
 Zerner damping         CNVZerner       .... off
 Static damping         CNVDamp         .... on
   Fraction old density DampFac         ....    0.7000
   Max. Damping (<1)    DampMax         ....    0.9800
   Min. Damping (>=0)   DampMin         ....    0.0000
   Turn off err/grad.   DampErr         ....    0.1000

SCF Procedure:
 Maximum # iterations   MaxIter         ....   125
 SCF integral mode      SCFMode         .... Direct
   Integral package                     .... SHARK and LIBINT hybrid scheme
 Reset frequency        DirectResetFreq ....    20
 Integral Threshold     Thresh          ....  1.000e-10 Eh
 Primitive CutOff       TCut            ....  1.000e-11 Eh

Convergence Tolerance:
 Convergence Check Mode ConvCheckMode   .... Total+1el-Energy
 Convergence forced     ConvForced      .... 0
 Energy Change          TolE            ....  1.000e-06 Eh
 1-El. energy change                    ....  1.000e-03 Eh
 Orbital Gradient       TolG            ....  5.000e-05
 Orbital Rotation angle TolX            ....  5.000e-05
 DIIS Error             TolErr          ....  1.000e-06

------------------------------
INITIAL GUESS: MODEL POTENTIAL
------------------------------
Loading Hartree-Fock densities                     ... done
Calculating cut-offs                               ... done
Initializing the effective Hamiltonian             ... done
Setting up the integral package (SHARK)            ... done
Starting the Coulomb interaction                   ... done (   0.6 sec)
Making the grid                                    ... done (   0.3 sec)
Mapping shells                                     ... done
Starting the XC term evaluation                    ... done (   0.6 sec)
  promolecular density results
     # of electrons  =     63.996411715
     EX              =    -45.667347022
     EC              =     -2.103743239
     EX+EC           =    -47.771090261
Transforming the Hamiltonian                       ... done (   0.0 sec)
Diagonalizing the Hamiltonian                      ... done (   0.0 sec)
Back transforming the eigenvectors                 ... done (   0.0 sec)
Now organizing SCF variables                       ... done
                      ------------------
                      INITIAL GUESS DONE (   1.6 sec)
                      ------------------
             **** ENERGY FILE WAS UPDATED (vacuum_censo.en.tmp) ****
Finished Guess after   2.1 sec
Maximum memory used throughout the entire GUESS-calculation: 35.7 MB

-------------------------------------------------------------------------------------------
                                      ORCA LEAN-SCF
                              memory conserving SCF solver
-------------------------------------------------------------------------------------------

----------------------------------------D-I-I-S--------------------------------------------
Iteration    Energy (Eh)           Delta-E    RMSDP     MaxDP     DIISErr   Damp  Time(sec)
-------------------------------------------------------------------------------------------
               ***  Starting incremental Fock matrix formation  ***
    1    -314.1310326765936907     0.00e+00  1.28e-03  3.43e-02  1.84e-01  0.700   6.0
    2    -314.2710659922738614    -1.40e-01  9.42e-04  2.25e-02  9.30e-02  0.700   5.3
                               ***Turning on AO-DIIS***
    3    -314.3220558961113511    -5.10e-02  4.32e-04  1.11e-02  3.19e-02  0.700   5.2
    4    -314.3520091822696259    -3.00e-02  7.51e-04  2.86e-02  1.39e-02  0.000   5.0
    5    -314.4195483427301951    -6.75e-02  1.79e-04  5.19e-03  8.99e-03  0.000   5.1
                              *** Initializing SOSCF ***
---------------------------------------S-O-S-C-F--------------------------------------
Iteration    Energy (Eh)           Delta-E    RMSDP     MaxDP     MaxGrad    Time(sec)
--------------------------------------------------------------------------------------
    6    -314.4203400381785514    -7.92e-04  8.46e-05  2.99e-03  2.37e-03     4.8
               *** Restarting incremental Fock matrix formation ***
    7    -314.4204000542550830    -6.00e-05  6.66e-05  2.24e-03  2.02e-04     6.0
    8    -314.4204011870654085    -1.13e-06  1.18e-05  2.90e-04  1.83e-04     4.4
    9    -314.4204045269866583    -3.34e-06  7.88e-06  2.17e-04  4.29e-05     4.2
   10    -314.4204046001540291    -7.32e-08  2.74e-06  7.62e-05  3.80e-05     4.1
                 **** Energy Check signals convergence ****

               *****************************************************
               *                     SUCCESS                       *
               *           SCF CONVERGED AFTER  10 CYCLES          *
               *****************************************************

             **** ENERGY FILE WAS UPDATED (vacuum_censo.en.tmp) ****

----------------
TOTAL SCF ENERGY
----------------

Total Energy       :       -314.42040460015403 Eh           -8555.81418 eV

Components:
Nuclear Repulsion  :        415.66674721448885 Eh           11310.86723 eV
Electronic Energy  :       -730.08715181464288 Eh          -19866.68140 eV
One Electron Energy:      -1246.31019761508514 Eh          -33913.82462 eV
Two Electron Energy:        516.22304580044226 Eh           14047.14322 eV

Virial components:
Potential Energy   :       -627.12929655316861 Eh          -17065.05573 eV
Kinetic Energy     :        312.70889195301459 Eh            8509.24155 eV
Virial Ratio       :          2.00547318189915

DFT components:
N(Alpha)           :       32.000030297119 electrons
N(Beta)            :       32.000030297119 electrons
N(Total)           :       64.000060594237 electrons
E(X)               :      -47.338074471756 Eh       
E(C)               :       -1.992055419228 Eh       
E(XC)              :      -49.330129890984 Eh       

---------------
SCF CONVERGENCE
---------------

  Last Energy change         ...    7.3167e-08  Tolerance :   1.0000e-06
  Last MAX-Density change    ...    7.6200e-05  Tolerance :   1.0000e-05
  Last RMS-Density change    ...    2.7353e-06  Tolerance :   1.0000e-06
  Last DIIS Error            ...    2.3715e-03  Tolerance :   1.0000e-06
  Last Orbital Gradient      ...    3.7986e-05  Tolerance :   5.0000e-05
  Last Orbital Rotation      ...    3.5755e-05  Tolerance :   5.0000e-05


----------------
ORBITAL ENERGIES
----------------

  NO   OCC          E(Eh)            E(eV) 
   0   2.0000     -10.028793      -272.8973 
   1   2.0000     -10.028381      -272.8861 
   2   2.0000     -10.021528      -272.6997 
   3   2.0000     -10.021102      -272.6880 
   4   2.0000     -10.020235      -272.6645 
   5   2.0000     -10.020003      -272.6582 
   6   2.0000     -10.015397      -272.5328 
   7   2.0000     -10.014780      -272.5160 
   8   2.0000      -0.801857       -21.8196 
   9   2.0000      -0.728357       -19.8196 
  10   2.0000      -0.718435       -19.5496 
  11   2.0000      -0.656731       -17.8706 
  12   2.0000      -0.624284       -16.9876 
  13   2.0000      -0.563490       -15.3333 
  14   2.0000      -0.547615       -14.9014 
  15   2.0000      -0.493007       -13.4154 
  16   2.0000      -0.445551       -12.1241 
  17   2.0000      -0.423230       -11.5167 
  18   2.0000      -0.405978       -11.0472 
  19   2.0000      -0.400301       -10.8927 
  20   2.0000      -0.380052       -10.3417 
  21   2.0000      -0.368010       -10.0141 
  22   2.0000      -0.354794        -9.6544 
  23   2.0000      -0.346338        -9.4243 
  24   2.0000      -0.334623        -9.1056 
  25   2.0000      -0.321284        -8.7426 
  26   2.0000      -0.310514        -8.4495 
  27   2.0000      -0.303845        -8.2680 
  28   2.0000      -0.292918        -7.9707 
  29   2.0000      -0.275427        -7.4948 
  30   2.0000      -0.262079        -7.1315 
  31   2.0000      -0.258656        -7.0384 
  32   0.0000       0.034981         0.9519 
  33   0.0000       0.050938         1.3861 
  34   0.0000       0.065331         1.7777 
  35   0.0000       0.074973         2.0401 
  36   0.0000       0.091758         2.4968 
  37   0.0000       0.101418         2.7597 
  38   0.0000       0.105925         2.8824 
  39   0.0000       0.110534         3.0078 
  40   0.0000       0.116528         3.1709 
  41   0.0000       0.123266         3.3542 
  42   0.0000       0.127151         3.4600 
*Only the first 10 virtual orbitals were printed.

                    ********************************
                    * MULLIKEN POPULATION ANALYSIS *
                    ********************************

-----------------------
MULLIKEN ATOMIC CHARGES
-----------------------
   0 C :   -0.422959
   1 C :    0.091006
   2 H :    0.042861
   3 C :   -0.171229
   4 C :   -0.190031
   5 C :   -0.125853
   6 C :   -0.228380
   7 C :    0.013846
   8 H :    0.043087
   9 C :   -0.357816
  10 H :    0.106444
  11 H :    0.108184
  12 H :    0.114785
  13 H :    0.084666
  14 H :    0.077420
  15 H :    0.085023
  16 H :    0.086429
  17 H :    0.085236
  18 H :    0.071157
  19 H :    0.081788
  20 H :    0.085406
  21 H :    0.107079
  22 H :    0.105280
  23 H :    0.106568
Sum of atomic charges:    0.0000000

--------------------------------
MULLIKEN REDUCED ORBITAL CHARGES
--------------------------------
  0 C s       :     3.316195  s :     3.316195
      pz      :     0.950623  p :     3.054681
      px      :     1.061204
      py      :     1.042854
      dz2     :     0.015643  d :     0.048335
      dxz     :     0.011077
      dyz     :     0.008125
      dx2y2   :     0.009141
      dxy     :     0.004349
      f0      :     0.000696  f :     0.003748
      f+1     :     0.000635
      f-1     :     0.001149
      f+2     :     0.000389
      f-2     :     0.000232
      f+3     :     0.000618
      f-3     :     0.000028

  1 C s       :     3.099417  s :     3.099417
      pz      :     0.872139  p :     2.672961
      px      :     0.907320
      py      :     0.893502
      dz2     :     0.021744  d :     0.127808
      dxz     :     0.026741
      dyz     :     0.027508
      dx2y2   :     0.023993
      dxy     :     0.027822
      f0      :     0.001398  f :     0.008808
      f+1     :     0.001110
      f-1     :     0.001229
      f+2     :     0.001371
      f-2     :     0.000651
      f+3     :     0.001380
      f-3     :     0.001668

  2 H s       :     0.933598  s :     0.933598
      pz      :     0.009279  p :     0.023540
      px      :     0.007145
      py      :     0.007117

  3 C s       :     3.205235  s :     3.205235
      pz      :     0.966319  p :     2.874459
      px      :     0.903974
      py      :     1.004167
      dz2     :     0.022225  d :     0.085296
      dxz     :     0.016955
      dyz     :     0.005132
      dx2y2   :     0.020810
      dxy     :     0.020174
      f0      :     0.000829  f :     0.006238
      f+1     :     0.000828
      f-1     :     0.000843
      f+2     :     0.001061
      f-2     :     0.000312
      f+3     :     0.001163
      f-3     :     0.001204

  4 C s       :     3.215261  s :     3.215261
      pz      :     0.972279  p :     2.881267
      px      :     0.999087
      py      :     0.909901
      dz2     :     0.020369  d :     0.087213
      dxz     :     0.003960
      dyz     :     0.021337
      dx2y2   :     0.026143
      dxy     :     0.015403
      f0      :     0.000972  f :     0.006290
      f+1     :     0.000450
      f-1     :     0.001039
      f+2     :     0.000979
      f-2     :     0.000400
      f+3     :     0.001337
      f-3     :     0.001112

  5 C s       :     3.177535  s :     3.177535
      pz      :     1.002699  p :     2.855129
      px      :     0.919265
      py      :     0.933165
      dz2     :     0.009401  d :     0.086869
      dxz     :     0.015032
      dyz     :     0.017851
      dx2y2   :     0.016532
      dxy     :     0.028053
      f0      :     0.000863  f :     0.006321
      f+1     :     0.000585
      f-1     :     0.000672
      f+2     :     0.000918
      f-2     :     0.000273
      f+3     :     0.001356
      f-3     :     0.001655

  6 C s       :     3.230882  s :     3.230882
      pz      :     0.963387  p :     2.906401
      px      :     0.930229
      py      :     1.012786
      dz2     :     0.023118  d :     0.084837
      dxz     :     0.018221
      dyz     :     0.003857
      dx2y2   :     0.018588
      dxy     :     0.021053
      f0      :     0.000928  f :     0.006260
      f+1     :     0.000889
      f-1     :     0.000766
      f+2     :     0.001013
      f-2     :     0.000246
      f+3     :     0.001185
      f-3     :     0.001231

  7 C s       :     3.131601  s :     3.131601
      pz      :     0.909951  p :     2.717197
      px      :     0.903350
      py      :     0.903895
      dz2     :     0.025661  d :     0.128488
      dxz     :     0.020224
      dyz     :     0.019932
      dx2y2   :     0.030097
      dxy     :     0.032574
      f0      :     0.001166  f :     0.008868
      f+1     :     0.000932
      f-1     :     0.000993
      f+2     :     0.001485
      f-2     :     0.000463
      f+3     :     0.001753
      f-3     :     0.002075

  8 H s       :     0.933306  s :     0.933306
      pz      :     0.012236  p :     0.023607
      px      :     0.005366
      py      :     0.006005

  9 C s       :     3.294216  s :     3.294216
      pz      :     1.036398  p :     3.012665
      px      :     0.920278
      py      :     1.055989
      dz2     :     0.007204  d :     0.047109
      dxz     :     0.015599
      dyz     :     0.001836
      dx2y2   :     0.005726
      dxy     :     0.016744
      f0      :     0.000859  f :     0.003825
      f+1     :     0.000457
      f-1     :     0.000233
      f+2     :     0.000434
      f-2     :    -0.000009
      f+3     :     0.000903
      f-3     :     0.000948

 10 H s       :     0.870360  s :     0.870360
      pz      :     0.005353  p :     0.023196
      px      :     0.006214
      py      :     0.011629

 11 H s       :     0.868118  s :     0.868118
      pz      :     0.010246  p :     0.023698
      px      :     0.006385
      py      :     0.007066

 12 H s       :     0.861789  s :     0.861789
      pz      :     0.005521  p :     0.023426
      px      :     0.012488
      py      :     0.005417

 13 H s       :     0.892143  s :     0.892143
      pz      :     0.005138  p :     0.023191
      px      :     0.006084
      py      :     0.011969

 14 H s       :     0.899444  s :     0.899444
      pz      :     0.012071  p :     0.023136
      px      :     0.005394
      py      :     0.005671

 15 H s       :     0.891568  s :     0.891568
      pz      :     0.011998  p :     0.023409
      px      :     0.005247
      py      :     0.006164

 16 H s       :     0.890328  s :     0.890328
      pz      :     0.005508  p :     0.023242
      px      :     0.012409
      py      :     0.005325

 17 H s       :     0.891580  s :     0.891580
      pz      :     0.007773  p :     0.023184
      px      :     0.007503
      py      :     0.007909

 18 H s       :     0.905748  s :     0.905748
      pz      :     0.011339  p :     0.023094
      px      :     0.005411
      py      :     0.006344

 19 H s       :     0.894757  s :     0.894757
      pz      :     0.012340  p :     0.023455
      px      :     0.005386
      py      :     0.005729

 20 H s       :     0.891364  s :     0.891364
      pz      :     0.005146  p :     0.023230
      px      :     0.006097
      py      :     0.011987

 21 H s       :     0.869997  s :     0.869997
      pz      :     0.007316  p :     0.022924
      px      :     0.007795
      py      :     0.007813

 22 H s       :     0.871667  s :     0.871667
      pz      :     0.005450  p :     0.023054
      px      :     0.006190
      py      :     0.011414

 23 H s       :     0.870225  s :     0.870225
      pz      :     0.011926  p :     0.023207
      px      :     0.005695
      py      :     0.005587



                     *******************************
                     * LOEWDIN POPULATION ANALYSIS *
                     *******************************

----------------------
LOEWDIN ATOMIC CHARGES
----------------------
   0 C :   -0.283018
   1 C :   -0.260033
   2 H :    0.148949
   3 C :   -0.238163
   4 C :   -0.261272
   5 C :   -0.260104
   6 C :   -0.238034
   7 C :   -0.263121
   8 H :    0.151379
   9 C :   -0.283963
  10 H :    0.121478
  11 H :    0.116960
  12 H :    0.120378
  13 H :    0.133031
  14 H :    0.136161
  15 H :    0.133393
  16 H :    0.132007
  17 H :    0.131094
  18 H :    0.134039
  19 H :    0.134597
  20 H :    0.134861
  21 H :    0.120257
  22 H :    0.119445
  23 H :    0.119680

-------------------------------
LOEWDIN REDUCED ORBITAL CHARGES
-------------------------------
  0 C s       :     2.831712  s :     2.831712
      pz      :     1.048675  p :     3.163945
      px      :     1.062727
      py      :     1.052543
      dz2     :     0.077946  d :     0.262757
      dxz     :     0.049557
      dyz     :     0.054260
      dx2y2   :     0.056214
      dxy     :     0.024780
      f0      :     0.004060  f :     0.024604
      f+1     :     0.005055
      f-1     :     0.004733
      f+2     :     0.002623
      f-2     :     0.004071
      f+3     :     0.003310
      f-3     :     0.000751

  1 C s       :     2.737590  s :     2.737590
      pz      :     0.992428  p :     2.948093
      px      :     0.982208
      py      :     0.973457
      dz2     :     0.090472  d :     0.522299
      dxz     :     0.105482
      dyz     :     0.113719
      dx2y2   :     0.109730
      dxy     :     0.102896
      f0      :     0.007618  f :     0.052051
      f+1     :     0.007013
      f-1     :     0.005765
      f+2     :     0.007675
      f-2     :     0.007277
      f+3     :     0.006904
      f-3     :     0.009799

  2 H s       :     0.793125  s :     0.793125
      pz      :     0.022660  p :     0.057926
      px      :     0.017531
      py      :     0.017736

  3 C s       :     2.780813  s :     2.780813
      pz      :     1.013869  p :     3.020848
      px      :     0.998823
      py      :     1.008155
      dz2     :     0.103935  d :     0.398447
      dxz     :     0.073945
      dyz     :     0.036535
      dx2y2   :     0.100237
      dxy     :     0.083796
      f0      :     0.003944  f :     0.038055
      f+1     :     0.005231
      f-1     :     0.005014
      f+2     :     0.006923
      f-2     :     0.004425
      f+3     :     0.005680
      f-3     :     0.006838

  4 C s       :     2.781347  s :     2.781347
      pz      :     1.021763  p :     3.039115
      px      :     1.003970
      py      :     1.013382
      dz2     :     0.096003  d :     0.401926
      dxz     :     0.032489
      dyz     :     0.090428
      dx2y2   :     0.114653
      dxy     :     0.068352
      f0      :     0.004822  f :     0.038885
      f+1     :     0.003416
      f-1     :     0.005737
      f+2     :     0.006608
      f-2     :     0.005046
      f+3     :     0.007217
      f-3     :     0.006038

  5 C s       :     2.782467  s :     2.782467
      pz      :     1.020269  p :     3.035341
      px      :     1.008265
      py      :     1.006807
      dz2     :     0.059184  d :     0.403433
      dxz     :     0.067131
      dyz     :     0.081861
      dx2y2   :     0.088255
      dxy     :     0.107002
      f0      :     0.004807  f :     0.038864
      f+1     :     0.003747
      f-1     :     0.003452
      f+2     :     0.005558
      f-2     :     0.004960
      f+3     :     0.006710
      f-3     :     0.009630

  6 C s       :     2.778913  s :     2.778913
      pz      :     1.014857  p :     3.021004
      px      :     1.002092
      py      :     1.004054
      dz2     :     0.107845  d :     0.399641
      dxz     :     0.075180
      dyz     :     0.033089
      dx2y2   :     0.099661
      dxy     :     0.083865
      f0      :     0.004237  f :     0.038476
      f+1     :     0.005414
      f-1     :     0.004643
      f+2     :     0.007053
      f-2     :     0.004525
      f+3     :     0.005681
      f-3     :     0.006924

  7 C s       :     2.736193  s :     2.736193
      pz      :     0.982801  p :     2.946565
      px      :     0.985110
      py      :     0.978654
      dz2     :     0.111884  d :     0.527757
      dxz     :     0.079153
      dyz     :     0.086656
      dx2y2   :     0.132938
      dxy     :     0.117126
      f0      :     0.006085  f :     0.052606
      f+1     :     0.005814
      f-1     :     0.005920
      f+2     :     0.008995
      f-2     :     0.005877
      f+3     :     0.008522
      f-3     :     0.011393

  8 H s       :     0.790876  s :     0.790876
      pz      :     0.029218  p :     0.057745
      px      :     0.013430
      py      :     0.015097

  9 C s       :     2.834482  s :     2.834482
      pz      :     1.066540  p :     3.159810
      px      :     1.029271
      py      :     1.063998
      dz2     :     0.053611  d :     0.264936
      dxz     :     0.066378
      dyz     :     0.018311
      dx2y2   :     0.052325
      dxy     :     0.074312
      f0      :     0.003592  f :     0.024735
      f+1     :     0.002978
      f-1     :     0.001410
      f+2     :     0.003847
      f-2     :     0.003634
      f+3     :     0.004083
      f-3     :     0.005192

 10 H s       :     0.815872  s :     0.815872
      pz      :     0.013742  p :     0.062650
      px      :     0.017266
      py      :     0.031642

 11 H s       :     0.818981  s :     0.818981
      pz      :     0.026830  p :     0.064059
      px      :     0.017614
      py      :     0.019615

 12 H s       :     0.816223  s :     0.816223
      pz      :     0.014128  p :     0.063399
      px      :     0.035042
      py      :     0.014229

 13 H s       :     0.806796  s :     0.806796
      pz      :     0.013559  p :     0.060173
      px      :     0.015214
      py      :     0.031400

 14 H s       :     0.804040  s :     0.804040
      pz      :     0.030643  p :     0.059799
      px      :     0.013566
      py      :     0.015590

 15 H s       :     0.806189  s :     0.806189
      pz      :     0.030960  p :     0.060419
      px      :     0.013770
      py      :     0.015689

 16 H s       :     0.807768  s :     0.807768
      pz      :     0.015229  p :     0.060225
      px      :     0.031594
      py      :     0.013403

 17 H s       :     0.808724  s :     0.808724
      pz      :     0.021919  p :     0.060182
      px      :     0.018717
      py      :     0.019546

 18 H s       :     0.806257  s :     0.806257
      pz      :     0.030555  p :     0.059704
      px      :     0.013587
      py      :     0.015562

 19 H s       :     0.804868  s :     0.804868
      pz      :     0.031388  p :     0.060536
      px      :     0.013652
      py      :     0.015496

 20 H s       :     0.804917  s :     0.804917
      pz      :     0.013893  p :     0.060223
      px      :     0.015125
      py      :     0.031205

 21 H s       :     0.817324  s :     0.817324
      pz      :     0.020885  p :     0.062420
      px      :     0.019330
      py      :     0.022205

 22 H s       :     0.817996  s :     0.817996
      pz      :     0.014874  p :     0.062559
      px      :     0.015171
      py      :     0.032514

 23 H s       :     0.817388  s :     0.817388
      pz      :     0.033863  p :     0.062932
      px      :     0.014096
      py      :     0.014972



                      *****************************
                      * MAYER POPULATION ANALYSIS *
                      *****************************

  NA   - Mulliken gross atomic population
  ZA   - Total nuclear charge
  QA   - Mulliken gross atomic charge
  VA   - Mayer's total valence
  BVA  - Mayer's bonded valence
  FA   - Mayer's free valence

  ATOM       NA         ZA         QA         VA         BVA        FA
  0 C      6.4230     6.0000    -0.4230     3.9644     3.9644    -0.0000
  1 C      5.9090     6.0000     0.0910     3.8488     3.8488    -0.0000
  2 H      0.9571     1.0000     0.0429     0.9745     0.9745     0.0000
  3 C      6.1712     6.0000    -0.1712     3.9857     3.9857     0.0000
  4 C      6.1900     6.0000    -0.1900     3.9995     3.9995    -0.0000
  5 C      6.1259     6.0000    -0.1259     3.9562     3.9562     0.0000
  6 C      6.2284     6.0000    -0.2284     4.0003     4.0003    -0.0000
  7 C      5.9862     6.0000     0.0138     3.9247     3.9247    -0.0000
  8 H      0.9569     1.0000     0.0431     0.9773     0.9773     0.0000
  9 C      6.3578     6.0000    -0.3578     3.9020     3.9020     0.0000
 10 H      0.8936     1.0000     0.1064     0.9818     0.9818    -0.0000
 11 H      0.8918     1.0000     0.1082     0.9768     0.9768     0.0000
 12 H      0.8852     1.0000     0.1148     0.9767     0.9767    -0.0000
 13 H      0.9153     1.0000     0.0847     0.9834     0.9834     0.0000
 14 H      0.9226     1.0000     0.0774     0.9850     0.9850     0.0000
 15 H      0.9150     1.0000     0.0850     0.9786     0.9786    -0.0000
 16 H      0.9136     1.0000     0.0864     0.9792     0.9792    -0.0000
 17 H      0.9148     1.0000     0.0852     0.9804     0.9804     0.0000
 18 H      0.9288     1.0000     0.0712     0.9866     0.9866     0.0000
 19 H      0.9182     1.0000     0.0818     0.9843     0.9843    -0.0000
 20 H      0.9146     1.0000     0.0854     0.9823     0.9823     0.0000
 21 H      0.8929     1.0000     0.1071     0.9805     0.9805     0.0000
 22 H      0.8947     1.0000     0.1053     0.9828     0.9828     0.0000
 23 H      0.8934     1.0000     0.1066     0.9791     0.9791     0.0000

  Mayer bond orders larger than 0.100000
B(  0-C ,  1-C ) :   0.9260 B(  0-C , 10-H ) :   0.9753 B(  0-C , 11-H ) :   0.9734 
B(  0-C , 12-H ) :   0.9771 B(  1-C ,  2-H ) :   0.9518 B(  1-C ,  3-C ) :   0.9712 
B(  1-C ,  7-C ) :   0.9692 B(  3-C ,  4-C ) :   0.9959 B(  3-C , 13-H ) :   0.9671 
B(  3-C , 14-H ) :   0.9630 B(  4-C ,  5-C ) :   0.9917 B(  4-C , 15-H ) :   0.9679 
B(  4-C , 16-H ) :   0.9637 B(  5-C ,  6-C ) :   0.9947 B(  5-C , 17-H ) :   0.9654 
B(  5-C , 18-H ) :   0.9616 B(  6-C ,  7-C ) :   0.9889 B(  6-C , 19-H ) :   0.9628 
B(  6-C , 20-H ) :   0.9622 B(  7-C ,  8-H ) :   0.9541 B(  7-C ,  9-C ) :   0.9319 
B(  9-C , 21-H ) :   0.9785 B(  9-C , 22-H ) :   0.9767 B(  9-C , 23-H ) :   0.9745 


-------
TIMINGS
-------

Total SCF time: 0 days 0 hours 0 min 50 sec 

Total time                  ....      50.523 sec
Sum of individual times     ....      50.024 sec  ( 99.0%)

SCF preparation             ....       0.252 sec  (  0.5%)
Fock matrix formation       ....      48.584 sec  ( 96.2%)
  Startup                   ....       0.064 sec  (  0.1% of F)
  Split-RI-J                ....       6.928 sec  ( 14.3% of F)
  XC integration            ....      40.987 sec  ( 84.4% of F)
    XC Preparation          ....       0.000 sec  (  0.0% of XC)
    Basis function eval.    ....       5.928 sec  ( 14.5% of XC)
    Density eval.           ....      13.206 sec  ( 32.2% of XC)
    XC-Functional eval.     ....       2.787 sec  (  6.8% of XC)
    XC-Potential eval.      ....      17.995 sec  ( 43.9% of XC)
Diagonalization             ....       0.000 sec  (  0.0%)
Density matrix formation    ....       0.250 sec  (  0.5%)
Total Energy calculation    ....       0.033 sec  (  0.1%)
Population analysis         ....       0.040 sec  (  0.1%)
Orbital Transformation      ....       0.094 sec  (  0.2%)
Orbital Orthonormalization  ....       0.000 sec  (  0.0%)
DIIS solution               ....       0.495 sec  (  1.0%)
SOSCF solution              ....       0.275 sec  (  0.5%)
Finished LeanSCF after  50.6 sec

Maximum memory used throughout the entire LEANSCF-calculation: 43.7 MB

------------------------------------------------------------------------------
                         ORCA PROPERTY INTEGRAL CALCULATIONS
------------------------------------------------------------------------------

GBWName                                   ... vacuum_censo.gbw
Number of atoms                           ...     24
Number of basis functions                 ...    344
Max core memory                           ...   1024 MB

Dipole integrals                          ... YES
Quadrupole integrals                      ...  NO
Linear momentum integrals                 ...  NO
Angular momentum integrals                ...  NO
Higher moments length integrals           ...  NO
Higher moments velocity integrals         ...  NO
Kinetic energy integrals                  ...  NO
GIAO right hand sides                     ...  NO
GIAO dipole derivative integrals          ...  NO
SOC integrals                             ...  NO
EPR diamagnetic integrals (GIAO)          ...  NO
EPR gauge integrals                       ...  NO
Field gradient integrals                  ...  NO (   0 nuclei)
Spin-dipole/Fermi contact integrals       ...  NO (   0 nuclei)
Contact density integrals                 ...  NO (   0 nuclei)
Nucleus-orbit integrals                   ...  NO (   0 nuclei)
Geometric perturbations                   ... YES (  24 nuclei)

Choice of electric origin   ... Center of mass
Position of electric origin ... ( -0.0021, -0.0005,  0.0014) 
Choice of magnetic origin   ... GIAO
Position of magnetic origin ... (  0.0000,  0.0000,  0.0000) 

Calculating integrals                     ... Electric Dipole (Length)     done (  0.1 sec)
Calculating integrals                     ... Geometrical perturbation right hand sides

-----------------------
GEOMETRIC PERTURBATIONS (24 nuclei)
-----------------------

MaxCore                            ...   1024 MB
Number of batches                  ...      1

BATCH   0: Atoms    0 -   23 ( 72 perturbations)
   => H(core) and overlap derivative integrals     ... done (     1.0 sec)
   => Making and storing internal U-coefficients   ... done (     0.7 sec)
   => RI-J derivative integrals                    ... done (    10.5 sec)
   => RI-J response operators                      ... done (     2.8 sec)
   => XC derivative integrals                      ... done (   668.2 sec)
   => XC response operators                        ... done (   205.9 sec)
   => Completing and storing right hand sides      ... done (     0.3 sec)
   => Total time for right hand sides = 893.8 sec

  geometrical perturbations done (893.8 sec)

Property integrals calculated in 893.9 sec

Maximum memory used throughout the entire PROPINT-calculation: 284.1 MB


-------------------------------------------------------------------------------
                          DFT DISPERSION CORRECTION                            
                                                                               
                                DFTD4 V3.4.0                                   
-------------------------------------------------------------------------------
The R2SCAN3C composite method is recognized
Using three-body term ABC
Active option DFTDOPT                   ...         5   

-------------------------   ----------------
Dispersion correction           -0.007669936
-------------------------   ----------------

------------------   -----------------
gCP correction             0.010546415
------------------   -----------------

-------------------------   --------------------
FINAL SINGLE POINT ENERGY      -314.417528121122
-------------------------   --------------------

------------------------------------------------------------------------------
                            ORCA SCF RESPONSE CALCULATION
------------------------------------------------------------------------------

GBWName                                 ... vacuum_censo.gbw
Number of atoms                         ...     24
Number of basis functions               ...    344
Max core memory                         ...   1024 MB

Electric field perturbation             ...  NO
Quadrupolar field perturbation          ...  NO
Magnetic field perturbation (no GIAO)   ...  NO
Magnetic field perturbation (with GIAO) ...  NO
Linear momentum (velocity) perturbation ...  NO
Spin-orbit coupling perturbation        ...  NO
Choice of electric origin               ... Center of mass
Position of electric origin             ...    -0.002133    -0.000523     0.001404
Choice of magnetic origin               ... GIAO
Position of magnetic origin             ...     0.000000     0.000000     0.000000
Nuclear geometric perturbations         ... YES (  72 perturbations)
Nucleus-orbit perturbations             ...  NO (   0 perturbations)
Spin-dipole/Fermi contact perturbations ...  NO (   0 perturbations)

Total number of real perturbations      ...     72
Total number of imaginary perturbations ...      0
Total number of triplet perturbations   ...      0
Total number of SOC perturbations       ...      0


                                **********************
                                * REAL PERTURBATIONS *
                                **********************



-------------------
SHARK CP-SCF DRIVER
-------------------

Dimension of the orbital basis          ...    344
Dimension of the CPSCF-problem          ...   9984
Number of operators                     ...      1
Max. number of iterations               ...    128
Convergence Tolerance                   ... 1.0e-03
Number of perturbations                 ...     72
Perturbation type                       ... REAL

----------------------------
POPLE LINEAR EQUATION SOLVER
----------------------------

  ITERATION   0:   ||err||_max =   1.2579e-01 (  59.3 sec   0/ 72 done)
  ITERATION   1:   ||err||_max =   1.8284e-02 (  66.9 sec   0/ 72 done)
  ITERATION   2:   ||err||_max =   4.9266e-03 (  67.3 sec  12/ 72 done)
  ITERATION   3:   ||err||_max =   1.6638e-03 (  59.4 sec  40/ 72 done)
  ITERATION   4:   ||err||_max =   4.9171e-04 (  32.0 sec  72/ 72 done)

CP-SCF equations solved in 287.9 sec
Response densities calculated in   0.3 sec

Maximum memory used throughout the entire SCFRESP-calculation: 188.9 MB

------------------------------------------------------------------------------
                              ORCA PROPERTY CALCULATIONS
------------------------------------------------------------------------------

GBWName                                 ... vacuum_censo.gbw
Number of atoms                         ...     24
Number of basis functions               ...    344
Max core memory                         ...   1024 MB

Electric properties:
Dipole moment                           ... YES
Quadrupole moment                       ...  NO
Static polarizability (Dipole/Dipole)   ...  NO
Static polarizability (Dipole/Quad.)    ...  NO
Static polarizability (Quad./Quad.)     ...  NO
Static polarizability (Velocity)        ...  NO

Atomic electric properties:
Dipole moment                           ...  NO
Quadrupole moment                       ...  NO
Static polarizability                   ...  NO

Choice of electric origin               ... Center of mass
Position of electric origin             ...    -0.002133    -0.000523     0.001404

General magnetic properties:
Magnetizability                         ...  NO

EPR properties:
g-Tensor (aka g-matrix)                 ...  NO
Zero-Field splitting spin-orbit         ...  NO
Zero-field splitting spin-spin          ...  NO
Hyperfine couplings                     ...  NO (   0 nuclei)
Quadrupole couplings                    ...  NO (   0 nuclei)
Contact density                         ...  NO (   0 nuclei)

NMR properties:
Chemical shifts                         ...  NO (   0 nuclei)
Spin-rotation constants                 ...  NO (   0 nuclei)
Spin-spin couplings                     ...  NO (   0 nuclei,    0 pairs)

Choice of magnetic origin               ... GIAO
Position of magnetic origin             ...     0.000000     0.000000     0.000000

Properties with geometric perturbations:
SCF Hessian                             ... YES
IR spectrum                             ... YES
VCD spectrum                            ...  NO
X-ray spectroscopy properties:
SCF XES/XAS/RIXS spectra                ...  NO


-------------
DIPOLE MOMENT
-------------

Method             : SCF
Type of density    : Electron Density
Multiplicity       :   1
Irrep              :   0
Energy             :  -314.4204046001540291 Eh
Relativity type    : 
Basis              : AO
                                X                 Y                 Z
Electronic contribution:     -1.511392253       0.454381736       1.177217440
Nuclear contribution   :      1.488800924      -0.449203686      -1.136794392
                        -----------------------------------------
Total Dipole Moment    :     -0.022591329       0.005178050       0.040423048
                        -----------------------------------------
Magnitude (a.u.)       :      0.046596171
Magnitude (Debye)      :      0.118438054



--------------------
Rotational spectrum 
--------------------
 
Rotational constants in cm-1:             0.088400             0.063475             0.045748 
Rotational constants in MHz :          2650.152043          1902.941322          1371.497911 

Dipole components along the rotational axes: 
x,y,z [a.u.] :    -0.022610     0.005091     0.040424 
x,y,z [Debye]:    -0.057471     0.012940     0.102749 

 

Dipole moment calculation done in   0.0 sec 

-----------
SCF HESSIAN
-----------

Occupied/Occupied contributions to the Hessian:
   => Occupied/Occupied contributions              ... done (  0.0 sec)
Perturbed density contributions to the Hessian:
   => Perturbed density contributions              ... done (  0.1 sec)
Explicit contributions to the Hessian:
   => Nuclear repulsion Hessian                    ... done (  0.0 sec)
   => HCore and overlap Hessian                    ... done ( 41.8 sec)
   => RI-J Hessian                                 ... done ( 21.2 sec)
   => XC-Hessian                                   ... done (190.6 sec)
   => Van der Waals-Hessian                        ... done (  4.4 sec)
   => GCP-Hessian                                  ... done (  0.1 sec)
   => Explicit contributions done
Dipole derivatives                                 ... done (  0.2 sec)
Mass weighting the Hessian           ... done
Calculating normal modes             ... done
Scaling frequencies                  ... done

-----------------------
VIBRATIONAL FREQUENCIES
-----------------------

Scaling factor for frequencies =  1.000000000  (already applied!)

     0:       0.00 cm**-1
     1:       0.00 cm**-1
     2:       0.00 cm**-1
     3:       0.00 cm**-1
     4:       0.00 cm**-1
     5:       0.00 cm**-1
     6:     141.51 cm**-1
     7:     181.67 cm**-1
     8:     227.00 cm**-1
     9:     256.84 cm**-1
    10:     299.79 cm**-1
    11:     320.03 cm**-1
    12:     333.40 cm**-1
    13:     398.40 cm**-1
    14:     416.56 cm**-1
    15:     475.20 cm**-1
    16:     539.32 cm**-1
    17:     597.34 cm**-1
    18:     734.30 cm**-1
    19:     812.65 cm**-1
    20:     834.00 cm**-1
    21:     847.50 cm**-1
    22:     891.01 cm**-1
    23:     931.86 cm**-1
    24:     951.46 cm**-1
    25:     984.53 cm**-1
    26:     990.36 cm**-1
    27:    1016.25 cm**-1
    28:    1031.59 cm**-1
    29:    1064.34 cm**-1
    30:    1102.61 cm**-1
    31:    1108.22 cm**-1
    32:    1113.76 cm**-1
    33:    1174.73 cm**-1
    34:    1182.84 cm**-1
    35:    1240.83 cm**-1
    36:    1271.94 cm**-1
    37:    1280.55 cm**-1
    38:    1324.78 cm**-1
    39:    1331.39 cm**-1
    40:    1341.34 cm**-1
    41:    1357.71 cm**-1
    42:    1360.50 cm**-1
    43:    1368.23 cm**-1
    44:    1380.31 cm**-1
    45:    1385.60 cm**-1
    46:    1400.67 cm**-1
    47:    1404.12 cm**-1
    48:    1471.91 cm**-1
    49:    1473.43 cm**-1
    50:    1477.61 cm**-1
    51:    1488.07 cm**-1
    52:    1490.46 cm**-1
    53:    1497.62 cm**-1
    54:    1500.07 cm**-1
    55:    1508.06 cm**-1
    56:    2965.83 cm**-1
    57:    2979.61 cm**-1
    58:    2985.56 cm**-1
    59:    2992.89 cm**-1
    60:    2994.62 cm**-1
    61:    2999.46 cm**-1
    62:    3001.63 cm**-1
    63:    3013.93 cm**-1
    64:    3035.63 cm**-1
    65:    3036.83 cm**-1
    66:    3042.14 cm**-1
    67:    3050.96 cm**-1
    68:    3076.21 cm**-1
    69:    3078.41 cm**-1
    70:    3083.88 cm**-1
    71:    3094.68 cm**-1


------------
NORMAL MODES
------------

These modes are the Cartesian displacements weighted by the diagonal matrix
M(i,i)=1/sqrt(m[i]) where m[i] is the mass of the displaced atom
Thus, these vectors are normalized but *not* orthogonal

                  0          1          2          3          4          5    
      0       0.000000   0.000000   0.000000   0.000000   0.000000   0.000000
      1       0.000000   0.000000   0.000000   0.000000   0.000000   0.000000
      2       0.000000   0.000000   0.000000   0.000000   0.000000   0.000000
      3       0.000000   0.000000   0.000000   0.000000   0.000000   0.000000
      4       0.000000   0.000000   0.000000   0.000000   0.000000   0.000000
      5       0.000000   0.000000   0.000000   0.000000   0.000000   0.000000
      6       0.000000   0.000000   0.000000   0.000000   0.000000   0.000000
      7       0.000000   0.000000   0.000000   0.000000   0.000000   0.000000
      8       0.000000   0.000000   0.000000   0.000000   0.000000   0.000000
      9       0.000000   0.000000   0.000000   0.000000   0.000000   0.000000
     10       0.000000   0.000000   0.000000   0.000000   0.000000   0.000000
     11       0.000000   0.000000   0.000000   0.000000   0.000000   0.000000
     12       0.000000   0.000000   0.000000   0.000000   0.000000   0.000000
     13       0.000000   0.000000   0.000000   0.000000   0.000000   0.000000
     14       0.000000   0.000000   0.000000   0.000000   0.000000   0.000000
     15       0.000000   0.000000   0.000000   0.000000   0.000000   0.000000
     16       0.000000   0.000000   0.000000   0.000000   0.000000   0.000000
     17       0.000000   0.000000   0.000000   0.000000   0.000000   0.000000
     18       0.000000   0.000000   0.000000   0.000000   0.000000   0.000000
     19       0.000000   0.000000   0.000000   0.000000   0.000000   0.000000
     20       0.000000   0.000000   0.000000   0.000000   0.000000   0.000000
     21       0.000000   0.000000   0.000000   0.000000   0.000000   0.000000
     22       0.000000   0.000000   0.000000   0.000000   0.000000   0.000000
     23       0.000000   0.000000   0.000000   0.000000   0.000000   0.000000
     24       0.000000   0.000000   0.000000   0.000000   0.000000   0.000000
     25       0.000000   0.000000   0.000000   0.000000   0.000000   0.000000
     26       0.000000   0.000000   0.000000   0.000000   0.000000   0.000000
     27       0.000000   0.000000   0.000000   0.000000   0.000000   0.000000
     28       0.000000   0.000000   0.000000   0.000000   0.000000   0.000000
     29       0.000000   0.000000   0.000000   0.000000   0.000000   0.000000
     30       0.000000   0.000000   0.000000   0.000000   0.000000   0.000000
     31       0.000000   0.000000   0.000000   0.000000   0.000000   0.000000
     32       0.000000   0.000000   0.000000   0.000000   0.000000   0.000000
     33       0.000000   0.000000   0.000000   0.000000   0.000000   0.000000
     34       0.000000   0.000000   0.000000   0.000000   0.000000   0.000000
     35       0.000000   0.000000   0.000000   0.000000   0.000000   0.000000
     36       0.000000   0.000000   0.000000   0.000000   0.000000   0.000000
     37       0.000000   0.000000   0.000000   0.000000   0.000000   0.000000
     38       0.000000   0.000000   0.000000   0.000000   0.000000   0.000000
     39       0.000000   0.000000   0.000000   0.000000   0.000000   0.000000
     40       0.000000   0.000000   0.000000   0.000000   0.000000   0.000000
     41       0.000000   0.000000   0.000000   0.000000   0.000000   0.000000
     42       0.000000   0.000000   0.000000   0.000000   0.000000   0.000000
     43       0.000000   0.000000   0.000000   0.000000   0.000000   0.000000
     44       0.000000   0.000000   0.000000   0.000000   0.000000   0.000000
     45       0.000000   0.000000   0.000000   0.000000   0.000000   0.000000
     46       0.000000   0.000000   0.000000   0.000000   0.000000   0.000000
     47       0.000000   0.000000   0.000000   0.000000   0.000000   0.000000
     48       0.000000   0.000000   0.000000   0.000000   0.000000   0.000000
     49       0.000000   0.000000   0.000000   0.000000   0.000000   0.000000
     50       0.000000   0.000000   0.000000   0.000000   0.000000   0.000000
     51       0.000000   0.000000   0.000000   0.000000   0.000000   0.000000
     52       0.000000   0.000000   0.000000   0.000000   0.000000   0.000000
     53       0.000000   0.000000   0.000000   0.000000   0.000000   0.000000
     54       0.000000   0.000000   0.000000   0.000000   0.000000   0.000000
     55       0.000000   0.000000   0.000000   0.000000   0.000000   0.000000
     56       0.000000   0.000000   0.000000   0.000000   0.000000   0.000000
     57       0.000000   0.000000   0.000000   0.000000   0.000000   0.000000
     58       0.000000   0.000000   0.000000   0.000000   0.000000   0.000000
     59       0.000000   0.000000   0.000000   0.000000   0.000000   0.000000
     60       0.000000   0.000000   0.000000   0.000000   0.000000   0.000000
     61       0.000000   0.000000   0.000000   0.000000   0.000000   0.000000
     62       0.000000   0.000000   0.000000   0.000000   0.000000   0.000000
     63       0.000000   0.000000   0.000000   0.000000   0.000000   0.000000
     64       0.000000   0.000000   0.000000   0.000000   0.000000   0.000000
     65       0.000000   0.000000   0.000000   0.000000   0.000000   0.000000
     66       0.000000   0.000000   0.000000   0.000000   0.000000   0.000000
     67       0.000000   0.000000   0.000000   0.000000   0.000000   0.000000
     68       0.000000   0.000000   0.000000   0.000000   0.000000   0.000000
     69       0.000000   0.000000   0.000000   0.000000   0.000000   0.000000
     70       0.000000   0.000000   0.000000   0.000000   0.000000   0.000000
     71       0.000000   0.000000   0.000000   0.000000   0.000000   0.000000
                  6          7          8          9         10         11    
      0      -0.124276  -0.079385  -0.051488  -0.094298   0.041470   0.087347
      1       0.080011   0.087758   0.004419  -0.090631   0.156834   0.005709
      2      -0.131310  -0.030331   0.014358  -0.004713   0.020051  -0.018432
      3       0.016941  -0.000459  -0.001530   0.013098  -0.015933  -0.004313
      4      -0.004818   0.015629   0.007166  -0.017084   0.060302  -0.068094
      5      -0.048977   0.032442   0.020078  -0.015599   0.049739   0.000020
      6       0.092123   0.024380   0.012831   0.020189  -0.010623  -0.056822
      7      -0.054171  -0.029396   0.000708  -0.018726   0.052353  -0.121890
      8      -0.132442  -0.015239   0.006465  -0.021563   0.040526  -0.000844
      9       0.047550   0.014887  -0.000129   0.011675  -0.024632  -0.024264
     10       0.005845   0.032965   0.013532   0.007369  -0.037405  -0.010373
     11       0.085807   0.074861   0.017912  -0.013131  -0.018161  -0.013599
     12      -0.014565   0.041640   0.025683   0.046052  -0.025580  -0.072733
     13      -0.030273  -0.083705  -0.029678  -0.007560  -0.025157   0.057507
     14       0.105465  -0.050769  -0.047435  -0.058690  -0.003842   0.078302
     15       0.031811  -0.020619  -0.006368   0.007074  -0.003410   0.002810
     16      -0.033796  -0.060734  -0.018321  -0.000574  -0.030677   0.041701
     17      -0.102074  -0.080847  -0.046471   0.026109   0.008675  -0.117128
     18       0.039128   0.012434   0.015302   0.008119  -0.004201   0.043923
     19      -0.062238   0.034827   0.032723   0.040082  -0.003533  -0.036706
     20      -0.098525   0.079264   0.062345   0.053810  -0.024480   0.094487
     21      -0.004749   0.023459   0.015001   0.016426   0.004880   0.004821
     22      -0.003912   0.005960   0.000461  -0.007008   0.044961  -0.074208
     23      -0.005859   0.047600   0.030708  -0.001838   0.015254   0.083716
[...]
     63      -0.006807   0.010941  -0.418101  -0.001764  -0.070893   0.012436
     64       0.008325  -0.013609   0.472471  -0.012975   0.085949  -0.017436
     65      -0.006127   0.010427  -0.436236  -0.014374  -0.068261   0.010423
     66      -0.004672   0.010041   0.145787   0.192630  -0.055226   0.022158
     67      -0.017345   0.033820   0.441455   0.607175  -0.178212   0.073565
     68      -0.003091   0.005734   0.107261   0.111664  -0.029066   0.012967
     69       0.001390  -0.006611   0.080345  -0.126781   0.070665  -0.025988
     70      -0.002011   0.007590  -0.096968   0.115786  -0.067790   0.026877
     71      -0.010811   0.037095  -0.361347   0.599920  -0.326996   0.127909


-----------
IR SPECTRUM
-----------

 Mode   freq       eps      Int      T**2         TX        TY        TZ
       cm**-1   L/(mol*cm) km/mol    a.u.
----------------------------------------------------------------------------
  6:    141.51   0.000003    0.02  0.000007  (-0.001243 -0.000749 -0.002156)
  7:    181.67   0.000006    0.03  0.000010  ( 0.001745 -0.000301 -0.002579)
  8:    227.00   0.000001    0.01  0.000002  (-0.000634  0.001089 -0.000143)
  9:    256.84   0.000007    0.04  0.000009  (-0.001165 -0.002662  0.000436)
 10:    299.79   0.000002    0.01  0.000002  (-0.000659  0.000547 -0.001250)
 11:    320.03   0.000002    0.01  0.000002  (-0.000837 -0.001219 -0.000242)
 12:    333.40   0.000008    0.04  0.000007  ( 0.000289  0.001745 -0.002006)
 13:    398.40   0.000026    0.13  0.000021  ( 0.002940 -0.003353 -0.000897)
 14:    416.56   0.000036    0.18  0.000027  (-0.001413 -0.002150 -0.004492)
 15:    475.20   0.000076    0.38  0.000050  (-0.001336 -0.004927 -0.004852)
 16:    539.32   0.000049    0.25  0.000029  (-0.000471 -0.005319  0.000108)
 17:    597.34   0.000336    1.70  0.000176  (-0.008182  0.009459  0.004395)
 18:    734.30   0.000055    0.28  0.000023  (-0.004241  0.000111 -0.002322)
 19:    812.65   0.000072    0.36  0.000028  (-0.004728  0.001121  0.002013)
 20:    834.00   0.000184    0.93  0.000069  ( 0.002690 -0.007412  0.002612)
 21:    847.50   0.000243    1.23  0.000089  (-0.008046  0.003818 -0.003165)
 22:    891.01   0.000160    0.81  0.000056  ( 0.001248 -0.004617  0.005756)
 23:    931.86   0.000084    0.42  0.000028  ( 0.001958  0.004309  0.002388)
 24:    951.46   0.000362    1.83  0.000119  ( 0.010807 -0.001168  0.000778)
 25:    984.53   0.000103    0.52  0.000033  (-0.003236  0.003848 -0.002701)
 26:    990.36   0.000310    1.57  0.000098  ( 0.000109  0.001191  0.009814)
 27:   1016.25   0.000603    3.05  0.000185  (-0.008361 -0.010712  0.000764)
 28:   1031.59   0.000262    1.32  0.000079  (-0.000461  0.008868  0.000544)
 29:   1064.34   0.000082    0.41  0.000024  (-0.000635 -0.004839 -0.000372)
 30:   1102.61   0.000037    0.19  0.000011  (-0.002920 -0.001365  0.000409)
 31:   1108.22   0.000322    1.63  0.000091  ( 0.004030  0.008428  0.001865)
 32:   1113.76   0.000166    0.84  0.000047  ( 0.002083  0.001213  0.006383)
 33:   1174.73   0.000521    2.63  0.000138  (-0.010925 -0.003794  0.002150)
 34:   1182.84   0.000306    1.55  0.000081  ( 0.004754  0.007008 -0.003014)
 35:   1240.83   0.000050    0.25  0.000013  (-0.003151 -0.001559 -0.000556)
 36:   1271.94   0.000130    0.65  0.000032  (-0.004620  0.003175  0.000595)
 37:   1280.55   0.000082    0.41  0.000020  (-0.001652 -0.003601  0.002058)
 38:   1324.78   0.000108    0.55  0.000025  ( 0.001854 -0.004265  0.001963)
 39:   1331.39   0.000074    0.37  0.000017  ( 0.002744 -0.002200 -0.002224)
 40:   1341.34   0.000118    0.59  0.000027  (-0.004770  0.002142 -0.000090)
 41:   1357.71   0.000015    0.08  0.000003  (-0.000546  0.001332  0.001171)
 42:   1360.50   0.000073    0.37  0.000017  (-0.000959 -0.003932  0.000670)
 43:   1368.23   0.000060    0.30  0.000014  (-0.002568  0.000902 -0.002515)
 44:   1380.31   0.000155    0.78  0.000035  ( 0.001972  0.002819  0.004816)
 45:   1385.60   0.000436    2.20  0.000098  ( 0.009486 -0.001978  0.002060)
 46:   1400.67   0.000854    4.32  0.000190  (-0.006246 -0.012150 -0.001922)
 47:   1404.12   0.002079   10.51  0.000462  (-0.010636  0.011669  0.014585)
 48:   1471.91   0.000370    1.87  0.000078  ( 0.008013 -0.003371  0.001705)
 49:   1473.43   0.000890    4.50  0.000189  ( 0.010549  0.005024 -0.007211)
 50:   1477.61   0.001594    8.05  0.000337  ( 0.000147 -0.016225 -0.008563)
 51:   1488.07   0.001076    5.44  0.000226  ( 0.007307  0.010169  0.008292)
 52:   1490.46   0.002138   10.81  0.000448  ( 0.006258  0.005312 -0.019501)
 53:   1497.62   0.002433   12.30  0.000507  ( 0.010006 -0.011241  0.016748)
 54:   1500.07   0.000193    0.97  0.000040  (-0.004626 -0.004202 -0.001024)
 55:   1508.06   0.000212    1.07  0.000044  ( 0.001305 -0.005614  0.003249)
 56:   2965.83   0.003423   17.30  0.000360  ( 0.008555 -0.011837 -0.012118)
 57:   2979.61   0.002652   13.40  0.000278  ( 0.016211 -0.001288  0.003643)
 58:   2985.56   0.005303   26.80  0.000554  (-0.013062  0.019242  0.003665)
 59:   2992.89   0.004492   22.70  0.000468  (-0.009853 -0.007339  0.017815)
 60:   2994.62   0.015860   80.15  0.001653  ( 0.001452  0.016170 -0.037272)
 61:   2999.46   0.002667   13.48  0.000278  ( 0.012204  0.007878  0.008155)
 62:   3001.63   0.009850   49.78  0.001024  ( 0.031194  0.007104  0.000676)
 63:   3013.93   0.004630   23.40  0.000479  (-0.008106  0.014711  0.014043)
 64:   3035.63   0.016935   85.58  0.001741  (-0.005589 -0.041072 -0.004770)
 65:   3036.83   0.001919    9.70  0.000197  (-0.013738 -0.002819 -0.000700)
 66:   3042.14   0.009197   46.48  0.000943  (-0.028138  0.006720 -0.010323)
 67:   3050.96   0.016274   82.24  0.001665  (-0.008728  0.012711  0.037774)
 68:   3076.21   0.005489   27.74  0.000557  ( 0.007319 -0.016184  0.015536)
 69:   3078.41   0.010379   52.45  0.001052  (-0.011041 -0.025793 -0.016278)
 70:   3083.88   0.007451   37.66  0.000754  (-0.007720 -0.013519  0.022620)
 71:   3094.68   0.005959   30.12  0.000601  ( 0.020156 -0.010826  0.008802)

* The epsilon (eps) is given for a Dirac delta lineshape.
** The dipole moment derivative (T) already includes vibrational overlap.

The first frequency considered to be a vibration is 6
The total number of vibrations considered is 66


--------------------------
THERMOCHEMISTRY AT 298.15K
--------------------------

Temperature         ...   298.15 K
Pressure            ...     1.00 atm
Total Mass          ...   112.22 AMU
Quasi RRHO          ...     True
Cut-Off Frequency   ...     1.00 cm^-1

Throughout the following assumptions are being made:
  (1) The electronic state is orbitally nondegenerate
  (2) There are no thermally accessible electronically excited states
  (3) Hindered rotations indicated by low frequency modes are not
      treated as such but are treated as vibrations and this may
      cause some error
  (4) All equations used are the standard statistical mechanics
      equations for an ideal gas
  (5) All vibrations are strictly harmonic

freq.     141.51  E(vib)   ...       0.41 
freq.     181.67  E(vib)   ...       0.37 
freq.     227.00  E(vib)   ...       0.33 
freq.     256.84  E(vib)   ...       0.30 
freq.     299.79  E(vib)   ...       0.26 
freq.     320.03  E(vib)   ...       0.25 
freq.     333.40  E(vib)   ...       0.24 
freq.     398.40  E(vib)   ...       0.20 
freq.     416.56  E(vib)   ...       0.18 
freq.     475.20  E(vib)   ...       0.15 
freq.     539.32  E(vib)   ...       0.12 
freq.     597.34  E(vib)   ...       0.10 
freq.     734.30  E(vib)   ...       0.06 
freq.     812.65  E(vib)   ...       0.05 
freq.     834.00  E(vib)   ...       0.04 
freq.     847.50  E(vib)   ...       0.04 
freq.     891.01  E(vib)   ...       0.04 
freq.     931.86  E(vib)   ...       0.03 
freq.     951.46  E(vib)   ...       0.03 
freq.     984.53  E(vib)   ...       0.02 
freq.     990.36  E(vib)   ...       0.02 
freq.    1016.25  E(vib)   ...       0.02 
freq.    1031.59  E(vib)   ...       0.02 
freq.    1064.34  E(vib)   ...       0.02 
freq.    1102.61  E(vib)   ...       0.02 
freq.    1108.22  E(vib)   ...       0.02 
freq.    1113.76  E(vib)   ...       0.01 
freq.    1174.73  E(vib)   ...       0.01 
freq.    1182.84  E(vib)   ...       0.01 
freq.    1240.83  E(vib)   ...       0.01 
freq.    1271.94  E(vib)   ...       0.01 
freq.    1280.55  E(vib)   ...       0.01 
freq.    1324.78  E(vib)   ...       0.01 
freq.    1331.39  E(vib)   ...       0.01 
freq.    1341.34  E(vib)   ...       0.01 
freq.    1357.71  E(vib)   ...       0.01 
freq.    1360.50  E(vib)   ...       0.01 
freq.    1368.23  E(vib)   ...       0.01 
freq.    1380.31  E(vib)   ...       0.01 
freq.    1385.60  E(vib)   ...       0.00 
freq.    1400.67  E(vib)   ...       0.00 
freq.    1404.12  E(vib)   ...       0.00 
freq.    1471.91  E(vib)   ...       0.00 
freq.    1473.43  E(vib)   ...       0.00 
freq.    1477.61  E(vib)   ...       0.00 
freq.    1488.07  E(vib)   ...       0.00 
freq.    1490.46  E(vib)   ...       0.00 
freq.    1497.62  E(vib)   ...       0.00 
freq.    1500.07  E(vib)   ...       0.00 
freq.    1508.06  E(vib)   ...       0.00 
freq.    2965.83  E(vib)   ...       0.00 
freq.    2979.61  E(vib)   ...       0.00 
freq.    2985.56  E(vib)   ...       0.00 
freq.    2992.89  E(vib)   ...       0.00 
freq.    2994.62  E(vib)   ...       0.00 
freq.    2999.46  E(vib)   ...       0.00 
freq.    3001.63  E(vib)   ...       0.00 
freq.    3013.93  E(vib)   ...       0.00 
freq.    3035.63  E(vib)   ...       0.00 
freq.    3036.83  E(vib)   ...       0.00 
freq.    3042.14  E(vib)   ...       0.00 
freq.    3050.96  E(vib)   ...       0.00 
freq.    3076.21  E(vib)   ...       0.00 
freq.    3078.41  E(vib)   ...       0.00 
freq.    3083.88  E(vib)   ...       0.00 
freq.    3094.68  E(vib)   ...       0.00 

------------
INNER ENERGY
------------

The inner energy is: U= E(el) + E(ZPE) + E(vib) + E(rot) + E(trans)
    E(el)   - is the total energy from the electronic structure calculation
              = E(kin-el) + E(nuc-el) + E(el-el) + E(nuc-nuc)
    E(ZPE)  - the the zero temperature vibrational energy from the frequency calculation
    E(vib)  - the the finite temperature correction to E(ZPE) due to population
              of excited vibrational states
    E(rot)  - is the rotational thermal energy
    E(trans)- is the translational thermal energy

Summary of contributions to the inner energy U:
Electronic energy                ...   -314.41752812 Eh
Zero point energy                ...      0.22496106 Eh     141.16 kcal/mol
Thermal vibrational correction   ...      0.00555296 Eh       3.48 kcal/mol
Thermal rotational correction    ...      0.00141627 Eh       0.89 kcal/mol
Thermal translational correction ...      0.00141627 Eh       0.89 kcal/mol
-----------------------------------------------------------------------
Total thermal energy                   -314.18418155 Eh


Summary of corrections to the electronic energy:
(perhaps to be used in another calculation)
Total thermal correction                  0.00838551 Eh       5.26 kcal/mol
Non-thermal (ZPE) correction              0.22496106 Eh     141.16 kcal/mol
-----------------------------------------------------------------------
Total correction                          0.23334657 Eh     146.43 kcal/mol


--------
ENTHALPY
--------

The enthalpy is H = U + kB*T
                kB is Boltzmann's constant
Total thermal energy              ...   -314.18418155 Eh 
Thermal Enthalpy correction       ...      0.00094421 Eh       0.59 kcal/mol
-----------------------------------------------------------------------
Total Enthalpy                    ...   -314.18323734 Eh


Note: Only C1 symmetry has been detected, increase convergence thresholds 
      if your molecule has a higher symmetry. Symmetry factor of 1.0 is   
      used for the rotational entropy correction. 
 

Note: Rotational entropy computed according to Herzberg 
Infrared and Raman Spectra, Chapter V,1, Van Nostrand Reinhold, 1945 
Point Group:  C1, Symmetry Number:   1  
Rotational constants in cm-1:     0.088400     0.063475     0.045748 

Vibrational entropy computed according to the QRRHO of S. Grimme
Chem.Eur.J. 2012 18 9955 using a reference frequency of 100.0 cm-1


-------
ENTROPY
-------

The entropy contributions are T*S = T*(S(el)+S(vib)+S(rot)+S(trans))
     S(el)   - electronic entropy
     S(vib)  - vibrational entropy
     S(rot)  - rotational entropy
     S(trans)- translational entropy
The entropies will be listed as multiplied by the temperature to get
units of energy

Electronic entropy                ...      0.00000000 Eh      0.00 kcal/mol
Vibrational entropy               ...      0.00881478 Eh      5.53 kcal/mol
Rotational entropy                ...      0.01341386 Eh      8.42 kcal/mol
Translational entropy             ...      0.01903448 Eh     11.94 kcal/mol
-----------------------------------------------------------------------
Final entropy term                ...      0.04126312 Eh     25.89 kcal/mol

In case the symmetry of your molecule has not been determined correctly
or in case you have a reason to use a different symmetry number we print 
out the resulting rotational entropy values for sn=1,12:

 non-linear molecules -----------------------------------
|  sn= 1 | S(rot)=       0.01341386 Eh      8.42 kcal/mol|
|  sn= 2 | S(rot)=       0.01275941 Eh      8.01 kcal/mol|
|  sn= 3 | S(rot)=       0.01237657 Eh      7.77 kcal/mol|
|  sn= 4 | S(rot)=       0.01210495 Eh      7.60 kcal/mol|
|  sn= 5 | S(rot)=       0.01189426 Eh      7.46 kcal/mol|
|  sn= 6 | S(rot)=       0.01172212 Eh      7.36 kcal/mol|
|  sn= 7 | S(rot)=       0.01157657 Eh      7.26 kcal/mol|
|  sn= 8 | S(rot)=       0.01145049 Eh      7.19 kcal/mol|
|  sn= 9 | S(rot)=       0.01133929 Eh      7.12 kcal/mol|
|  sn=10 | S(rot)=       0.01123981 Eh      7.05 kcal/mol|
|  sn=11 | S(rot)=       0.01114982 Eh      7.00 kcal/mol|
|  sn=12 | S(rot)=       0.01106766 Eh      6.95 kcal/mol|
 linear molecules ---------------------------------------
|  Dinfh | S(rot)=       0.00823823 Eh      5.17 kcal/mol|
|  Cinfv | S(rot)=       0.00889269 Eh      5.58 kcal/mol|
 --------------------------------------------------------


-------------------
GIBBS FREE ENERGY
-------------------

The Gibbs free energy is G = H - T*S

Total enthalpy                    ...   -314.18323734 Eh 
Total entropy correction          ...     -0.04126312 Eh    -25.89 kcal/mol
-----------------------------------------------------------------------
Final Gibbs free energy         ...   -314.22450046 Eh

For completeness - the Gibbs free energy minus the electronic energy
G-E(el)                           ...      0.19302766 Eh    121.13 kcal/mol


Maximum memory used throughout the entire PROP-calculation: 76.4 MB

--------------------------------
SUGGESTED CITATIONS FOR THIS RUN
--------------------------------

Below you find a list of papers that are relevant to this ORCA run
We neither can nor want to force you to cite these papers, but we appreciate if you do
You receive ORCA, which is the product of decades of hard work by many enthusiastic individuals, for free
The only thing we kindly ask in return is that you cite our papers,
We deeply appreciate it, if you show your appreciation for ORCA by not just citing the generic ORCA reference.

Please note that relegating all ORCA citations to the supporting information does *not* help us.
SI sections are not indexed - citations you put there will not count into any citation statistics
But we need these citations in order to attract the funding resources that allow us to do what we are doing

Therefore, if you are a happy ORCA user, please consider citing a few of the papers listed below in the main body of your paper

In addition to the list printed below, the program has created the file vacuum_censo.bibtex that contains the list in bibtex format
You can import this file easily into all common literature databanks and citation aid programs


List of essential papers. We consider these as the minimum necessary citations

  1. Neese,F.
     Software update: the ORCA program system, version 5.0
     WIRES Comput. Molec. Sci., 2022 12(1)e1606
     doi.org/10.1002/wcms.1606
  2. Grimme,S.; Hansen,A.; Ehlert,S.; Mewes,J.
     r2SCAN-3c: A 'Swiss army knife' composite electronic-structure method
     J. Chem. Phys., 2021 154 064103
     doi.org/10.1063/5.0040021

List of papers to cite with high priority. The work reported in these papers was absolutely
necessary for this run to complete.
Our perspective: the developers of density functionals and basis sets usually get cited in chemistry papers
Good! But without the algorithms to do something with them, the functionals or basis sets would not do anything.
Hence, in our opinion, the algorithm design and method developments papers are equally worthy of getting cited

  1. Neese,F.
     An improvement of the resolution of the identity approximation for the formation of the Coulomb matrix
     J. Comp. Chem., 2003 24(14)1740-1747
     doi.org/10.1002/jcc.10318
  2. Bykov,D.; Petrenko,T.; Izsak,R.; Kossmann,S.; Becker,U.; Valeev,E.; Neese,F.
     Efficient implementation of the analytic second derivatives of Hartree-Fock and hybrid DFT energies: a detailed analysis of different approximations
     Molec. Phys., 2015 113 1961-1977
     doi.org/10.1080/00268976.2015.1025114
  3. Neese,F.
     The SHARK Integral Generation and Digestion System
     J. Comp. Chem., 2022  1-16
     doi.org/10.1002/jcc.26942
  4. Lehtola,S.; Steigemann,C.; Oliveira,M.; Marques,M.
     Recent developments in Libxc - A comprehensive library of functionals for density functional theory
     Software X, 2018 7 
     doi.org/10.1016/j.softx.2017.11.002
  5. Caldeweyher,E.; Bannwarth,C.; Grimme,S.
     Extension of the D3 dispersion coefficient model
     J. Chem. Phys., 2017 147 034112-XXXX
     doi.org/10.1063/1.4993215
  6. Caldeweyher,E.; Ehlert,S.; Hansen,A.; Neugebauer,H.; Spicher,S.; Bannwarth,C.; Grimme,S.
     A generally applicable atomic-charge dependent London dispersion correction
     J. Chem. Phys., 2019 150 154122-XXXX
     doi.org/10.1063/1.5090222
  7. Caldeweyher,E.; Mewes,J.; Ehlert,S.; Grimme,S.
     Extension and evaluation of the D4 London-dispersion model for periodic systems
     Phys. Chem. Chem. Phys., 2020 22(16)8499-8512
     doi.org/10.1039/D0CP00502A

List of suggested additional citations. These are papers that are important in the 'surrounding' of 
of this run, or papers that preceded the highly important papers. If you like your results we are grateful for a citation.

  1. Neese,F.
     The ORCA program system
     WIRES Comput. Molec. Sci., 2012 2(1)73-78
     doi.org/10.1002/wcms.81
  2. Neese,F.
     Software update: the ORCA program system, version 4.0
     WIRES Comput. Molec. Sci., 2018 8(1)1-6
     doi.org/10.1002/wcms.1327
  3. Neese,F.; Wennmohs,F.; Becker,U.; Riplinger,C.
     The ORCA quantum chemistry program package
     J. Chem. Phys., 2020 152 Art. No. L224108
     doi.org/10.1063/5.0004608

List of optional additional citations

  1. Neese,F.
     Approximate second-order SCF convergence for spin unrestricted wavefunctions
     Chem. Phys. Lett., 2000 325(1-3)93-98
     doi.org/10.1016/s0009-2614(00)00662-x

Timings for individual modules:

Sum of individual times          ...     1501.353 sec (=  25.023 min)
Startup calculation              ...        1.644 sec (=   0.027 min)   0.1 %
SCF iterations                   ...       52.757 sec (=   0.879 min)   3.5 %
Property integrals               ...      894.005 sec (=  14.900 min)  59.5 %
SCF Response                     ...      294.310 sec (=   4.905 min)  19.6 %
Property calculations            ...      258.637 sec (=   4.311 min)  17.2 %
                             ****ORCA TERMINATED NORMALLY****
TOTAL RUN TIME: 0 days 0 hours 25 minutes 2 seconds 173 msec
