      -----------------------------------------------------------      
     |                   =====================                   |     
     |                           x T B                           |     
     |                   =====================                   |     
     |                         S. Grimme                         |     
     |          Mulliken Center for Theoretical Chemistry        |     
     |                    University of Bonn                     |     
      -----------------------------------------------------------      

   * xtb version 6.7.1 (edcfbbe) compiled by 'albert@albert-system' on 2024-07-22

   xtb is free software: you can redistribute it and/or modify it under
   the terms of the GNU Lesser General Public License as published by
   the Free Software Foundation, either version 3 of the License, or
   (at your option) any later version.
   
   xtb is distributed in the hope that it will be useful,
   but WITHOUT ANY WARRANTY; without even the implied warranty of
   MERCHANTABILITY or FITNESS FOR A PARTICULAR PURPOSE.  See the
   GNU Lesser General Public License for more details.
   
   Cite this work as:
   * C. Bannwarth, E. Caldeweyher, S. Ehlert, A. Hansen, P. Pracht,
     J. Seibert, S. Spicher, S. Grimme, WIREs Comput. Mol. Sci., 2020, 11,
     e01493. DOI: 10.1002/wcms.1493
   
   for GFN2-xTB:
   * C. Bannwarth, S. Ehlert and S. Grimme., J. Chem. Theory Comput., 2019,
     15, 1652-1671. DOI: 10.1021/acs.jctc.8b01176
   for GFN1-xTB:
   * S. Grimme, C. Bannwarth, P. Shushkov, J. Chem. Theory Comput., 2017,
     13, 1989-2009. DOI: 10.1021/acs.jctc.7b00118
   for GFN0-xTB:
   * P. Pracht, E. Caldeweyher, S. Ehlert, S. Grimme, ChemRxiv, 2019, preprint.
     DOI: 10.26434/chemrxiv.8326202.v1
   for GFN-FF:
   * S. Spicher and S. Grimme, Angew. Chem. Int. Ed., 2020, 59, 15665-15673.
     DOI: 10.1002/anie.202004239
   
   for ALPB and GBSA implicit solvation:
   * S. Ehlert, M. Stahn, S. Spicher, S. Grimme, J. Chem. Theory Comput.,
     2021, 17, 4250-4261. DOI: 10.1021/acs.jctc.1c00471
   
   for ddCOSMO and CPCM-X implicit solvation:
   * M. Stahn, S. Ehlert, S. Grimme, J. Phys. Chem. A,
     2023, XX, XXXX-XXXX. DOI: 10.1021/acs.jpca.3c04382
   
   for DFT-D4:
   * E. Caldeweyher, C. Bannwarth and S. Grimme, J. Chem. Phys., 2017,
     147, 034112. DOI: 10.1063/1.4993215
   * E. Caldeweyher, S. Ehlert, A. Hansen, H. Neugebauer, S. Spicher,
     C. Bannwarth and S. Grimme, J. Chem. Phys., 2019, 150, 154122.
     DOI: 10.1063/1.5090222
   * E. Caldeweyher, J.-M. Mewes, S. Ehlert and S. Grimme, Phys. Chem. Chem. Phys.
     2020, 22, 8499-8512. DOI: 10.1039/D0CP00502A
   
   for sTDA-xTB:
   * S. Grimme and C. Bannwarth, J. Chem. Phys., 2016, 145, 054103.
     DOI: 10.1063/1.4959605
   
   in the mass-spec context:
   * V. Asgeirsson, C. Bauer and S. Grimme, Chem. Sci., 2017, 8, 4879.
     DOI: 10.1039/c7sc00601b
   * J. Koopman and S. Grimme, ACS Omega 2019, 4, 12, 15120-15133.
     DOI: 10.1021/acsomega.9b02011
   
   for metadynamics refer to:
   * S. Grimme, J. Chem. Theory Comput., 2019, 155, 2847-2862
     DOI: 10.1021/acs.jctc.9b00143
   
   for SPH calculations refer to:
   * S. Spicher and S. Grimme, J. Chem. Theory Comput., 2021, 17, 1701-1714
     DOI: 10.1021/acs.jctc.0c01306
   
   for ONIOM refer to:
   * C. Plett, A. Katbashev, S. Ehlert, S. Grimme, M. Bursch,
     Phys. Chem. Chem. Phys., 2023, 25, 17860-17868. DOI: 10.1039/D3CP02178E
   
   for DIPRO refer to:
   * J. Kohn, N. Gildemeister, S. Grimme, D. Fazzi, A. Hansen,
     J. Chem. Phys., 2023, just accepted.
   
   for PTB refer to:
   * S. Grimme, M. Mueller, A. Hansen, J. Chem. Phys., 2023, 158, 124111.
     DOI: 10.1063/5.0137838
   
   with help from (in alphabetical order)
   P. Atkinson, C. Bannwarth, F. Bohle, G. Brandenburg, E. Caldeweyher
   M. Checinski, S. Dohm, S. Ehlert, S. Ehrlich, I. Gerasimov, C. Hölzer
   A. Katbashev, J. Kohn, J. Koopman, C. Lavigne, S. Lehtola, F. März, M. Müller,
   F. Musil, H. Neugebauer, J. Pisarek, C. Plett, P. Pracht, F. Pultar,
   J. Seibert, P. Shushkov, S. Spicher, M. Stahn, M. Steiner, T. Strunk,
   J. Stückrath, T. Rose, and J. Unsleber
   
 * started run on 2025/04/15 at 19:23:00.664     
   ID    Z sym.   atoms
    1    6 C      1-6, 8
    2   17 Cl     7, 10
    3    7 N      9
    4    1 H      11-13

           -------------------------------------------------
          |                Calculation Setup                |
           -------------------------------------------------

          program call               : /software/projects/pawsey0265/mwang1/xtb/bin/xtb xtb_opt.coord --opt normal --orca -I xtb_opt-xcontrol-inp
          hostname                   : nid002793
          coordinate file            : xtb_opt.coord
          omp threads                :                     6

           -------------------------------------------------
          |                   Orca driver                   |
           -------------------------------------------------
orca executable           : /software/projects/pawsey0265/mwang1/orca_avx2/orca
orca input file           : xtb_opt.inp
orca input line           : 
orca parallel             : true
orca number of threads    : 6
                         * ORCA takes the control...
  ------------------------------------------------------------------------

                                 *****************
                                 * O   R   C   A *
                                 *****************

                                            #,                                       
                                            ###                                      
                                            ####                                     
                                            #####                                    
                                            ######                                   
                                           ########,                                 
                                     ,,################,,,,,                         
                               ,,#################################,,                 
                          ,,##########################################,,             
                       ,#########################################, ''#####,          
                    ,#############################################,,   '####,        
                  ,##################################################,,,,####,       
                ,###########''''           ''''###############################       
              ,#####''   ,,,,##########,,,,          '''####'''          '####       
            ,##' ,,,,###########################,,,                        '##       
           ' ,,###''''                  '''############,,,                           
         ,,##''                                '''############,,,,        ,,,,,,###''
      ,#''                                            '''#######################'''  
     '                                                          ''''####''''         
             ,#######,   #######,   ,#######,      ##                                
            ,#'     '#,  ##    ##  ,#'     '#,    #''#        ,####,   ,####,        
            ##       ##  ##   ,#'  ##            #'  '#       #'       #'  '#        
            ##       ##  #######   ##           ,######,      #####,   #    #        
            '#,     ,#'  ##    ##  '#,     ,#' ,#      #,     #,   #   #,  ,#        
             '#######'   ##     ##  '#######'  #'      '#     '####' # '####'        



                #########################################################
                #                        -***-                          #
                #          Department of theory and spectroscopy        #
                #                                                       #
                #                      Frank Neese                      #
                #                                                       #
                #     Directorship, Architecture, Infrastructure        #
                #                    SHARK, DRIVERS                     #
                #        Core code/Algorithms in most modules           #
                #                                                       #
                #        Max Planck Institute fuer Kohlenforschung      #
                #                Kaiser Wilhelm Platz 1                 #
                #                 D-45470 Muelheim/Ruhr                 #
                #                      Germany                          #
                #                                                       #
                #                  All rights reserved                  #
                #                        -***-                          #
                #########################################################


                         Program Version 6.0.1  -  RELEASE   -


 With contributions from (in alphabetic order):
[Max-Planck-Institut fuer Kohlenforschung]                               
  Daniel Aravena         : Magnetic Suceptibility                        
  Michael Atanasov       : Ab Initio Ligand Field Theory (pilot matlab implementation)
  Alexander A. Auer      : GIAO ZORA, VPT2 properties, NMR spectrum      
  Ute Becker             : All parallelization in ORCA, NUMFREQ, NUMCALC 
  Giovanni Bistoni       : ED, misc. LED, open-shell LED, HFLD           
  Martin Brehm           : Molecular dynamics                            
  Dmytro Bykov           : pre 5.0 version of the SCF Hessian            
  Marcos Casanova-Páez   : Triplet and SCS-CIS(D). UHF-(DLPNO)-IP/EA/STEOM-CCSD. UHF-CVS-IP/STEOM-CCSD   
  Vijay G. Chilkuri      : MRCI spin determinant printing, contributions to CSF-ICE 
  Pauline Colinet        : FMM embedding                                 
  Dipayan Datta          : RHF DLPNO-CCSD density                        
  Achintya Kumar Dutta   : EOM-CC, STEOM-CC                              
  Nicolas Foglia         : Exact transition moments, OPA infrastructure, MCD improvements    
  Dmitry Ganyushin       : Spin-Orbit,Spin-Spin,Magnetic field MRCI      
  Miquel Garcia-Rates    : C-PCM and meta-GGA Hessian, CCSD/C-PCM, Gaussian charge scheme 
  Tiago L. C. Gouveia    : GS-ROHF, GS-ROCIS                             
  Yang Guo               : DLPNO-NEVPT2, F12-NEVPT2, CIM, IAO-localization        
  Andreas Hansen         : Spin unrestricted coupled pair/coupled cluster methods 
  Ingolf Harden          : AUTO-CI MPn and infrastructure                
  Benjamin Helmich-Paris : MC-RPA, TRAH-(SCF,CASSCF), AVAS, COSX integrals, SCF dyn. polar. 
  Lee Huntington         : MR-EOM, pCC                                   
  Robert Izsak           : Overlap fitted RIJCOSX, COSX-SCS-MP3, EOM     
  Riya Kayal             : Wick's Theorem for AUTO-CI, AUTO-CI UHF-CCSDT 
  Emily Kempfer          : AUTO-CI, RHF CISDT and CCSDT                  
  Christian Kollmar      : KDIIS, OOCD, Brueckner-CCSD(T), CCSD density, CASPT2, CASPT2-K, improved NEVPT2 
  Axel Koslowski         : Symmetry handling                             
  Simone Kossmann        : meta-GGA functionals, TD-DFT gradient, OOMP2, (MP2 Hessian; deprecated post 5.0) 
  Lucas Lang             : DCDCAS                                        
  Marvin Lechner         : AUTO-CI (C++ implementation), FIC-MRCC        
  Spencer Leger          : CASSCF response                               
  Dagmar Lenk            : GEPOL surface, SMD, ORCA-2-JSON               
  Dimitrios Liakos       : Extrapolation schemes; Compound Job, initial MDCI parallelization 
  Dimitrios Manganas     : Further ROCIS development; embedding schemes. LFT, Crystal Embedding 
  Dimitrios Pantazis     : SARC Basis sets                               
  Anastasios Papadopoulos: AUTO-CI, single reference methods and gradients 
  Taras Petrenko         : pre 6.0 DFT Hessian and TD-DFT gradient, (ASA, deprecated), ECA, 1-Electron XAS/XES, NRVS 
  Peter Pinski           : DLPNO-MP2, DLPNO-MP2 Gradient                 
  Christoph Reimann      : Effective Core Potentials                     
  Marius Retegan         : Local ZFS, SOC                                
  Christoph Riplinger    : Optimizer, TS searches, QM/MM, DLPNO-CCSD(T), (RO)-DLPNO pert. Triples 
  Michael Roemelt        : Original ROCIS implementation                 
  Masaaki Saitow         : Open-shell DLPNO-CCSD energy and density      
  Barbara Sandhoefer     : DKH picture change effects                    
  Kantharuban Sivalingam : CASSCF convergence/infrastructure, NEVPT2 and variants, FIC-MRCI 
  Bernardo de Souza      : ESD, SOC TD-DFT                               
  Georgi L. Stoychev     : AutoAux, RI-MP2 NMR, DLPNO-MP2 response, X2C  
  Van Anh Tran           : RI-MP2 g-tensors                              
  Willem Van den Heuvel  : Paramagnetic NMR                              
  Zikuan Wang            : NOTCH, Electric field optimization            
  Frank Wennmohs         : Technical directorship and infrastructure     
  Hang Xu                : AUTO-CI-Response properties                   
                                                                         
[FACCTs GmbH]                                                            
  Markus Bursch, Miquel Garcia-Rates, Christoph Riplinger, Bernardo de Souza, Georgi L. Stoychev 
                                                                 
  APM, Basis sets (HGBS, AHGBS, def-TZVP (Ac-Lr), def2-XVPD (La-Lu)), CI-OPT, improved COSX, DLPNO-Multilevel,           
  DOCKER, DRACO, updates on ESD, GOAT, IRC, LR-CPCM, MBIS, meta-GGA TD-DFT gradient, ML-optimized integration grids, 
  MM, NACMEs, nearIR, NEB, NEB-TS, NL-DFT gradient (VV10), 2- and 3-layer-ONIOM, interface openCOSMO-RS, QMMM,   
  Crystal-QMMM, SF, symmetry and pop. for TD-DFT, r2SCAN hybrids, SOLVATOR                                   
                                                                         
[Other institutions]                                                     
  V. Asgeirsson          : NEB                                           
  Christoph Bannwarth    : sTDA-DFT, sTD-DFT, PBEh-3c, B97-3c, D3        
  Sebastian Ehlert       : rSCAN, r2SCAN, r2SCAN-3c, D4, dhf basis sets  
  Marvin Friede          : D4 for Fr, Ra, Ac-Lr                          
  Lars Goerigk           : TD-DFT with DH, B97 family of functionals     
  Stefan Grimme          : VdW corrections, initial TS optimization, DFT functionals, gCP, sTDA/sTD-DF 
  Waldemar Hujo          : DFT-NL                                        
  H. Jonsson             : NEB                                           
  Holger Kruse           : gCP                                           
  Marcel Mueller         : wB97X-3c, vDZP basis set                      
  Hagen Neugebauer       : wr2SCAN                                       
  Tobias Risthaus        : range-separated hybrid DFT                    
  Lukas Wittmann         : regularized MP2, r2SCAN double-hybrids, wr2SCAN        
                                                                         
We gratefully acknowledge several colleagues who have allowed us to      
interface, adapt or use parts of their codes:                            
  Ed Valeev, F. Pavosevic, A. Kumar             : LibInt (2-el integral package), F12 methods 
  Garnet Chan, S. Sharma, J. Yang, R. Olivares  : DMRG                   
  Ulf Ekstrom                                   : XCFun DFT Library      
  Mihaly Kallay                                 : mrcc  (arbitrary order and MRCC methods)
  Frank Weinhold                                : gennbo (NPA and NBO analysis)           
  Simon Mueller                                 : openCOSMO-RS                            
  Christopher J. Cramer and Donald G. Truhlar   : smd solvation model                     
  S Lehtola, MJT Oliveira, MAL Marques          : LibXC Library                           
  Liviu Ungur et al                             : ANISO software                          


 Your calculation uses the libint2 library for the computation of 2-el integrals
 For citations please refer to: http://libint.valeyev.net

 Your ORCA version has been built with support for libXC version: 6.2.2
 For citations please refer to: https://libxc.gitlab.io

 This ORCA versions uses:
   CBLAS   interface :  Fast vector & matrix operations
   LAPACKE interface :  Fast linear algebra routines
   SCALAPACK package :  Parallel linear algebra routines
   Shared memory     :  Shared parallel matrices
   BLAS/LAPACK       :  OpenBLAS 0.3.27  USE64BITINT DYNAMIC_ARCH NO_AFFINITY Zen SINGLE_THREADED
        Core in use  :  Zen
   Copyright (c) 2011-2014, The OpenBLAS Project




***************************************
The coordinates will be read from file: xtb_opt.xyz
***************************************


Your calculation utilizes the geometrical counterpoise correction gCP
Please cite in your paper:
H.Kruse, S. Grimme J.Chem.Phys., 136, (2012), 154101 
   

Your calculation utilizes the atom-pairwise dispersion correction
based on EEQ partial charges (D4)


================================================================================

----- Orbital basis set information -----
Your calculation utilizes the basis: def2-mTZVPP
   Stefan Grimme, Andreas Hansen, Sebastian Ehlert, and Jan-Michael Mewes 
   J. Chem. Phys. 154, 064103 (2021). DOI: 10.1063/5.0040021

----- AuxJ basis set information -----
Your calculation utilizes the auxiliary basis: def2/J
   F. Weigend, Phys. Chem. Chem. Phys. 8, 1057 (2006).

================================================================================
                                        WARNINGS
                       Please study these warnings very carefully!
================================================================================



WARNING: SCAN, rSCAN, or r2SCAN functional requested.
  ===> : libXC variant has now been activated.



================================================================================
                                       INPUT FILE
================================================================================
NAME = xtb_opt.inp
|  1> ! r2scan-3c def2/J RI DEFGRID2 scfconv7 ENGRAD tightSCF miniprint
|  2> * xyzfile 0 1 xtb_opt.xyz
|  3> 
|  4>                          ****END OF INPUT****
================================================================================

                     *******************************
                     * Energy+Gradient Calculation *
                     *******************************

---------------------------------
CARTESIAN COORDINATES (ANGSTROEM)
---------------------------------
  C      0.000155   -2.511365    0.000357
  C      1.205384   -1.828630    0.000083
  C      1.206117   -0.443853   -0.000040
  C      0.000041    0.266902    0.000031
  C     -1.206000   -0.443958    0.000017
  C     -1.205107   -1.828726    0.000208
  Cl    -2.693445    0.424732   -0.000313
  C     -0.000113    1.681967    0.000386
  N     -0.000552    2.827076    0.000538
  Cl     2.693488    0.425075   -0.000281
  H      0.000159   -3.590214    0.000632
  H      2.142599   -2.361004    0.000098
  H     -2.142281   -2.361209    0.000289

----------------------------
CARTESIAN COORDINATES (A.U.)
----------------------------
  NO LB      ZA    FRAG     MASS         X           Y           Z
   0 C     6.0000    0    12.011    0.000292   -4.745792    0.000674
   1 C     6.0000    0    12.011    2.277846   -3.455609    0.000157
   2 C     6.0000    0    12.011    2.279230   -0.838760   -0.000075
   3 C     6.0000    0    12.011    0.000077    0.504373    0.000059
   4 C     6.0000    0    12.011   -2.279009   -0.838960    0.000032
   5 C     6.0000    0    12.011   -2.277321   -3.455792    0.000394
   6 Cl   17.0000    0    35.453   -5.089874    0.802628   -0.000592
   7 C     6.0000    0    12.011   -0.000214    3.178457    0.000729
   8 N     7.0000    0    14.007   -0.001043    5.342400    0.001017
   9 Cl   17.0000    0    35.453    5.089955    0.803275   -0.000532
  10 H     1.0000    0     1.008    0.000301   -6.784520    0.001195
  11 H     1.0000    0     1.008    4.048925   -4.461651    0.000184
  12 H     1.0000    0     1.008   -4.048325   -4.462038    0.000546

------------------------------------------------------------------------------
                   ___                                                        
                  /   \      - P O W E R E D   B Y -                         
                 /     \                                                     
                 |  |  |   _    _      __       _____    __    __             
                 |  |  |  | |  | |    /  \     |  _  \  |  |  /  |          
                  \  \/   | |  | |   /    \    | | | |  |  | /  /          
                 / \  \   | |__| |  /  /\  \   | |_| |  |  |/  /          
                |  |  |   |  __  | /  /__\  \  |    /   |      \           
                |  |  |   | |  | | |   __   |  |    \   |  |\   \          
                \     /   | |  | | |  |  |  |  | |\  \  |  | \   \       
                 \___/    |_|  |_| |__|  |__|  |_| \__\ |__|  \__/        
                                                                              
                      - O R C A' S   B I G   F R I E N D -                    
                                      &                                       
                       - I N T E G R A L  F E E D E R -                       
                                                                              
 v1 FN, 2020, v2 2021, v3 2022-2024                                           
------------------------------------------------------------------------------


----------------------
SHARK INTEGRAL PACKAGE
----------------------

Number of atoms                             ...     13
Number of basis functions                   ...    226
Number of shells                            ...    104
Maximum angular momentum                    ...      2
Integral batch strategy                     ... SHARK/LIBINT Hybrid
RI-J (if used) integral strategy            ... SPLIT-RIJ (Revised 2003 algorithm where possible)
Printlevel                                  ...      1
Contraction scheme used                     ... SEGMENTED contraction
Prescreening option                         ... SCHWARTZ
   Thresh                                   ... 3.000e-11
   Tcut                                     ... 1.000e-12
   Tpresel                                  ... 1.000e-12 
Coulomb Range Separation                    ... NOT USED
Exchange Range Separation                   ... NOT USED
Multipole approximations                    ... NOT USED
Finite Nucleus Model                        ... NOT USED
CABS basis                                  ... NOT available
Auxiliary Coulomb fitting basis             ... AVAILABLE
   # of basis functions in Aux-J            ...    527
   # of shells in Aux-J                     ...    169
   Maximum angular momentum in Aux-J        ...      4
Auxiliary J/K fitting basis                 ... NOT available
Auxiliary Correlation fitting basis         ... NOT available
Auxiliary 'external' fitting basis          ... NOT available

Checking pre-screening integrals            ... done (  0.0 sec) Dimension = 104
Check shell pair data                       ... done (  0.0 sec)
Shell pair information
Shell pair cut-off parameter TPreSel        ...   1.0e-12
Total number of shell pairs                 ...      5460
Shell pairs after pre-screening             ...      4812
Total number of primitive shell pairs       ...     22420
Primitive shell pairs kept                  ...     13400
          la=0 lb=0:   1308 shell pairs
          la=1 lb=0:   1757 shell pairs
          la=1 lb=1:    593 shell pairs
          la=2 lb=0:    640 shell pairs
          la=2 lb=1:    427 shell pairs
          la=2 lb=2:     87 shell pairs

Calculating one electron integrals          ... done (  0.0 sec)
Calculating RI/J V-Matrix + Cholesky decomp.... done (  0.0 sec)
Calculating Nuclear repulsion               ... done (  0.0 sec) ENN=    612.286495782770 Eh

Diagonalization of the overlap matrix:
Smallest eigenvalue                        ... 2.106e-05
Time for diagonalization                   ...    0.004 sec
Threshold for overlap eigenvalues          ... 1.000e-07
Number of eigenvalues below threshold      ... 0
Time for construction of square roots      ...    0.004 sec
Total time needed                          ...    0.010 sec

-------------------
DFT GRID GENERATION
-------------------

General Integration Accuracy     IntAcc      ... 4.388
Radial Grid Type                 RadialGrid  ... OptM3 with GC (2021)
Angular Grid (max. ang.)         AngularGrid ... 4 (Lebedev-302)
Angular grid pruning method      GridPruning ... 4 (adaptive)
Weight generation scheme         WeightScheme... mBecke (2022)
Basis function cutoff            BFCut       ... 1.0000e-11
Integration weight cutoff        WCut        ... 1.0000e-14
Partially contracted basis set               ... off
Rotationally invariant grid construction     ... off
Angular grids for H and He will be reduced by one unit

Total number of grid points                  ...    72405
Total number of batches                      ...     1138
Average number of points per batch           ...       63
Average number of grid points per atom       ...     5570
Initializing property integral containers    ... done (  0.0 sec)

SHARK setup successfully completed in   0.7 seconds

Maximum memory used throughout the entire STARTUP-calculation: 35.8 MB
Occupation numbers will be reassigned to an Aufbau configuration
             **** ENERGY FILE WAS UPDATED (xtb_opt.en.tmp) ****
Finished Guess after   0.1 sec
Maximum memory used throughout the entire GUESS-calculation: 16.8 MB
----------------------------------------D-I-I-S--------------------------------------------
Iteration    Energy (Eh)           Delta-E    RMSDP     MaxDP     DIISErr   Damp  Time(sec)
-------------------------------------------------------------------------------------------
               ***  Starting incremental Fock matrix formation  ***
                              *** Initializing SOSCF ***
---------------------------------------S-O-S-C-F--------------------------------------
Iteration    Energy (Eh)           Delta-E    RMSDP     MaxDP     MaxGrad    Time(sec)
--------------------------------------------------------------------------------------
    1    -1243.5591181875242910     0.00e+00  1.56e-06  5.29e-05  6.33e-06     1.8
               *** Restarting incremental Fock matrix formation ***
    2    -1243.5591181862987469     1.23e-09  2.44e-06  6.88e-05  2.29e-05     1.8
                  *** Gradient check signals convergence ***

               *****************************************************
               *                     SUCCESS                       *
               *           SCF CONVERGED AFTER   2 CYCLES          *
               *****************************************************

             **** ENERGY FILE WAS UPDATED (xtb_opt.en.tmp) ****

----------------
TOTAL SCF ENERGY
----------------

Total Energy       :      -1243.55911818629875 Eh          -33838.96395 eV

Components:
Nuclear Repulsion  :        612.28649578277009 Eh           16661.16259 eV
Electronic Energy  :      -1855.84561396906884 Eh          -50500.12653 eV
One Electron Energy:      -2922.42686821953112 Eh          -79523.27797 eV
Two Electron Energy:       1066.58125425046228 Eh           29023.15144 eV

Virial components:
Potential Energy   :      -2483.82606432635066 Eh          -67588.34334 eV
Kinetic Energy     :       1240.26694614005191 Eh           33749.37939 eV
Virial Ratio       :          2.00265440601839

DFT components:
N(Alpha)           :       43.000011555637 electrons
N(Beta)            :       43.000011555637 electrons
N(Total)           :       86.000023111273 electrons
E(X)               :      -99.254515756837 Eh       
E(C)               :       -3.032739963120 Eh       
E(XC)              :     -102.287255719958 Eh       

---------------
SCF CONVERGENCE
---------------

  Last Energy change         ...   -1.2255e-09  Tolerance :   1.0000e-07
  Last MAX-Density change    ...    6.8837e-05  Tolerance :   1.0000e-07
  Last RMS-Density change    ...    2.4411e-06  Tolerance :   5.0000e-09
  Last DIIS Error            ...    3.4230e-05  Tolerance :   1.0000e-07
  Last Orbital Gradient      ...    2.2887e-05  Tolerance :   1.0000e-04
  Last Orbital Rotation      ...    7.1665e-05  Tolerance :   1.0000e-04


----------------
ORBITAL ENERGIES
----------------

  NO   OCC          E(Eh)            E(eV) 
   0   2.0000    -101.247712     -2755.0903 
   1   2.0000    -101.247711     -2755.0903 
   2   2.0000     -14.166824      -385.4989 
   3   2.0000     -10.143110      -276.0081 
   4   2.0000     -10.143107      -276.0080 
   5   2.0000     -10.113660      -275.2067 
   6   2.0000     -10.085138      -274.4306 
   7   2.0000     -10.080532      -274.3052 
   8   2.0000     -10.080273      -274.2982 
   9   2.0000     -10.080247      -274.2975 
  10   2.0000      -9.403418      -255.8800 
  11   2.0000      -9.403417      -255.8800 
  12   2.0000      -7.149916      -194.5591 
  13   2.0000      -7.149915      -194.5591 
  14   2.0000      -7.139717      -194.2816 
  15   2.0000      -7.139715      -194.2815 
  16   2.0000      -7.138918      -194.2598 
  17   2.0000      -7.138917      -194.2598 
  18   2.0000      -0.918364       -24.9899 
  19   2.0000      -0.882441       -24.0124 
  20   2.0000      -0.872277       -23.7359 
  21   2.0000      -0.823144       -22.3989 
  22   2.0000      -0.772233       -21.0135 
  23   2.0000      -0.733305       -19.9542 
  24   2.0000      -0.648723       -17.6527 
  25   2.0000      -0.609101       -16.5745 
  26   2.0000      -0.556271       -15.1369 
  27   2.0000      -0.497485       -13.5372 
  28   2.0000      -0.494021       -13.4430 
  29   2.0000      -0.454686       -12.3726 
  30   2.0000      -0.443077       -12.0567 
  31   2.0000      -0.429693       -11.6925 
  32   2.0000      -0.389507       -10.5990 
  33   2.0000      -0.382828       -10.4173 
  34   2.0000      -0.367609       -10.0032 
  35   2.0000      -0.347618        -9.4592 
  36   2.0000      -0.338632        -9.2146 
  37   2.0000      -0.328267        -8.9326 
  38   2.0000      -0.323814        -8.8114 
  39   2.0000      -0.315222        -8.5776 
  40   2.0000      -0.303002        -8.2451 
  41   2.0000      -0.264919        -7.2088 
  42   2.0000      -0.256657        -6.9840 
  43   0.0000      -0.101411        -2.7595 
  44   0.0000      -0.076749        -2.0885 
  45   0.0000      -0.032559        -0.8860 
  46   0.0000      -0.008909        -0.2424 
  47   0.0000       0.013715         0.3732 
  48   0.0000       0.026718         0.7270 
  49   0.0000       0.072940         1.9848 
  50   0.0000       0.084637         2.3031 
  51   0.0000       0.105533         2.8717 
  52   0.0000       0.111675         3.0388 
  53   0.0000       0.122175         3.3246 
*Only the first 10 virtual orbitals were printed.
Total SCF time: 0 days 0 hours 0 min 4 sec 
Finished LeanSCF after   6.1 sec

Maximum memory used throughout the entire LEANSCF-calculation: 24.6 MB


-------------------------------------------------------------------------------
                          DFT DISPERSION CORRECTION                            
                                                                               
                                DFTD4 V3.4.0                                   
-------------------------------------------------------------------------------
-------------------------   ----------------
Dispersion correction           -0.005939734
-------------------------   ----------------

------------------   -----------------
gCP correction             0.005091314
------------------   -----------------

-------------------------   --------------------
FINAL SINGLE POINT ENERGY     -1243.559966605869
-------------------------   --------------------

------------------------------------------------------------------------------
                         ORCA SCF GRADIENT CALCULATION
------------------------------------------------------------------------------

Nuc. rep. gradient        (SHARK) ... done (  0.0 sec)
HCore & Overlap gradient  (SHARK) ... done (  0.2 sec)
Split-RIJ-J gradient      (SHARK) ... done (  1.7 sec)
XC gradient                       ... done (  4.5 sec)
Dispersion correction             ... done (  0.0 sec)

-------------------
DISPERSION GRADIENT
-------------------

   1   C   :    0.000000006   -0.000107948    0.000000015
   2   C   :    0.000059839   -0.000071795    0.000000001
   3   C   :    0.000070935   -0.000006770   -0.000000007
   4   C   :    0.000000000    0.000032431   -0.000000003
   5   C   :   -0.000070928   -0.000006774   -0.000000004
   6   C   :   -0.000059828   -0.000071804    0.000000006
   7   Cl  :   -0.000182105    0.000049360   -0.000000032
   8   C   :   -0.000000010    0.000106812    0.000000014
   9   N   :   -0.000000027    0.000133186    0.000000027
  10   Cl  :    0.000182112    0.000049380   -0.000000030
  11   H   :    0.000000002   -0.000047208    0.000000010
  12   H   :    0.000034184   -0.000029434   -0.000000000
  13   H   :   -0.000034181   -0.000029437    0.000000004

Difference to translation invariance:
           :   -0.0000000000   -0.0000000000    0.0000000000

Difference to rotation invariance:
           :    0.0000000000   -0.0000000000    0.0000000000

Norm of the Dispersion gradient    ...    0.0003833748
RMS gradient                       ...    0.0000613891
MAX gradient                       ...    0.0001821115
gCP correction                   ... done

------------------
CARTESIAN GRADIENT
------------------

   1   C   :   -0.000010914   -0.001548903    0.000007476
   2   C   :   -0.003489185    0.000326583   -0.000008908
   3   C   :    0.002835063    0.004149631    0.000001156
   4   C   :    0.000011084   -0.006046269   -0.000013647
   5   C   :   -0.002861789    0.004154471    0.000003108
   6   C   :    0.003512934    0.000337839   -0.000003399
   7   Cl  :    0.005746441   -0.001964960   -0.000005035
   8   C   :   -0.000002162    0.024277973    0.000028309
   9   N   :    0.000001599   -0.029242791   -0.000011304
  10   Cl  :   -0.005728582   -0.001952153   -0.000002060
  11   H   :   -0.000004339    0.003929297    0.000002887
  12   H   :   -0.003405099    0.001793012    0.000001110
  13   H   :    0.003394947    0.001786270    0.000000308

Difference to translation invariance:
           :    0.0000000000    0.0000000000   -0.0000000000

Difference to rotation invariance:
           :   -0.0000001946   -0.0000000118   -0.0000000021

Norm of the Cartesian gradient     ...    0.0409565238
RMS gradient                       ...    0.0065582925
MAX gradient                       ...    0.0292427910

-------
TIMINGS
-------

Total SCF gradient time     ....        6.354 sec

Densities                   ....       0.001 sec  (  0.0%)
One electron gradient       ....       0.196 sec  (  3.1%)
RI-J Coulomb gradient       ....       1.663 sec  ( 26.2%)
XC gradient                 ....       4.460 sec  ( 70.2%)

Maximum memory used throughout the entire SCFGRAD-calculation: 37.0 MB

------------------------------------------------------------------------------
                              ORCA PROPERTY CALCULATIONS
------------------------------------------------------------------------------

GBWName                                 ... xtb_opt.gbw
Number of atoms                         ...     13
Number of basis functions               ...    226
Max core memory                         ...   1024 MB

Electric properties:
Dipole moment                           ... YES
Quadrupole moment                       ...  NO
Static polarizability (Dipole/Dipole)   ...  NO
Static polarizability (Dipole/Quad.)    ...  NO
Static polarizability (Quad./Quad.)     ...  NO
Static polarizability (Velocity)        ...  NO

Atomic electric properties:
Dipole moment                           ...  NO
Quadrupole moment                       ...  NO
Static polarizability                   ...  NO

Choice of electric origin               ... Center of mass
Position of electric origin             ...    -0.000000     0.000000     0.000000

General magnetic properties:
Magnetizability                         ...  NO

EPR properties:
g-Tensor (aka g-matrix)                 ...  NO
Zero-Field splitting spin-orbit         ...  NO
Zero-field splitting spin-spin          ...  NO
Hyperfine couplings                     ...  NO (   0 nuclei)
Quadrupole couplings                    ...  NO (   0 nuclei)
Contact density                         ...  NO (   0 nuclei)

NMR properties:
Chemical shifts                         ...  NO (   0 nuclei)
Spin-rotation constants                 ...  NO (   0 nuclei)
Spin-spin couplings                     ...  NO (   0 nuclei,    0 pairs)

Choice of magnetic origin               ... GIAO
Position of magnetic origin             ...     0.000000     0.000000     0.000000

Properties with geometric perturbations:
SCF Hessian                             ...  NO
IR spectrum                             ...  NO
VCD spectrum                            ...  NO
X-ray spectroscopy properties:
SCF XES/XAS/RIXS spectra                ...  NO


-------------
DIPOLE MOMENT
-------------

Method             : SCF
Type of density    : Electron Density
Multiplicity       :   1
Irrep              :   0
Energy             : -1243.5591181862987469 Eh
Relativity type    : 
Basis              : AO
                                X                 Y                 Z
Electronic contribution:     -0.000160396       6.770166030      -0.001811732
Nuclear contribution   :      0.000387182      -8.923572411       0.001757261
                        -----------------------------------------
Total Dipole Moment    :      0.000226787      -2.153406382      -0.000054471
                        -----------------------------------------
Magnitude (a.u.)       :      2.153406394
Magnitude (Debye)      :      5.473524066



--------------------
Rotational spectrum 
--------------------
 
Rotational constants in cm-1:             0.048915             0.028404             0.017969 
Rotational constants in MHz :          1466.421210           851.529098           538.708861 

Dipole components along the rotational axes: 
x,y,z [a.u.] :     0.000227    -2.153406    -0.000054 
x,y,z [Debye]:     0.000576    -5.473524    -0.000138 

 

Dipole moment calculation done in   0.7 sec 

Maximum memory used throughout the entire PROP-calculation: 15.6 MB

--------------------------------
SUGGESTED CITATIONS FOR THIS RUN
--------------------------------

Below you find a list of papers that are relevant to this ORCA run
We neither can nor want to force you to cite these papers, but we appreciate if you do
You receive ORCA, which is the product of decades of hard work by many enthusiastic individuals, for free
The only thing we kindly ask in return is that you cite our papers,
We deeply appreciate it, if you show your appreciation for ORCA by not just citing the generic ORCA reference.

Please note that relegating all ORCA citations to the supporting information does *not* help us.
SI sections are not indexed - citations you put there will not count into any citation statistics
But we need these citations in order to attract the funding resources that allow us to do what we are doing

Therefore, if you are a happy ORCA user, please consider citing a few of the papers listed below in the main body of your paper

In addition to the list printed below, the program has created the file xtb_opt.bibtex that contains the list in bibtex format
You can import this file easily into all common literature databanks and citation aid programs


List of essential papers. We consider these as the minimum necessary citations

  1. Neese,F.
     Software update: the ORCA program system, version 5.0
     WIRES Comput. Molec. Sci., 2022 12(1)e1606
     doi.org/10.1002/wcms.1606
  2. Grimme,S.; Hansen,A.; Ehlert,S.; Mewes,J.
     r2SCAN-3c: A 'Swiss army knife' composite electronic-structure method
     J. Chem. Phys., 2021 154 064103
     doi.org/10.1063/5.0040021

List of papers to cite with high priority. The work reported in these papers was absolutely
necessary for this run to complete.
Our perspective: the developers of density functionals and basis sets usually get cited in chemistry papers
Good! But without the algorithms to do something with them, the functionals or basis sets would not do anything.
Hence, in our opinion, the algorithm design and method developments papers are equally worthy of getting cited

  1. Neese,F.
     An improvement of the resolution of the identity approximation for the formation of the Coulomb matrix
     J. Comp. Chem., 2003 24(14)1740-1747
     doi.org/10.1002/jcc.10318
  2. Neese,F.
     The SHARK Integral Generation and Digestion System
     J. Comp. Chem., 2022  1-16
     doi.org/10.1002/jcc.26942
  3. Lehtola,S.; Steigemann,C.; Oliveira,M.; Marques,M.
     Recent developments in Libxc - A comprehensive library of functionals for density functional theory
     Software X, 2018 7 
     doi.org/10.1016/j.softx.2017.11.002
  4. Caldeweyher,E.; Bannwarth,C.; Grimme,S.
     Extension of the D3 dispersion coefficient model
     J. Chem. Phys., 2017 147 034112
     doi.org/10.1063/1.4993215
  5. Caldeweyher,E.; Ehlert,S.; Hansen,A.; Neugebauer,H.; Spicher,S.; Bannwarth,C.; Grimme,S.
     A generally applicable atomic-charge dependent London dispersion correction
     J. Chem. Phys., 2019 150 154122
     doi.org/10.1063/1.5090222
  6. Caldeweyher,E.; Mewes,J.; Ehlert,S.; Grimme,S.
     Extension and evaluation of the D4 London-dispersion model for periodic systems
     Phys. Chem. Chem. Phys., 2020 22(16)8499-8512
     doi.org/10.1039/D0CP00502A
  7. Wittmann,L.; Gordiy,I.; Friede,M.; Helmich-Paris,B.; Grimme,S.; Hansen,A.; Bursch,M.
     Extension of the D3 and D4 London Dispersion Corrections to the full Actinides Series
     Phys. Chem. Chem. Phys., 2024 26(32)21379-21394
     doi.org/https://doi.org/10.1039/D4CP01514B 

List of suggested additional citations. These are papers that are important in the 'surrounding' of 
of this run, or papers that preceded the highly important papers. If you like your results we are grateful for a citation.

  1. Neese,F.
     The ORCA program system
     WIRES Comput. Molec. Sci., 2012 2(1)73-78
     doi.org/10.1002/wcms.81
  2. Neese,F.
     Software update: the ORCA program system, version 4.0
     WIRES Comput. Molec. Sci., 2018 8(1)1-6
     doi.org/10.1002/wcms.1327
  3. Neese,F.; Wennmohs,F.; Becker,U.; Riplinger,C.
     The ORCA quantum chemistry program package
     J. Chem. Phys., 2020 152 Art. No. L224108
     doi.org/10.1063/5.0004608

List of optional additional citations

  1. Neese,F.
     Approximate second-order SCF convergence for spin unrestricted wavefunctions
     Chem. Phys. Lett., 2000 325(1-3)93-98
     doi.org/10.1016/s0009-2614(00)00662-x

Timings for individual modules:

Sum of individual times          ...       14.842 sec (=   0.247 min)
Startup calculation              ...        0.779 sec (=   0.013 min)   5.2 %
SCF iterations                   ...        6.245 sec (=   0.104 min)  42.1 %
Property calculations            ...        0.771 sec (=   0.013 min)   5.2 %
SCF Gradient evaluation          ...        7.047 sec (=   0.117 min)  47.5 %
                             ****ORCA TERMINATED NORMALLY****
TOTAL RUN TIME: 0 days 0 hours 0 minutes 16 seconds 143 msec
  ------------------------------------------------------------------------
          * successful ORCA run, taking over control again...

         :::::::::::::::::::::::::::::::::::::::::::::::::::::
         ::                  ORCA SUMMARY                   ::
         :::::::::::::::::::::::::::::::::::::::::::::::::::::
         :: total energy           -1243.559966605869 Eh    ::
         :: gradient norm              0.040956523756 Eh/a0 ::
         :: HOMO-LUMO gap              0.000000000000 eV    ::
         :::::::::::::::::::::::::::::::::::::::::::::::::::::

      ----------------------------------------------------------- 
     |                       L-ANC optimizer                     |
      ----------------------------------------------------------- 
          low memory version by Sebastian Ehlert

          ...................................................
          :                      SETUP                      :
          :.................................................:
          :   energy convergence        0.5000000E-05 Eh    :
          :   grad. convergence         0.1000000E-02 Eh/a0 :
          :   optimization log               true           :
          :   writing optlog all                1     steps :
          :   Hessian reset                    20     steps :
          :   maximium step len.        1.0000000     a0    :
          :   LBFGS images                     20           :
          ...................................................
 * calculating model hessian...
Using Lindh-Hessian (1995)
 Shifting diagonal of input Hessian by   1.000000000000000E-002
 Lowest  eigenvalues of input Hessian
    0.000000    0.000000    0.000000    0.000000    0.000000    0.000000
    0.011411    0.020668    0.021487    0.025905    0.032032    0.041245
    0.057781    0.067265    0.073822    0.081730    0.105837    0.111908
 Highest eigenvalues
    1.570192    1.651479    1.870438    1.983163    2.037831    2.633102
 

........................................................................
.............................. CYCLE    1 ..............................
........................................................................
                         * ORCA takes the control...
  ------------------------------------------------------------------------

                                 *****************
                                 * O   R   C   A *
                                 *****************

                                            #,                                       
                                            ###                                      
                                            ####                                     
                                            #####                                    
                                            ######                                   
                                           ########,                                 
                                     ,,################,,,,,                         
                               ,,#################################,,                 
                          ,,##########################################,,             
                       ,#########################################, ''#####,          
                    ,#############################################,,   '####,        
                  ,##################################################,,,,####,       
                ,###########''''           ''''###############################       
              ,#####''   ,,,,##########,,,,          '''####'''          '####       
            ,##' ,,,,###########################,,,                        '##       
           ' ,,###''''                  '''############,,,                           
         ,,##''                                '''############,,,,        ,,,,,,###''
      ,#''                                            '''#######################'''  
     '                                                          ''''####''''         
             ,#######,   #######,   ,#######,      ##                                
            ,#'     '#,  ##    ##  ,#'     '#,    #''#        ,####,   ,####,        
            ##       ##  ##   ,#'  ##            #'  '#       #'       #'  '#        
            ##       ##  #######   ##           ,######,      #####,   #    #        
            '#,     ,#'  ##    ##  '#,     ,#' ,#      #,     #,   #   #,  ,#        
             '#######'   ##     ##  '#######'  #'      '#     '####' # '####'        



                #########################################################
                #                        -***-                          #
                #          Department of theory and spectroscopy        #
                #                                                       #
                #                      Frank Neese                      #
                #                                                       #
                #     Directorship, Architecture, Infrastructure        #
                #                    SHARK, DRIVERS                     #
                #        Core code/Algorithms in most modules           #
                #                                                       #
                #        Max Planck Institute fuer Kohlenforschung      #
                #                Kaiser Wilhelm Platz 1                 #
                #                 D-45470 Muelheim/Ruhr                 #
                #                      Germany                          #
                #                                                       #
                #                  All rights reserved                  #
                #                        -***-                          #
                #########################################################


                         Program Version 6.0.1  -  RELEASE   -


 With contributions from (in alphabetic order):
[Max-Planck-Institut fuer Kohlenforschung]                               
  Daniel Aravena         : Magnetic Suceptibility                        
  Michael Atanasov       : Ab Initio Ligand Field Theory (pilot matlab implementation)
  Alexander A. Auer      : GIAO ZORA, VPT2 properties, NMR spectrum      
  Ute Becker             : All parallelization in ORCA, NUMFREQ, NUMCALC 
  Giovanni Bistoni       : ED, misc. LED, open-shell LED, HFLD           
  Martin Brehm           : Molecular dynamics                            
  Dmytro Bykov           : pre 5.0 version of the SCF Hessian            
  Marcos Casanova-Páez   : Triplet and SCS-CIS(D). UHF-(DLPNO)-IP/EA/STEOM-CCSD. UHF-CVS-IP/STEOM-CCSD   
  Vijay G. Chilkuri      : MRCI spin determinant printing, contributions to CSF-ICE 
  Pauline Colinet        : FMM embedding                                 
  Dipayan Datta          : RHF DLPNO-CCSD density                        
  Achintya Kumar Dutta   : EOM-CC, STEOM-CC                              
  Nicolas Foglia         : Exact transition moments, OPA infrastructure, MCD improvements    
  Dmitry Ganyushin       : Spin-Orbit,Spin-Spin,Magnetic field MRCI      
  Miquel Garcia-Rates    : C-PCM and meta-GGA Hessian, CCSD/C-PCM, Gaussian charge scheme 
  Tiago L. C. Gouveia    : GS-ROHF, GS-ROCIS                             
  Yang Guo               : DLPNO-NEVPT2, F12-NEVPT2, CIM, IAO-localization        
  Andreas Hansen         : Spin unrestricted coupled pair/coupled cluster methods 
  Ingolf Harden          : AUTO-CI MPn and infrastructure                
  Benjamin Helmich-Paris : MC-RPA, TRAH-(SCF,CASSCF), AVAS, COSX integrals, SCF dyn. polar. 
  Lee Huntington         : MR-EOM, pCC                                   
  Robert Izsak           : Overlap fitted RIJCOSX, COSX-SCS-MP3, EOM     
  Riya Kayal             : Wick's Theorem for AUTO-CI, AUTO-CI UHF-CCSDT 
  Emily Kempfer          : AUTO-CI, RHF CISDT and CCSDT                  
  Christian Kollmar      : KDIIS, OOCD, Brueckner-CCSD(T), CCSD density, CASPT2, CASPT2-K, improved NEVPT2 
  Axel Koslowski         : Symmetry handling                             
  Simone Kossmann        : meta-GGA functionals, TD-DFT gradient, OOMP2, (MP2 Hessian; deprecated post 5.0) 
  Lucas Lang             : DCDCAS                                        
  Marvin Lechner         : AUTO-CI (C++ implementation), FIC-MRCC        
  Spencer Leger          : CASSCF response                               
  Dagmar Lenk            : GEPOL surface, SMD, ORCA-2-JSON               
  Dimitrios Liakos       : Extrapolation schemes; Compound Job, initial MDCI parallelization 
  Dimitrios Manganas     : Further ROCIS development; embedding schemes. LFT, Crystal Embedding 
  Dimitrios Pantazis     : SARC Basis sets                               
  Anastasios Papadopoulos: AUTO-CI, single reference methods and gradients 
  Taras Petrenko         : pre 6.0 DFT Hessian and TD-DFT gradient, (ASA, deprecated), ECA, 1-Electron XAS/XES, NRVS 
  Peter Pinski           : DLPNO-MP2, DLPNO-MP2 Gradient                 
  Christoph Reimann      : Effective Core Potentials                     
  Marius Retegan         : Local ZFS, SOC                                
  Christoph Riplinger    : Optimizer, TS searches, QM/MM, DLPNO-CCSD(T), (RO)-DLPNO pert. Triples 
  Michael Roemelt        : Original ROCIS implementation                 
  Masaaki Saitow         : Open-shell DLPNO-CCSD energy and density      
  Barbara Sandhoefer     : DKH picture change effects                    
  Kantharuban Sivalingam : CASSCF convergence/infrastructure, NEVPT2 and variants, FIC-MRCI 
  Bernardo de Souza      : ESD, SOC TD-DFT                               
  Georgi L. Stoychev     : AutoAux, RI-MP2 NMR, DLPNO-MP2 response, X2C  
  Van Anh Tran           : RI-MP2 g-tensors                              
  Willem Van den Heuvel  : Paramagnetic NMR                              
  Zikuan Wang            : NOTCH, Electric field optimization            
  Frank Wennmohs         : Technical directorship and infrastructure     
  Hang Xu                : AUTO-CI-Response properties                   
                                                                         
[FACCTs GmbH]                                                            
  Markus Bursch, Miquel Garcia-Rates, Christoph Riplinger, Bernardo de Souza, Georgi L. Stoychev 
                                                                 
  APM, Basis sets (HGBS, AHGBS, def-TZVP (Ac-Lr), def2-XVPD (La-Lu)), CI-OPT, improved COSX, DLPNO-Multilevel,           
  DOCKER, DRACO, updates on ESD, GOAT, IRC, LR-CPCM, MBIS, meta-GGA TD-DFT gradient, ML-optimized integration grids, 
  MM, NACMEs, nearIR, NEB, NEB-TS, NL-DFT gradient (VV10), 2- and 3-layer-ONIOM, interface openCOSMO-RS, QMMM,   
  Crystal-QMMM, SF, symmetry and pop. for TD-DFT, r2SCAN hybrids, SOLVATOR                                   
                                                                         
[Other institutions]                                                     
  V. Asgeirsson          : NEB                                           
  Christoph Bannwarth    : sTDA-DFT, sTD-DFT, PBEh-3c, B97-3c, D3        
  Sebastian Ehlert       : rSCAN, r2SCAN, r2SCAN-3c, D4, dhf basis sets  
  Marvin Friede          : D4 for Fr, Ra, Ac-Lr                          
  Lars Goerigk           : TD-DFT with DH, B97 family of functionals     
  Stefan Grimme          : VdW corrections, initial TS optimization, DFT functionals, gCP, sTDA/sTD-DF 
  Waldemar Hujo          : DFT-NL                                        
  H. Jonsson             : NEB                                           
  Holger Kruse           : gCP                                           
  Marcel Mueller         : wB97X-3c, vDZP basis set                      
  Hagen Neugebauer       : wr2SCAN                                       
  Tobias Risthaus        : range-separated hybrid DFT                    
  Lukas Wittmann         : regularized MP2, r2SCAN double-hybrids, wr2SCAN        
                                                                         
We gratefully acknowledge several colleagues who have allowed us to      
interface, adapt or use parts of their codes:                            
  Ed Valeev, F. Pavosevic, A. Kumar             : LibInt (2-el integral package), F12 methods 
  Garnet Chan, S. Sharma, J. Yang, R. Olivares  : DMRG                   
  Ulf Ekstrom                                   : XCFun DFT Library      
  Mihaly Kallay                                 : mrcc  (arbitrary order and MRCC methods)
  Frank Weinhold                                : gennbo (NPA and NBO analysis)           
  Simon Mueller                                 : openCOSMO-RS                            
  Christopher J. Cramer and Donald G. Truhlar   : smd solvation model                     
  S Lehtola, MJT Oliveira, MAL Marques          : LibXC Library                           
  Liviu Ungur et al                             : ANISO software                          


 Your calculation uses the libint2 library for the computation of 2-el integrals
 For citations please refer to: http://libint.valeyev.net

 Your ORCA version has been built with support for libXC version: 6.2.2
 For citations please refer to: https://libxc.gitlab.io

 This ORCA versions uses:
   CBLAS   interface :  Fast vector & matrix operations
   LAPACKE interface :  Fast linear algebra routines
   SCALAPACK package :  Parallel linear algebra routines
   Shared memory     :  Shared parallel matrices
   BLAS/LAPACK       :  OpenBLAS 0.3.27  USE64BITINT DYNAMIC_ARCH NO_AFFINITY Zen SINGLE_THREADED
        Core in use  :  Zen
   Copyright (c) 2011-2014, The OpenBLAS Project




***************************************
The coordinates will be read from file: xtb_opt.xyz
***************************************


Your calculation utilizes the geometrical counterpoise correction gCP
Please cite in your paper:
H.Kruse, S. Grimme J.Chem.Phys., 136, (2012), 154101 
   

Your calculation utilizes the atom-pairwise dispersion correction
based on EEQ partial charges (D4)


================================================================================

----- Orbital basis set information -----
Your calculation utilizes the basis: def2-mTZVPP
   Stefan Grimme, Andreas Hansen, Sebastian Ehlert, and Jan-Michael Mewes 
   J. Chem. Phys. 154, 064103 (2021). DOI: 10.1063/5.0040021

----- AuxJ basis set information -----
Your calculation utilizes the auxiliary basis: def2/J
   F. Weigend, Phys. Chem. Chem. Phys. 8, 1057 (2006).

================================================================================
                                        WARNINGS
                       Please study these warnings very carefully!
================================================================================

WARNING: Old DensityContainer found on disk!
         Will remove this file - 
         If you want to keep old densities, please start your calculation with a different basename. 



WARNING: SCAN, rSCAN, or r2SCAN functional requested.
  ===> : libXC variant has now been activated.



================================================================================
                                       INPUT FILE
================================================================================
NAME = xtb_opt.inp
|  1> ! r2scan-3c def2/J RI DEFGRID2 scfconv7 ENGRAD tightSCF miniprint
|  2> * xyzfile 0 1 xtb_opt.xyz
|  3> 
|  4>                          ****END OF INPUT****
================================================================================

                     *******************************
                     * Energy+Gradient Calculation *
                     *******************************

---------------------------------
CARTESIAN COORDINATES (ANGSTROEM)
---------------------------------
  C      0.000158   -2.514109    0.000326
  C      1.209844   -1.831789    0.000150
  C      1.207928   -0.444591    0.000000
  C      0.000036    0.274255    0.000026
  C     -1.207818   -0.444687    0.000034
  C     -1.209577   -1.831887    0.000226
  Cl    -2.706195    0.416770   -0.000194
  C     -0.000039    1.692923    0.000080
  N     -0.000619    2.851997    0.000633
  Cl     2.706225    0.417074   -0.000222
  H      0.000185   -3.597393    0.000533
  H      2.151021   -2.365784    0.000129
  H     -2.150702   -2.365982    0.000286

----------------------------
CARTESIAN COORDINATES (A.U.)
----------------------------
  NO LB      ZA    FRAG     MASS         X           Y           Z
   0 C     6.0000    0    12.011    0.000299   -4.750978    0.000615
   1 C     6.0000    0    12.011    2.286274   -3.461579    0.000283
   2 C     6.0000    0    12.011    2.282653   -0.840155    0.000001
   3 C     6.0000    0    12.011    0.000068    0.518266    0.000048
   4 C     6.0000    0    12.011   -2.282446   -0.840337    0.000065
   5 C     6.0000    0    12.011   -2.285769   -3.461765    0.000427
   6 Cl   17.0000    0    35.453   -5.113968    0.787580   -0.000368
   7 C     6.0000    0    12.011   -0.000074    3.199160    0.000150
   8 N     7.0000    0    14.007   -0.001170    5.389493    0.001196
   9 Cl   17.0000    0    35.453    5.114025    0.788156   -0.000420
  10 H     1.0000    0     1.008    0.000349   -6.798088    0.001008
  11 H     1.0000    0     1.008    4.064841   -4.470684    0.000243
  12 H     1.0000    0     1.008   -4.064239   -4.471058    0.000541

------------------------------------------------------------------------------
                   ___                                                        
                  /   \      - P O W E R E D   B Y -                         
                 /     \                                                     
                 |  |  |   _    _      __       _____    __    __             
                 |  |  |  | |  | |    /  \     |  _  \  |  |  /  |          
                  \  \/   | |  | |   /    \    | | | |  |  | /  /          
                 / \  \   | |__| |  /  /\  \   | |_| |  |  |/  /          
                |  |  |   |  __  | /  /__\  \  |    /   |      \           
                |  |  |   | |  | | |   __   |  |    \   |  |\   \          
                \     /   | |  | | |  |  |  |  | |\  \  |  | \   \       
                 \___/    |_|  |_| |__|  |__|  |_| \__\ |__|  \__/        
                                                                              
                      - O R C A' S   B I G   F R I E N D -                    
                                      &                                       
                       - I N T E G R A L  F E E D E R -                       
                                                                              
 v1 FN, 2020, v2 2021, v3 2022-2024                                           
------------------------------------------------------------------------------


----------------------
SHARK INTEGRAL PACKAGE
----------------------

Number of atoms                             ...     13
Number of basis functions                   ...    226
Number of shells                            ...    104
Maximum angular momentum                    ...      2
Integral batch strategy                     ... SHARK/LIBINT Hybrid
RI-J (if used) integral strategy            ... SPLIT-RIJ (Revised 2003 algorithm where possible)
Printlevel                                  ...      1
Contraction scheme used                     ... SEGMENTED contraction
Prescreening option                         ... SCHWARTZ
   Thresh                                   ... 3.000e-11
   Tcut                                     ... 1.000e-12
   Tpresel                                  ... 1.000e-12 
Coulomb Range Separation                    ... NOT USED
Exchange Range Separation                   ... NOT USED
Multipole approximations                    ... NOT USED
Finite Nucleus Model                        ... NOT USED
CABS basis                                  ... NOT available
Auxiliary Coulomb fitting basis             ... AVAILABLE
   # of basis functions in Aux-J            ...    527
   # of shells in Aux-J                     ...    169
   Maximum angular momentum in Aux-J        ...      4
Auxiliary J/K fitting basis                 ... NOT available
Auxiliary Correlation fitting basis         ... NOT available
Auxiliary 'external' fitting basis          ... NOT available

Checking pre-screening integrals            ... done (  0.0 sec) Dimension = 104
Check shell pair data                       ... done (  0.0 sec)
Shell pair information
Shell pair cut-off parameter TPreSel        ...   1.0e-12
Total number of shell pairs                 ...      5460
Shell pairs after pre-screening             ...      4808
Total number of primitive shell pairs       ...     22420
Primitive shell pairs kept                  ...     13390
          la=0 lb=0:   1308 shell pairs
          la=1 lb=0:   1757 shell pairs
          la=1 lb=1:    593 shell pairs
          la=2 lb=0:    636 shell pairs
          la=2 lb=1:    427 shell pairs
          la=2 lb=2:     87 shell pairs

Calculating one electron integrals          ... done (  0.0 sec)
Calculating RI/J V-Matrix + Cholesky decomp.... done (  0.0 sec)
Calculating Nuclear repulsion               ... done (  0.0 sec) ENN=    609.876631181151 Eh

Diagonalization of the overlap matrix:
Smallest eigenvalue                        ... 2.168e-05
Time for diagonalization                   ...    0.004 sec
Threshold for overlap eigenvalues          ... 1.000e-07
Number of eigenvalues below threshold      ... 0
Time for construction of square roots      ...    0.005 sec
Total time needed                          ...    0.010 sec

-------------------
DFT GRID GENERATION
-------------------

General Integration Accuracy     IntAcc      ... 4.388
Radial Grid Type                 RadialGrid  ... OptM3 with GC (2021)
Angular Grid (max. ang.)         AngularGrid ... 4 (Lebedev-302)
Angular grid pruning method      GridPruning ... 4 (adaptive)
Weight generation scheme         WeightScheme... mBecke (2022)
Basis function cutoff            BFCut       ... 1.0000e-11
Integration weight cutoff        WCut        ... 1.0000e-14
Partially contracted basis set               ... off
Rotationally invariant grid construction     ... off
Angular grids for H and He will be reduced by one unit

Total number of grid points                  ...    72422
Total number of batches                      ...     1138
Average number of points per batch           ...       63
Average number of grid points per atom       ...     5571
Initializing property integral containers    ... done (  0.0 sec)

SHARK setup successfully completed in   0.7 seconds

Maximum memory used throughout the entire STARTUP-calculation: 35.7 MB
Occupation numbers will be reassigned to an Aufbau configuration
             **** ENERGY FILE WAS UPDATED (xtb_opt.en.tmp) ****
Finished Guess after   0.1 sec
Maximum memory used throughout the entire GUESS-calculation: 16.8 MB
----------------------------------------D-I-I-S--------------------------------------------
Iteration    Energy (Eh)           Delta-E    RMSDP     MaxDP     DIISErr   Damp  Time(sec)
-------------------------------------------------------------------------------------------
               ***  Starting incremental Fock matrix formation  ***
    1    -1243.5596298409852807     0.00e+00  9.47e-05  2.40e-03  7.13e-03  0.700   1.8
    2    -1243.5597032371388195    -7.34e-05  8.00e-05  2.03e-03  4.34e-03  0.700   1.4
                               ***Turning on AO-DIIS***
                              *** Initializing SOSCF ***
---------------------------------------S-O-S-C-F--------------------------------------
Iteration    Energy (Eh)           Delta-E    RMSDP     MaxDP     MaxGrad    Time(sec)
--------------------------------------------------------------------------------------
    3    -1243.5597500312312604    -4.68e-05  1.90e-04  4.22e-03  2.51e-03     1.4
               *** Restarting incremental Fock matrix formation ***
    4    -1243.5598504969611895    -1.00e-04  5.16e-05  1.29e-03  4.39e-04     1.8
    5    -1243.5598369815704700     1.35e-05  2.86e-05  9.08e-04  1.48e-03     1.4
    6    -1243.5598524201893724    -1.54e-05  2.76e-05  6.93e-04  1.43e-04     1.4
    7    -1243.5598513334225572     1.09e-06  1.75e-05  4.10e-04  3.11e-04     1.4
    8    -1243.5598527062268204    -1.37e-06  4.22e-06  1.12e-04  2.48e-05     1.6
                  *** Gradient check signals convergence ***

               *****************************************************
               *                     SUCCESS                       *
               *           SCF CONVERGED AFTER   8 CYCLES          *
               *****************************************************

             **** ENERGY FILE WAS UPDATED (xtb_opt.en.tmp) ****

----------------
TOTAL SCF ENERGY
----------------

Total Energy       :      -1243.55985270622682 Eh          -33838.98393 eV

Components:
Nuclear Repulsion  :        609.87663118115097 Eh           16595.58684 eV
Electronic Energy  :      -1853.43648388737779 Eh          -50434.57077 eV
One Electron Energy:      -2917.63166982649045 Eh          -79392.79399 eV
Two Electron Energy:       1064.19518593911266 Eh           28958.22322 eV

Virial components:
Potential Energy   :      -2483.64991827660378 Eh          -67583.55016 eV
Kinetic Energy     :       1240.09006557037719 Eh           33744.56622 eV
Virial Ratio       :          2.00279801220265

DFT components:
N(Alpha)           :       43.000011439400 electrons
N(Beta)            :       43.000011439400 electrons
N(Total)           :       86.000022878800 electrons
E(X)               :      -99.214729811032 Eh       
E(C)               :       -3.030786028936 Eh       
E(XC)              :     -102.245515839968 Eh       

---------------
SCF CONVERGENCE
---------------

  Last Energy change         ...    1.3728e-06  Tolerance :   1.0000e-07
  Last MAX-Density change    ...    1.1206e-04  Tolerance :   1.0000e-07
  Last RMS-Density change    ...    4.2164e-06  Tolerance :   5.0000e-09
  Last DIIS Error            ...    2.5114e-03  Tolerance :   1.0000e-07
  Last Orbital Gradient      ...    2.4819e-05  Tolerance :   1.0000e-04
  Last Orbital Rotation      ...    1.2321e-04  Tolerance :   1.0000e-04


----------------
ORBITAL ENERGIES
----------------

  NO   OCC          E(Eh)            E(eV) 
   0   2.0000    -101.247836     -2755.0937 
   1   2.0000    -101.247834     -2755.0936 
   2   2.0000     -14.171149      -385.6166 
   3   2.0000     -10.144922      -276.0574 
   4   2.0000     -10.144919      -276.0573 
   5   2.0000     -10.116403      -275.2813 
   6   2.0000     -10.086925      -274.4792 
   7   2.0000     -10.085012      -274.4271 
   8   2.0000     -10.082073      -274.3472 
   9   2.0000     -10.082048      -274.3465 
  10   2.0000      -9.403391      -255.8793 
  11   2.0000      -9.403389      -255.8792 
  12   2.0000      -7.149913      -194.5590 
  13   2.0000      -7.149912      -194.5590 
  14   2.0000      -7.139693      -194.2809 
  15   2.0000      -7.139692      -194.2809 
  16   2.0000      -7.138901      -194.2594 
  17   2.0000      -7.138900      -194.2593 
  18   2.0000      -0.916046       -24.9269 
  19   2.0000      -0.878441       -23.9036 
  20   2.0000      -0.870711       -23.6933 
  21   2.0000      -0.821859       -22.3639 
  22   2.0000      -0.771523       -20.9942 
  23   2.0000      -0.732960       -19.9449 
  24   2.0000      -0.648257       -17.6400 
  25   2.0000      -0.608169       -16.5491 
  26   2.0000      -0.556343       -15.1389 
  27   2.0000      -0.496499       -13.5104 
  28   2.0000      -0.493707       -13.4344 
  29   2.0000      -0.454610       -12.3706 
  30   2.0000      -0.442449       -12.0396 
  31   2.0000      -0.428196       -11.6518 
  32   2.0000      -0.389344       -10.5946 
  33   2.0000      -0.382740       -10.4149 
  34   2.0000      -0.366834        -9.9821 
  35   2.0000      -0.345682        -9.4065 
  36   2.0000      -0.340215        -9.2577 
  37   2.0000      -0.326166        -8.8754 
  38   2.0000      -0.323321        -8.7980 
  39   2.0000      -0.315042        -8.5727 
  40   2.0000      -0.302875        -8.2417 
  41   2.0000      -0.264533        -7.1983 
  42   2.0000      -0.256951        -6.9920 
  43   0.0000      -0.103400        -2.8136 
  44   0.0000      -0.077654        -2.1131 
  45   0.0000      -0.034878        -0.9491 
  46   0.0000      -0.014272        -0.3884 
  47   0.0000       0.011413         0.3106 
  48   0.0000       0.023061         0.6275 
  49   0.0000       0.072361         1.9691 
  50   0.0000       0.083584         2.2744 
  51   0.0000       0.105181         2.8621 
  52   0.0000       0.107965         2.9379 
  53   0.0000       0.121118         3.2958 
*Only the first 10 virtual orbitals were printed.
Total SCF time: 0 days 0 hours 0 min 12 sec 
Finished LeanSCF after  15.7 sec

Maximum memory used throughout the entire LEANSCF-calculation: 24.6 MB


-------------------------------------------------------------------------------
                          DFT DISPERSION CORRECTION                            
                                                                               
                                DFTD4 V3.4.0                                   
-------------------------------------------------------------------------------
-------------------------   ----------------
Dispersion correction           -0.005918252
-------------------------   ----------------

------------------   -----------------
gCP correction             0.005057397
------------------   -----------------

-------------------------   --------------------
FINAL SINGLE POINT ENERGY     -1243.560713561003
-------------------------   --------------------

------------------------------------------------------------------------------
                         ORCA SCF GRADIENT CALCULATION
------------------------------------------------------------------------------

Nuc. rep. gradient        (SHARK) ... done (  0.0 sec)
HCore & Overlap gradient  (SHARK) ... done (  0.2 sec)
Split-RIJ-J gradient      (SHARK) ... done (  1.6 sec)
XC gradient                       ... done (  5.1 sec)
Dispersion correction             ... done (  0.0 sec)

-------------------
DISPERSION GRADIENT
-------------------

   1   C   :    0.000000006   -0.000107660    0.000000014
   2   C   :    0.000060219   -0.000072042    0.000000003
   3   C   :    0.000071209   -0.000007033   -0.000000006
   4   C   :    0.000000000    0.000033500   -0.000000004
   5   C   :   -0.000071202   -0.000007038   -0.000000004
   6   C   :   -0.000060209   -0.000072051    0.000000007
   7   Cl  :   -0.000183242    0.000048330   -0.000000024
   8   C   :   -0.000000005    0.000107600    0.000000001
   9   N   :   -0.000000029    0.000133627    0.000000029
  10   Cl  :    0.000183248    0.000048349   -0.000000026
  11   H   :    0.000000002   -0.000047096    0.000000008
  12   H   :    0.000034127   -0.000029241    0.000000001
  13   H   :   -0.000034124   -0.000029245    0.000000004

Difference to translation invariance:
           :    0.0000000000    0.0000000000   -0.0000000000

Difference to rotation invariance:
           :    0.0000000000    0.0000000000    0.0000000000

Norm of the Dispersion gradient    ...    0.0003848469
RMS gradient                       ...    0.0000616248
MAX gradient                       ...    0.0001832477
gCP correction                   ... done

------------------
CARTESIAN GRADIENT
------------------

   1   C   :   -0.000002468   -0.000452736    0.000001200
   2   C   :   -0.001221624    0.000095522   -0.000001688
   3   C   :    0.002891396    0.002683987   -0.000000005
   4   C   :   -0.000005726   -0.003021073    0.000015605
   5   C   :   -0.002907223    0.002685767   -0.000001183
   6   C   :    0.001227196    0.000097900   -0.000000712
   7   Cl  :    0.002875756   -0.001393117   -0.000002007
   8   C   :    0.000029953   -0.004612962   -0.000028478
   9   N   :   -0.000017120    0.003901517    0.000017728
  10   Cl  :   -0.002866830   -0.001386449   -0.000001009
  11   H   :   -0.000001788    0.000899894    0.000002647
  12   H   :   -0.000625142    0.000251923   -0.000001696
  13   H   :    0.000623619    0.000249829   -0.000000403

Difference to translation invariance:
           :   -0.0000000000    0.0000000000   -0.0000000000

Difference to rotation invariance:
           :   -0.0000008452    0.0000000182   -0.0000011940

Norm of the Cartesian gradient     ...    0.0101068865
RMS gradient                       ...    0.0016183971
MAX gradient                       ...    0.0046129620

-------
TIMINGS
-------

Total SCF gradient time     ....        7.110 sec

Densities                   ....       0.001 sec  (  0.0%)
One electron gradient       ....       0.196 sec  (  2.8%)
RI-J Coulomb gradient       ....       1.633 sec  ( 23.0%)
XC gradient                 ....       5.089 sec  ( 71.6%)

Maximum memory used throughout the entire SCFGRAD-calculation: 37.0 MB

------------------------------------------------------------------------------
                              ORCA PROPERTY CALCULATIONS
------------------------------------------------------------------------------

GBWName                                 ... xtb_opt.gbw
Number of atoms                         ...     13
Number of basis functions               ...    226
Max core memory                         ...   1024 MB

Electric properties:
Dipole moment                           ... YES
Quadrupole moment                       ...  NO
Static polarizability (Dipole/Dipole)   ...  NO
Static polarizability (Dipole/Quad.)    ...  NO
Static polarizability (Quad./Quad.)     ...  NO
Static polarizability (Velocity)        ...  NO

Atomic electric properties:
Dipole moment                           ...  NO
Quadrupole moment                       ...  NO
Static polarizability                   ...  NO

Choice of electric origin               ... Center of mass
Position of electric origin             ...    -0.000008    -0.001542     0.000057

General magnetic properties:
Magnetizability                         ...  NO

EPR properties:
g-Tensor (aka g-matrix)                 ...  NO
Zero-Field splitting spin-orbit         ...  NO
Zero-field splitting spin-spin          ...  NO
Hyperfine couplings                     ...  NO (   0 nuclei)
Quadrupole couplings                    ...  NO (   0 nuclei)
Contact density                         ...  NO (   0 nuclei)

NMR properties:
Chemical shifts                         ...  NO (   0 nuclei)
Spin-rotation constants                 ...  NO (   0 nuclei)
Spin-spin couplings                     ...  NO (   0 nuclei,    0 pairs)

Choice of magnetic origin               ... GIAO
Position of magnetic origin             ...     0.000000     0.000000     0.000000

Properties with geometric perturbations:
SCF Hessian                             ...  NO
IR spectrum                             ...  NO
VCD spectrum                            ...  NO
X-ray spectroscopy properties:
SCF XES/XAS/RIXS spectra                ...  NO


-------------
DIPOLE MOMENT
-------------

Method             : SCF
Type of density    : Electron Density
Multiplicity       :   1
Irrep              :   0
Energy             : -1243.5598527062268204 Eh
Relativity type    : 
Basis              : AO
                                X                 Y                 Z
Electronic contribution:     -0.000122068       6.747446528      -0.001645070
[...]
Electronic Energy  :      -1852.52200615912534 Eh          -50409.68657 eV
One Electron Energy:      -2915.81067888350344 Eh          -79343.24230 eV
Two Electron Energy:       1063.28867272437810 Eh           28933.55574 eV

Virial components:
Potential Energy   :      -2483.61306813016563 Eh          -67582.54741 eV
Kinetic Energy     :       1240.05314725801804 Eh           33743.56163 eV
Virial Ratio       :          2.00282792203051

DFT components:
N(Alpha)           :       43.000011603472 electrons
N(Beta)            :       43.000011603472 electrons
N(Total)           :       86.000023206945 electrons
E(X)               :      -99.206490029161 Eh       
E(C)               :       -3.030023300072 Eh       
E(XC)              :     -102.236513329234 Eh       

---------------
SCF CONVERGENCE
---------------

  Last Energy change         ...    8.8653e-10  Tolerance :   1.0000e-07
  Last MAX-Density change    ...    5.3379e-05  Tolerance :   1.0000e-07
  Last RMS-Density change    ...    2.9619e-06  Tolerance :   5.0000e-09
  Last DIIS Error            ...    4.2707e-05  Tolerance :   1.0000e-07
  Last Orbital Gradient      ...    1.2068e-05  Tolerance :   1.0000e-04
  Last Orbital Rotation      ...    7.5113e-05  Tolerance :   1.0000e-04


----------------
ORBITAL ENERGIES
----------------

  NO   OCC          E(Eh)            E(eV) 
   0   2.0000    -101.247449     -2755.0832 
   1   2.0000    -101.247444     -2755.0830 
   2   2.0000     -14.171257      -385.6195 
   3   2.0000     -10.145903      -276.0841 
   4   2.0000     -10.145791      -276.0810 
   5   2.0000     -10.117450      -275.3098 
   6   2.0000     -10.088027      -274.5092 
   7   2.0000     -10.085268      -274.4341 
   8   2.0000     -10.083003      -274.3725 
   9   2.0000     -10.082903      -274.3697 
  10   2.0000      -9.402878      -255.8653 
  11   2.0000      -9.402873      -255.8652 
  12   2.0000      -7.149423      -194.5457 
  13   2.0000      -7.149418      -194.5456 
  14   2.0000      -7.139178      -194.2669 
  15   2.0000      -7.139173      -194.2668 
  16   2.0000      -7.138403      -194.2458 
  17   2.0000      -7.138397      -194.2456 
  18   2.0000      -0.915253       -24.9053 
  19   2.0000      -0.879212       -23.9246 
  20   2.0000      -0.868759       -23.6401 
  21   2.0000      -0.821068       -22.3424 
  22   2.0000      -0.771714       -20.9994 
  23   2.0000      -0.733161       -19.9503 
  24   2.0000      -0.648553       -17.6480 
  25   2.0000      -0.607908       -16.5420 
  26   2.0000      -0.556985       -15.1563 
  27   2.0000      -0.496271       -13.5042 
  28   2.0000      -0.493590       -13.4313 
  29   2.0000      -0.454562       -12.3693 
  30   2.0000      -0.441750       -12.0206 
  31   2.0000      -0.427783       -11.6406 
  32   2.0000      -0.389367       -10.5952 
  33   2.0000      -0.382725       -10.4145 
  34   2.0000      -0.365739        -9.9523 
  35   2.0000      -0.346276        -9.4226 
  36   2.0000      -0.340468        -9.2646 
  37   2.0000      -0.326633        -8.8881 
  38   2.0000      -0.322948        -8.7879 
  39   2.0000      -0.314772        -8.5654 
  40   2.0000      -0.302944        -8.2435 
  41   2.0000      -0.265020        -7.2116 
  42   2.0000      -0.257426        -7.0049 
  43   0.0000      -0.104054        -2.8315 
  44   0.0000      -0.078007        -2.1227 
  45   0.0000      -0.037330        -1.0158 
  46   0.0000      -0.014620        -0.3978 
  47   0.0000       0.009299         0.2530 
  48   0.0000       0.022561         0.6139 
  49   0.0000       0.072135         1.9629 
  50   0.0000       0.083257         2.2655 
  51   0.0000       0.104969         2.8564 
  52   0.0000       0.107883         2.9356 
  53   0.0000       0.120727         3.2851 
*Only the first 10 virtual orbitals were printed.
Total SCF time: 0 days 0 hours 0 min 4 sec 
Finished LeanSCF after   7.9 sec

Maximum memory used throughout the entire LEANSCF-calculation: 24.6 MB


-------------------------------------------------------------------------------
                          DFT DISPERSION CORRECTION                            
                                                                               
                                DFTD4 V3.4.0                                   
-------------------------------------------------------------------------------
-------------------------   ----------------
Dispersion correction           -0.005910764
-------------------------   ----------------

------------------   -----------------
gCP correction             0.005035358
------------------   -----------------

-------------------------   --------------------
FINAL SINGLE POINT ENERGY     -1243.560796278990
-------------------------   --------------------

------------------------------------------------------------------------------
                         ORCA SCF GRADIENT CALCULATION
------------------------------------------------------------------------------

Nuc. rep. gradient        (SHARK) ... done (  0.0 sec)
HCore & Overlap gradient  (SHARK) ... done (  0.2 sec)
Split-RIJ-J gradient      (SHARK) ... done (  1.7 sec)
XC gradient                       ... done (  4.3 sec)
Dispersion correction             ... done (  0.0 sec)

-------------------
DISPERSION GRADIENT
-------------------

   1   C   :    0.000000003   -0.000107642    0.000000019
   2   C   :    0.000060302   -0.000072195    0.000000013
   3   C   :    0.000071171   -0.000007171   -0.000000008
   4   C   :    0.000000007    0.000034125   -0.000000013
   5   C   :   -0.000071154   -0.000007170   -0.000000006
   6   C   :   -0.000060298   -0.000072208    0.000000016
   7   Cl  :   -0.000183640    0.000048058   -0.000000018
   8   C   :    0.000000023    0.000107886   -0.000000072
   9   N   :   -0.000000064    0.000133626    0.000000075
  10   Cl  :    0.000183651    0.000048068   -0.000000024
  11   H   :    0.000000000   -0.000047007    0.000000006
  12   H   :    0.000034113   -0.000029184    0.000000006
  13   H   :   -0.000034113   -0.000029186    0.000000007

Difference to translation invariance:
           :   -0.0000000000    0.0000000000    0.0000000000

Difference to rotation invariance:
           :    0.0000000000    0.0000000000    0.0000000000

Norm of the Dispersion gradient    ...    0.0003853418
RMS gradient                       ...    0.0000617041
MAX gradient                       ...    0.0001836512
gCP correction                   ... done

------------------
CARTESIAN GRADIENT
------------------

   1   C   :   -0.000009647   -0.000021539    0.000001160
   2   C   :   -0.000056034    0.000010105   -0.000012887
   3   C   :    0.000210852    0.000200385    0.000020257
   4   C   :   -0.000105290   -0.000176327    0.000180258
   5   C   :   -0.000196906    0.000149817    0.000020577
   6   C   :    0.000042971    0.000021919   -0.000012559
   7   Cl  :    0.000157778   -0.000095515    0.000006737
   8   C   :    0.000171008   -0.000499429   -0.000368523
   9   N   :   -0.000064546    0.000499202    0.000175289
  10   Cl  :   -0.000155303   -0.000090516    0.000006993
  11   H   :    0.000003759    0.000017749   -0.000001483
  12   H   :    0.000001124   -0.000002855   -0.000007869
  13   H   :    0.000000234   -0.000012993   -0.000007951

Difference to translation invariance:
           :   -0.0000000000    0.0000000000   -0.0000000000

Difference to rotation invariance:
           :   -0.0000052985   -0.0000002120   -0.0000411270

Norm of the Cartesian gradient     ...    0.0009967048
RMS gradient                       ...    0.0001596005
MAX gradient                       ...    0.0004994292

-------
TIMINGS
-------

Total SCF gradient time     ....        6.225 sec

Densities                   ....       0.001 sec  (  0.0%)
One electron gradient       ....       0.192 sec  (  3.1%)
RI-J Coulomb gradient       ....       1.651 sec  ( 26.5%)
XC gradient                 ....       4.345 sec  ( 69.8%)

Maximum memory used throughout the entire SCFGRAD-calculation: 37.0 MB

------------------------------------------------------------------------------
                              ORCA PROPERTY CALCULATIONS
------------------------------------------------------------------------------

GBWName                                 ... xtb_opt.gbw
Number of atoms                         ...     13
Number of basis functions               ...    226
Max core memory                         ...   1024 MB

Electric properties:
Dipole moment                           ... YES
Quadrupole moment                       ...  NO
Static polarizability (Dipole/Dipole)   ...  NO
Static polarizability (Dipole/Quad.)    ...  NO
Static polarizability (Quad./Quad.)     ...  NO
Static polarizability (Velocity)        ...  NO

Atomic electric properties:
Dipole moment                           ...  NO
Quadrupole moment                       ...  NO
Static polarizability                   ...  NO

Choice of electric origin               ... Center of mass
Position of electric origin             ...     0.000017    -0.001752     0.000154

General magnetic properties:
Magnetizability                         ...  NO

EPR properties:
g-Tensor (aka g-matrix)                 ...  NO
Zero-Field splitting spin-orbit         ...  NO
Zero-field splitting spin-spin          ...  NO
Hyperfine couplings                     ...  NO (   0 nuclei)
Quadrupole couplings                    ...  NO (   0 nuclei)
Contact density                         ...  NO (   0 nuclei)

NMR properties:
Chemical shifts                         ...  NO (   0 nuclei)
Spin-rotation constants                 ...  NO (   0 nuclei)
Spin-spin couplings                     ...  NO (   0 nuclei,    0 pairs)

Choice of magnetic origin               ... GIAO
Position of magnetic origin             ...     0.000000     0.000000     0.000000

Properties with geometric perturbations:
SCF Hessian                             ...  NO
IR spectrum                             ...  NO
VCD spectrum                            ...  NO
X-ray spectroscopy properties:
SCF XES/XAS/RIXS spectra                ...  NO


-------------
DIPOLE MOMENT
-------------

Method             : SCF
Type of density    : Electron Density
Multiplicity       :   1
Irrep              :   0
Energy             : -1243.5599208721475861 Eh
Relativity type    : 
Basis              : AO
                                X                 Y                 Z
Electronic contribution:      0.001449510       6.740951864      -0.002417916
Nuclear contribution   :      0.000177832      -8.917029765       0.001083126
                        -----------------------------------------
Total Dipole Moment    :      0.001627343      -2.176077901      -0.001334790
                        -----------------------------------------
Magnitude (a.u.)       :      2.176078919
Magnitude (Debye)      :      5.531153045



--------------------
Rotational spectrum 
--------------------
 
Rotational constants in cm-1:             0.048457             0.028037             0.017761 
Rotational constants in MHz :          1452.712960           840.534148           532.456830 

Dipole components along the rotational axes: 
x,y,z [a.u.] :    -0.002019    -2.176078    -0.001291 
x,y,z [Debye]:    -0.005133    -5.531150    -0.003281 

 

Dipole moment calculation done in   0.7 sec 

Maximum memory used throughout the entire PROP-calculation: 15.5 MB

--------------------------------
SUGGESTED CITATIONS FOR THIS RUN
--------------------------------

Below you find a list of papers that are relevant to this ORCA run
We neither can nor want to force you to cite these papers, but we appreciate if you do
You receive ORCA, which is the product of decades of hard work by many enthusiastic individuals, for free
The only thing we kindly ask in return is that you cite our papers,
We deeply appreciate it, if you show your appreciation for ORCA by not just citing the generic ORCA reference.

Please note that relegating all ORCA citations to the supporting information does *not* help us.
SI sections are not indexed - citations you put there will not count into any citation statistics
But we need these citations in order to attract the funding resources that allow us to do what we are doing

Therefore, if you are a happy ORCA user, please consider citing a few of the papers listed below in the main body of your paper

In addition to the list printed below, the program has created the file xtb_opt.bibtex that contains the list in bibtex format
You can import this file easily into all common literature databanks and citation aid programs


List of essential papers. We consider these as the minimum necessary citations

  1. Neese,F.
     Software update: the ORCA program system, version 5.0
     WIRES Comput. Molec. Sci., 2022 12(1)e1606
     doi.org/10.1002/wcms.1606
  2. Grimme,S.; Hansen,A.; Ehlert,S.; Mewes,J.
     r2SCAN-3c: A 'Swiss army knife' composite electronic-structure method
     J. Chem. Phys., 2021 154 064103
     doi.org/10.1063/5.0040021

List of papers to cite with high priority. The work reported in these papers was absolutely
necessary for this run to complete.
Our perspective: the developers of density functionals and basis sets usually get cited in chemistry papers
Good! But without the algorithms to do something with them, the functionals or basis sets would not do anything.
Hence, in our opinion, the algorithm design and method developments papers are equally worthy of getting cited

  1. Neese,F.
     An improvement of the resolution of the identity approximation for the formation of the Coulomb matrix
     J. Comp. Chem., 2003 24(14)1740-1747
     doi.org/10.1002/jcc.10318
  2. Neese,F.
     The SHARK Integral Generation and Digestion System
     J. Comp. Chem., 2022  1-16
     doi.org/10.1002/jcc.26942
  3. Lehtola,S.; Steigemann,C.; Oliveira,M.; Marques,M.
     Recent developments in Libxc - A comprehensive library of functionals for density functional theory
     Software X, 2018 7 
     doi.org/10.1016/j.softx.2017.11.002
  4. Caldeweyher,E.; Bannwarth,C.; Grimme,S.
     Extension of the D3 dispersion coefficient model
     J. Chem. Phys., 2017 147 034112
     doi.org/10.1063/1.4993215
  5. Caldeweyher,E.; Ehlert,S.; Hansen,A.; Neugebauer,H.; Spicher,S.; Bannwarth,C.; Grimme,S.
     A generally applicable atomic-charge dependent London dispersion correction
     J. Chem. Phys., 2019 150 154122
     doi.org/10.1063/1.5090222
  6. Caldeweyher,E.; Mewes,J.; Ehlert,S.; Grimme,S.
     Extension and evaluation of the D4 London-dispersion model for periodic systems
     Phys. Chem. Chem. Phys., 2020 22(16)8499-8512
     doi.org/10.1039/D0CP00502A
  7. Wittmann,L.; Gordiy,I.; Friede,M.; Helmich-Paris,B.; Grimme,S.; Hansen,A.; Bursch,M.
     Extension of the D3 and D4 London Dispersion Corrections to the full Actinides Series
     Phys. Chem. Chem. Phys., 2024 26(32)21379-21394
     doi.org/https://doi.org/10.1039/D4CP01514B 

List of suggested additional citations. These are papers that are important in the 'surrounding' of 
of this run, or papers that preceded the highly important papers. If you like your results we are grateful for a citation.

  1. Neese,F.
     The ORCA program system
     WIRES Comput. Molec. Sci., 2012 2(1)73-78
     doi.org/10.1002/wcms.81
  2. Neese,F.
     Software update: the ORCA program system, version 4.0
     WIRES Comput. Molec. Sci., 2018 8(1)1-6
     doi.org/10.1002/wcms.1327
  3. Neese,F.; Wennmohs,F.; Becker,U.; Riplinger,C.
     The ORCA quantum chemistry program package
     J. Chem. Phys., 2020 152 Art. No. L224108
     doi.org/10.1063/5.0004608

List of optional additional citations

  1. Neese,F.
     Approximate second-order SCF convergence for spin unrestricted wavefunctions
     Chem. Phys. Lett., 2000 325(1-3)93-98
     doi.org/10.1016/s0009-2614(00)00662-x

Timings for individual modules:

Sum of individual times          ...       16.689 sec (=   0.278 min)
Startup calculation              ...        0.787 sec (=   0.013 min)   4.7 %
SCF iterations                   ...        8.049 sec (=   0.134 min)  48.2 %
Property calculations            ...        0.715 sec (=   0.012 min)   4.3 %
SCF Gradient evaluation          ...        7.137 sec (=   0.119 min)  42.8 %
                             ****ORCA TERMINATED NORMALLY****
TOTAL RUN TIME: 0 days 0 hours 0 minutes 21 seconds 52 msec
  ------------------------------------------------------------------------
          * successful ORCA run, taking over control again...

         :::::::::::::::::::::::::::::::::::::::::::::::::::::
         ::                  ORCA SUMMARY                   ::
         :::::::::::::::::::::::::::::::::::::::::::::::::::::
         :: total energy           -1243.560796278990 Eh    ::
         :: gradient norm              0.000996704842 Eh/a0 ::
         :: HOMO-LUMO gap              0.000000000000 eV    ::
         :::::::::::::::::::::::::::::::::::::::::::::::::::::

           -------------------------------------------------
          |                Property Printout                |
           -------------------------------------------------
           -------------------------------------------------
          |                Geometry Summary                 |
           -------------------------------------------------

      molecular mass/u    :      172.0115519
   center of mass at/Å    :        0.0000090      -0.0009217       0.0000816
  moments of inertia/u·Å² :        0.3478785E+03   0.6012570E+03   0.9491354E+03
rotational constants/cm⁻¹ :        0.4845839E-01   0.2803732E-01   0.1776104E-01

 * 12 selected distances

     #   Z          #   Z                                           value/Å
     1   6 C        2   6 C                                       1.3900576
     2   6 C        3   6 C                                       1.3872461
     3   6 C        4   6 C                                       1.4069226
     4   6 C        5   6 C                                       1.4069432
     1   6 C        6   6 C                                       1.3900730
     5   6 C        6   6 C                                       1.3872756
     5   6 C        7  17 Cl                                      1.7357707 (max)
     8   6 C        9   7 N                                       1.1575343
     3   6 C       10  17 Cl                                      1.7357497
     1   6 C       11   1 H                                       1.0846252
     2   6 C       12   1 H                                       1.0829337 (min)
     6   6 C       13   1 H                                       1.0829559

 * 4 distinct bonds (by element types)

   Z      Z             #   av. dist./Å        max./Å        min./Å
   1 H    6 C           3     1.0835049     1.0846252     1.0829337
   6 C    6 C           6     1.3947530     1.4069432     1.3872461
   6 C    7 N           1     1.1575343     1.1575343     1.1575343
   6 C   17 Cl          2     1.7357602     1.7357707     1.7357497


optimized geometry written to: xtbopt.coord


           -------------------------------------------------
          | TOTAL ENERGY            -1243.560796278990 Eh   |
          | GRADIENT NORM               0.000996704842 Eh/α |
           -------------------------------------------------

------------------------------------------------------------------------
 * finished run on 2025/04/15 at 19:26:18.236     
------------------------------------------------------------------------
 total:
 * wall-time:     0 d,  0 h,  3 min, 17.571 sec
 *  cpu-time:     0 d,  0 h,  0 min,  1.964 sec
 * ratio c/w:     0.010 speedup
 SCF:
 * wall-time:     0 d,  0 h,  0 min, 16.173 sec
 *  cpu-time:     0 d,  0 h,  0 min,  0.950 sec
 * ratio c/w:     0.059 speedup
 ANC optimizer:
 * wall-time:     0 d,  0 h,  3 min,  1.385 sec
 *  cpu-time:     0 d,  0 h,  0 min,  0.975 sec
 * ratio c/w:     0.005 speedup

