 Entering Gaussian System
 *********************************************
 Gaussian 98:
 frequency output generated by the xtb code
 *********************************************
                         Standard orientation:
 --------------------------------------------------------------------
  Center     Atomic     Atomic              Coordinates (Angstroms)
  Number     Number      Type              X           Y           Z
 --------------------------------------------------------------------
    1          6             0       -1.828963    0.630613   -0.133629
    2          6             0       -1.356134   -0.535425    0.259199
    3          6             0        0.080176   -0.936794    0.330515
    4         17             0        1.207406    0.344211   -0.182643
    5          1             0       -2.885601    0.831709   -0.152478
    6          1             0       -1.179816    1.428525   -0.451184
    7          1             0       -2.023493   -1.327688    0.575651
    8          1             0        0.350702   -1.201109    1.355640
    9          1             0        0.267099   -1.797322   -0.316389
 --------------------------------------------------------------------
     1 basis functions        1 primitive gaussians
     1 alpha electrons        1 beta electrons
 
 Harmonic frequencies (cm**-1), IR intensities (km*mol⁻¹),
 Raman scattering activities (A**4/amu), Raman depolarization ratios,
 reduced masses (AMU), force constants (mDyne/A) and normal coordinates:
                      1                      2                      3
                        a                      a                      a 
 Frequencies --    95.0141               225.9957               494.9573
 Red. masses --     6.4925                18.7902                13.0980
 Frc consts  --     0.0000                 0.0000                 0.0000
 IR Inten    --     1.3358                 0.6896                 3.8731
 Raman Activ --     0.0000                 0.0000                 0.0000
 Depolar     --     0.0000                 0.0000                 0.0000
 Atom AN      X      Y      Z        X      Y      Z        X      Y      Z
   1   6     0.01   0.10   0.27    -0.62  -0.09   0.06     0.21  -0.14   0.04
   2   6    -0.02  -0.14  -0.40    -0.15   0.07  -0.02    -0.49  -0.35   0.15
   3   6     0.02   0.12   0.34    -0.09   0.22  -0.08    -0.33   0.08  -0.01
   4  17    -0.01  -0.06  -0.17     0.59  -0.11   0.01     0.33   0.23  -0.10
   5   1    -0.00  -0.03  -0.08    -0.20  -0.14   0.06     0.12   0.24  -0.09
   6   1     0.02   0.14   0.39    -0.27   0.04  -0.00     0.30  -0.22   0.06
   7   1    -0.02  -0.15  -0.43     0.03  -0.04   0.01    -0.14  -0.09   0.04
   8   1    -0.09   0.24   0.18    -0.05   0.05  -0.02    -0.05   0.04  -0.01
   9   1     0.11  -0.08   0.28    -0.05   0.05  -0.01    -0.05   0.04  -0.01
                      4                      5                      6
                        a                      a                      a 
 Frequencies --   545.5612               713.9620               889.9824
 Red. masses --     3.3718                14.7759                 5.3416
 Frc consts  --     0.0000                 0.0000                 0.0000
 IR Inten    --     6.4207                 4.4299                10.1161
 Raman Activ --     0.0000                 0.0000                 0.0000
 Depolar     --     0.0000                 0.0000                 0.0000
 Atom AN      X      Y      Z        X      Y      Z        X      Y      Z
   1   6    -0.01  -0.06  -0.15     0.07  -0.11   0.04     0.02   0.13   0.37
   2   6     0.02   0.14   0.39     0.01  -0.09   0.03    -0.02  -0.12  -0.35
   3   6     0.00   0.03   0.08     0.17   0.73  -0.27     0.01   0.10   0.29
   4  17    -0.00  -0.02  -0.05    -0.22  -0.35   0.13    -0.00  -0.02  -0.05
   5   1    -0.02  -0.18  -0.50     0.05   0.08  -0.03    -0.02  -0.16  -0.45
   6   1     0.02   0.14   0.39     0.13  -0.11   0.03    -0.02  -0.12  -0.34
   7   1    -0.02  -0.12  -0.33     0.14  -0.12   0.04     0.01   0.09   0.25
   8   1     0.18  -0.26  -0.10     0.04   0.16  -0.07     0.06  -0.30  -0.03
   9   1    -0.19   0.15  -0.23     0.04   0.17  -0.05    -0.07   0.22  -0.21
                      7                      8                      9
                        a                      a                      a 
 Frequencies --   919.6733               949.1787              1011.0657
 Red. masses --     4.1185                 7.4801                 1.8097
 Frc consts  --     0.0000                 0.0000                 0.0000
 IR Inten    --     0.4385                 1.5164                18.3265
 Raman Activ --     0.0000                 0.0000                 0.0000
 Depolar     --     0.0000                 0.0000                 0.0000
 Atom AN      X      Y      Z        X      Y      Z        X      Y      Z
   1   6     0.01   0.08   0.21    -0.41   0.15  -0.03    -0.01  -0.06  -0.17
   2   6     0.01   0.04   0.12    -0.24   0.05  -0.01    -0.01  -0.07  -0.19
   3   6    -0.02  -0.15  -0.42     0.54  -0.20   0.04     0.00   0.01   0.03
   4  17     0.00   0.03   0.07    -0.03  -0.03   0.01    -0.00  -0.01  -0.02
   5   1    -0.03  -0.21  -0.57    -0.02   0.48  -0.17    -0.00  -0.01  -0.02
   6   1    -0.00  -0.01  -0.02     0.22  -0.18   0.05     0.03   0.22   0.62
   7   1     0.01   0.06   0.17     0.01  -0.05   0.02     0.03   0.23   0.64
   8   1    -0.03   0.40   0.02     0.18  -0.04   0.01    -0.09  -0.07   0.01
   9   1     0.05  -0.30   0.26     0.18  -0.04   0.00     0.09   0.06  -0.04
                     10                     11                     12
                        a                      a                      a 
 Frequencies --  1058.4945              1135.5155              1247.1564
 Red. masses --     5.3371                 1.7362                 4.2291
 Frc consts  --     0.0000                 0.0000                 0.0000
 IR Inten    --     7.7978                 0.1016                 8.4928
 Raman Activ --     0.0000                 0.0000                 0.0000
 Depolar     --     0.0000                 0.0000                 0.0000
 Atom AN      X      Y      Z        X      Y      Z        X      Y      Z
   1   6    -0.20  -0.14   0.06    -0.00  -0.01  -0.03    -0.08  -0.01   0.01
   2   6     0.44   0.18  -0.09    -0.01  -0.07  -0.20     0.20   0.07  -0.04
   3   6    -0.28  -0.04   0.03     0.00   0.02   0.06    -0.46  -0.11   0.06
   4  17     0.00   0.06  -0.02     0.00   0.02   0.07     0.00  -0.05   0.02
   5   1     0.02   0.27  -0.10     0.01   0.04   0.10    -0.01   0.06  -0.02
   6   1     0.28  -0.27   0.08     0.00   0.02   0.05     0.07  -0.07   0.02
   7   1     0.41  -0.18   0.04     0.00   0.03   0.09     0.07   0.01  -0.01
   8   1    -0.28  -0.07   0.05     0.64   0.19  -0.12     0.52   0.26  -0.09
   9   1    -0.28  -0.08   0.04    -0.64  -0.20   0.09     0.52   0.24  -0.14
                     13                     14                     15
                        a                      a                      a 
 Frequencies --  1276.8151              1399.5752              1415.9204
 Red. masses --     3.2331                 2.2744                 1.8698
 Frc consts  --     0.0000                 0.0000                 0.0000
 IR Inten    --     6.3844                 1.6189                 8.1389
 Raman Activ --     0.0000                 0.0000                 0.0000
 Depolar     --     0.0000                 0.0000                 0.0000
 Atom AN      X      Y      Z        X      Y      Z        X      Y      Z
   1   6    -0.14  -0.27   0.10     0.03  -0.11   0.04     0.03  -0.04   0.01
   2   6     0.29   0.06  -0.04     0.18  -0.22   0.07    -0.00  -0.02   0.01
   3   6     0.02   0.09  -0.03    -0.10   0.07  -0.02     0.14  -0.22   0.07
   4  17    -0.00  -0.01   0.00     0.01   0.00  -0.00    -0.01  -0.02   0.01
   5   1     0.01   0.08  -0.03     0.11   0.62  -0.23     0.02   0.10  -0.04
   6   1     0.15  -0.21   0.07    -0.51   0.37  -0.11    -0.10   0.07  -0.02
   7   1    -0.62   0.55  -0.16    -0.05   0.01  -0.00     0.00  -0.01   0.00
   8   1    -0.06   0.01   0.00     0.01  -0.09  -0.04    -0.21   0.60   0.21
   9   1    -0.06   0.01  -0.01     0.02  -0.05   0.09    -0.25   0.33  -0.52
                     16                     17                     18
                        a                      a                      a 
 Frequencies --  1722.3371              2941.7636              2955.4640
 Red. masses --    11.2463                 2.0161                 1.4643
 Frc consts  --     0.0000                 0.0000                 0.0000
 IR Inten    --    14.4214                 4.5627                 6.4284
 Raman Activ --     0.0000                 0.0000                 0.0000
 Depolar     --     0.0000                 0.0000                 0.0000
 Atom AN      X      Y      Z        X      Y      Z        X      Y      Z
   1   6     0.23  -0.56   0.19     0.00   0.00   0.00     0.00  -0.00   0.00
   2   6    -0.35   0.60  -0.20     0.00   0.00   0.01    -0.01   0.00  -0.00
   3   6     0.06  -0.05   0.01     0.01   0.10   0.28    -0.08   0.18  -0.06
   4  17    -0.00   0.00  -0.00     0.00   0.00   0.00     0.00   0.00  -0.00
   5   1     0.12   0.07  -0.03    -0.00  -0.00  -0.00     0.00  -0.00  -0.00
   6   1    -0.16  -0.01   0.01     0.00   0.00   0.00     0.00  -0.00   0.00
   7   1     0.12   0.02  -0.01    -0.00  -0.00  -0.00     0.02   0.02  -0.01
   8   1     0.06  -0.03  -0.02    -0.18   0.17  -0.62     0.17  -0.13   0.66
   9   1     0.06  -0.01   0.03     0.13  -0.54  -0.39     0.11  -0.52  -0.44
                     19                     20                     21
                        a                      a                      a 
 Frequencies --  3045.8792              3114.6772              3141.5797
 Red. masses --     1.8096                 1.5277                 2.1053
 Frc consts  --     0.0000                 0.0000                 0.0000
 IR Inten    --    29.4485                 8.1519                42.6318
 Raman Activ --     0.0000                 0.0000                 0.0000
 Depolar     --     0.0000                 0.0000                 0.0000
 Atom AN      X      Y      Z        X      Y      Z        X      Y      Z
   1   6     0.02   0.01  -0.01     0.06  -0.20   0.07     0.30   0.09  -0.05
   2   6    -0.15  -0.20   0.08    -0.01   0.01  -0.00     0.02   0.02  -0.01
   3   6    -0.00  -0.01   0.00    -0.00  -0.00   0.00    -0.00   0.00  -0.00
   4  17     0.00   0.00  -0.00    -0.00   0.00  -0.00    -0.00  -0.00   0.00
   5   1    -0.07   0.02  -0.00    -0.63   0.10  -0.00    -0.70   0.15  -0.02
   6   1    -0.03  -0.04   0.02     0.46   0.53  -0.21    -0.36  -0.47   0.19
   7   1     0.59   0.70  -0.28     0.00   0.00  -0.00    -0.05  -0.06   0.02
   8   1    -0.01   0.00  -0.02    -0.00  -0.00  -0.00     0.00  -0.00   0.00
   9   1    -0.00   0.01   0.01    -0.00   0.00   0.00     0.00  -0.00  -0.00
