
                                 *****************
                                 * O   R   C   A *
                                 *****************

                                            #,                                       
                                            ###                                      
                                            ####                                     
                                            #####                                    
                                            ######                                   
                                           ########,                                 
                                     ,,################,,,,,                         
                               ,,#################################,,                 
                          ,,##########################################,,             
                       ,#########################################, ''#####,          
                    ,#############################################,,   '####,        
                  ,##################################################,,,,####,       
                ,###########''''           ''''###############################       
              ,#####''   ,,,,##########,,,,          '''####'''          '####       
            ,##' ,,,,###########################,,,                        '##       
           ' ,,###''''                  '''############,,,                           
         ,,##''                                '''############,,,,        ,,,,,,###''
      ,#''                                            '''#######################'''  
     '                                                          ''''####''''         
             ,#######,   #######,   ,#######,      ##                                
            ,#'     '#,  ##    ##  ,#'     '#,    #''#        ,####,   ,####,        
            ##       ##  ##   ,#'  ##            #'  '#       #'       #'  '#        
            ##       ##  #######   ##           ,######,      #####,   #    #        
            '#,     ,#'  ##    ##  '#,     ,#' ,#      #,     #,   #   #,  ,#        
             '#######'   ##     ##  '#######'  #'      '#     '####' # '####'        



                #########################################################
                #                        -***-                          #
                #          Department of theory and spectroscopy        #
                #                                                       #
                #                      Frank Neese                      #
                #                                                       #
                #     Directorship, Architecture, Infrastructure        #
                #                    SHARK, DRIVERS                     #
                #        Core code/Algorithms in most modules           #
                #                                                       #
                #        Max Planck Institute fuer Kohlenforschung      #
                #                Kaiser Wilhelm Platz 1                 #
                #                 D-45470 Muelheim/Ruhr                 #
                #                      Germany                          #
                #                                                       #
                #                  All rights reserved                  #
                #                        -***-                          #
                #########################################################


                         Program Version 6.0.1  -  RELEASE   -


 With contributions from (in alphabetic order):
[Max-Planck-Institut fuer Kohlenforschung]                               
  Daniel Aravena         : Magnetic Suceptibility                        
  Michael Atanasov       : Ab Initio Ligand Field Theory (pilot matlab implementation)
  Alexander A. Auer      : GIAO ZORA, VPT2 properties, NMR spectrum      
  Ute Becker             : All parallelization in ORCA, NUMFREQ, NUMCALC 
  Giovanni Bistoni       : ED, misc. LED, open-shell LED, HFLD           
  Martin Brehm           : Molecular dynamics                            
  Dmytro Bykov           : pre 5.0 version of the SCF Hessian            
  Marcos Casanova-Páez   : Triplet and SCS-CIS(D). UHF-(DLPNO)-IP/EA/STEOM-CCSD. UHF-CVS-IP/STEOM-CCSD   
  Vijay G. Chilkuri      : MRCI spin determinant printing, contributions to CSF-ICE 
  Pauline Colinet        : FMM embedding                                 
  Dipayan Datta          : RHF DLPNO-CCSD density                        
  Achintya Kumar Dutta   : EOM-CC, STEOM-CC                              
  Nicolas Foglia         : Exact transition moments, OPA infrastructure, MCD improvements    
  Dmitry Ganyushin       : Spin-Orbit,Spin-Spin,Magnetic field MRCI      
  Miquel Garcia-Rates    : C-PCM and meta-GGA Hessian, CCSD/C-PCM, Gaussian charge scheme 
  Tiago L. C. Gouveia    : GS-ROHF, GS-ROCIS                             
  Yang Guo               : DLPNO-NEVPT2, F12-NEVPT2, CIM, IAO-localization        
  Andreas Hansen         : Spin unrestricted coupled pair/coupled cluster methods 
  Ingolf Harden          : AUTO-CI MPn and infrastructure                
  Benjamin Helmich-Paris : MC-RPA, TRAH-(SCF,CASSCF), AVAS, COSX integrals, SCF dyn. polar. 
  Lee Huntington         : MR-EOM, pCC                                   
  Robert Izsak           : Overlap fitted RIJCOSX, COSX-SCS-MP3, EOM     
  Riya Kayal             : Wick's Theorem for AUTO-CI, AUTO-CI UHF-CCSDT 
  Emily Kempfer          : AUTO-CI, RHF CISDT and CCSDT                  
  Christian Kollmar      : KDIIS, OOCD, Brueckner-CCSD(T), CCSD density, CASPT2, CASPT2-K, improved NEVPT2 
  Axel Koslowski         : Symmetry handling                             
  Simone Kossmann        : meta-GGA functionals, TD-DFT gradient, OOMP2, (MP2 Hessian; deprecated post 5.0) 
  Lucas Lang             : DCDCAS                                        
  Marvin Lechner         : AUTO-CI (C++ implementation), FIC-MRCC        
  Spencer Leger          : CASSCF response                               
  Dagmar Lenk            : GEPOL surface, SMD, ORCA-2-JSON               
  Dimitrios Liakos       : Extrapolation schemes; Compound Job, initial MDCI parallelization 
  Dimitrios Manganas     : Further ROCIS development; embedding schemes. LFT, Crystal Embedding 
  Dimitrios Pantazis     : SARC Basis sets                               
  Anastasios Papadopoulos: AUTO-CI, single reference methods and gradients 
  Taras Petrenko         : pre 6.0 DFT Hessian and TD-DFT gradient, (ASA, deprecated), ECA, 1-Electron XAS/XES, NRVS 
  Peter Pinski           : DLPNO-MP2, DLPNO-MP2 Gradient                 
  Christoph Reimann      : Effective Core Potentials                     
  Marius Retegan         : Local ZFS, SOC                                
  Christoph Riplinger    : Optimizer, TS searches, QM/MM, DLPNO-CCSD(T), (RO)-DLPNO pert. Triples 
  Michael Roemelt        : Original ROCIS implementation                 
  Masaaki Saitow         : Open-shell DLPNO-CCSD energy and density      
  Barbara Sandhoefer     : DKH picture change effects                    
  Kantharuban Sivalingam : CASSCF convergence/infrastructure, NEVPT2 and variants, FIC-MRCI 
  Bernardo de Souza      : ESD, SOC TD-DFT                               
  Georgi L. Stoychev     : AutoAux, RI-MP2 NMR, DLPNO-MP2 response, X2C  
  Van Anh Tran           : RI-MP2 g-tensors                              
  Willem Van den Heuvel  : Paramagnetic NMR                              
  Zikuan Wang            : NOTCH, Electric field optimization            
  Frank Wennmohs         : Technical directorship and infrastructure     
  Hang Xu                : AUTO-CI-Response properties                   
                                                                         
[FACCTs GmbH]                                                            
  Markus Bursch, Miquel Garcia-Rates, Christoph Riplinger, Bernardo de Souza, Georgi L. Stoychev 
                                                                 
  APM, Basis sets (HGBS, AHGBS, def-TZVP (Ac-Lr), def2-XVPD (La-Lu)), CI-OPT, improved COSX, DLPNO-Multilevel,           
  DOCKER, DRACO, updates on ESD, GOAT, IRC, LR-CPCM, MBIS, meta-GGA TD-DFT gradient, ML-optimized integration grids, 
  MM, NACMEs, nearIR, NEB, NEB-TS, NL-DFT gradient (VV10), 2- and 3-layer-ONIOM, interface openCOSMO-RS, QMMM,   
  Crystal-QMMM, SF, symmetry and pop. for TD-DFT, r2SCAN hybrids, SOLVATOR                                   
                                                                         
[Other institutions]                                                     
  V. Asgeirsson          : NEB                                           
  Christoph Bannwarth    : sTDA-DFT, sTD-DFT, PBEh-3c, B97-3c, D3        
  Sebastian Ehlert       : rSCAN, r2SCAN, r2SCAN-3c, D4, dhf basis sets  
  Marvin Friede          : D4 for Fr, Ra, Ac-Lr                          
  Lars Goerigk           : TD-DFT with DH, B97 family of functionals     
  Stefan Grimme          : VdW corrections, initial TS optimization, DFT functionals, gCP, sTDA/sTD-DF 
  Waldemar Hujo          : DFT-NL                                        
  H. Jonsson             : NEB                                           
  Holger Kruse           : gCP                                           
  Marcel Mueller         : wB97X-3c, vDZP basis set                      
  Hagen Neugebauer       : wr2SCAN                                       
  Tobias Risthaus        : range-separated hybrid DFT                    
  Lukas Wittmann         : regularized MP2, r2SCAN double-hybrids, wr2SCAN        
                                                                         
We gratefully acknowledge several colleagues who have allowed us to      
interface, adapt or use parts of their codes:                            
  Ed Valeev, F. Pavosevic, A. Kumar             : LibInt (2-el integral package), F12 methods 
  Garnet Chan, S. Sharma, J. Yang, R. Olivares  : DMRG                   
  Ulf Ekstrom                                   : XCFun DFT Library      
  Mihaly Kallay                                 : mrcc  (arbitrary order and MRCC methods)
  Frank Weinhold                                : gennbo (NPA and NBO analysis)           
  Simon Mueller                                 : openCOSMO-RS                            
  Christopher J. Cramer and Donald G. Truhlar   : smd solvation model                     
  S Lehtola, MJT Oliveira, MAL Marques          : LibXC Library                           
  Liviu Ungur et al                             : ANISO software                          


 Your calculation uses the libint2 library for the computation of 2-el integrals
 For citations please refer to: http://libint.valeyev.net

 Your ORCA version has been built with support for libXC version: 6.2.2
 For citations please refer to: https://libxc.gitlab.io

 This ORCA versions uses:
   CBLAS   interface :  Fast vector & matrix operations
   LAPACKE interface :  Fast linear algebra routines
   SCALAPACK package :  Parallel linear algebra routines
   Shared memory     :  Shared parallel matrices
   BLAS/LAPACK       :  OpenBLAS 0.3.27  USE64BITINT DYNAMIC_ARCH NO_AFFINITY Zen SINGLE_THREADED
        Core in use  :  Zen
   Copyright (c) 2011-2014, The OpenBLAS Project


Your calculation utilizes the geometrical counterpoise correction gCP
Please cite in your paper:
H.Kruse, S. Grimme J.Chem.Phys., 136, (2012), 154101 
   

Your calculation utilizes the atom-pairwise dispersion correction
based on EEQ partial charges (D4)


================================================================================

----- Orbital basis set information -----
Your calculation utilizes the basis: def2-SV(P)
   F. Weigend and R. Ahlrichs, Phys. Chem. Chem. Phys. 7, 3297 (2005).

----- AuxJ basis set information -----
Your calculation utilizes the auxiliary basis: def2/J
   F. Weigend, Phys. Chem. Chem. Phys. 8, 1057 (2006).

================================================================================
                                        WARNINGS
                       Please study these warnings very carefully!
================================================================================


================================================================================
                                       INPUT FILE
================================================================================
NAME = sp.inp
|  1> ! pbe def2-sv(p) def2/J RI DEFGRID1 loosescf d4 GCP(DFT/SV(P)) printgap
|  2> %output
|  3>     printlevel normal
|  4> end
|  5> * xyz 0 1
|  6> C -1.8839892075 -0.5727686879 0.2465311586
|  7> C -0.9257566605 0.3938135923 -0.4443986297
|  8> C 0.5107983876 0.0670950055 -0.0710684407
|  9> O 0.9824626368 -1.0435570022 -0.1510234262
| 10> N 1.2417598638 1.1236158294 0.3610478511
| 11> H -1.5754028477 -1.5948496054 0.0435775076
| 12> H -1.8708805224 -0.417096811 1.3230567885
| 13> H -2.8996374944 -0.4299954249 -0.1143783872
| 14> H -1.1672811064 1.4261814801 -0.1879853477
| 15> H -1.0141309289 0.2754777064 -1.5268103202
| 16> H 0.8669679922 2.0517532632 0.4332614784
| 17> H 2.2043549783 0.9721761884 0.6140431455
| 18> *
| 19> 
| 20>                          ****END OF INPUT****
================================================================================

                       ****************************
                       * Single Point Calculation *
                       ****************************

---------------------------------
CARTESIAN COORDINATES (ANGSTROEM)
---------------------------------
  C     -1.883989   -0.572769    0.246531
  C     -0.925757    0.393814   -0.444399
  C      0.510798    0.067095   -0.071068
  O      0.982463   -1.043557   -0.151023
  N      1.241760    1.123616    0.361048
  H     -1.575403   -1.594850    0.043578
  H     -1.870881   -0.417097    1.323057
  H     -2.899637   -0.429995   -0.114378
  H     -1.167281    1.426181   -0.187985
  H     -1.014131    0.275478   -1.526810
  H      0.866968    2.051753    0.433261
  H      2.204355    0.972176    0.614043

----------------------------
CARTESIAN COORDINATES (A.U.)
----------------------------
  NO LB      ZA    FRAG     MASS         X           Y           Z
   0 C     6.0000    0    12.011   -3.560224   -1.082376    0.465876
   1 C     6.0000    0    12.011   -1.749427    0.744200   -0.839792
   2 C     6.0000    0    12.011    0.965269    0.126791   -0.134300
   3 O     8.0000    0    15.999    1.856585   -1.972037   -0.285393
   4 N     7.0000    0    14.007    2.346586    2.123326    0.682282
   5 H     1.0000    0     1.008   -2.977080   -3.013829    0.082350
   6 H     1.0000    0     1.008   -3.535452   -0.788199    2.500215
   7 H     1.0000    0     1.008   -5.479521   -0.812574   -0.216144
   8 H     1.0000    0     1.008   -2.205842    2.695092   -0.355241
   9 H     1.0000    0     1.008   -1.916430    0.520577   -2.885253
  10 H     1.0000    0     1.008    1.638332    3.877252    0.818746
  11 H     1.0000    0     1.008    4.165627    1.837147    1.160373

--------------------------------
INTERNAL COORDINATES (ANGSTROEM)
--------------------------------
 C      0   0   0     0.000000000000     0.00000000     0.00000000
 C      1   0   0     1.526392770845     0.00000000     0.00000000
 C      2   1   0     1.519806195277   110.24680871     0.00000000
 O      3   2   1     1.209300560608   123.35754488    50.62900992
 N      3   2   1     1.355457642518   114.86492079   230.42524610
 H      1   2   3     1.086768203356   109.43664254   307.60292821
 H      1   2   3     1.087801913362   110.47362114    66.90532299
 H      1   2   3     1.087281632127   110.67152893   187.37261223
 H      2   1   3     1.090809463157   110.72690929   237.03379579
 H      2   1   3     1.092441513738   109.21537583   117.60074600
 H      5   3   2     1.003555106113   122.84861369     0.17165356
 H      5   3   2     1.006742240255   118.58675322   180.64126252

---------------------------
INTERNAL COORDINATES (A.U.)
---------------------------
 C      0   0   0     0.000000000000     0.00000000     0.00000000
 C      1   0   0     2.884464309694     0.00000000     0.00000000
 C      2   1   0     2.872017485710   110.24680871     0.00000000
 O      3   2   1     2.285246873147   123.35754488    50.62900992
 N      3   2   1     2.561443730490   114.86492079   230.42524610
 H      1   2   3     2.053694275397   109.43664254   307.60292821
 H      1   2   3     2.055647704210   110.47362114    66.90532299
 H      1   2   3     2.054664515162   110.67152893   187.37261223
 H      2   1   3     2.061331149657   110.72690929   237.03379579
 H      2   1   3     2.064415278291   109.21537583   117.60074600
 H      5   3   2     1.896444310852   122.84861369     0.17165356
 H      5   3   2     1.902467121533   118.58675322   180.64126252

---------------------
BASIS SET INFORMATION
---------------------
There are 4 groups of distinct atoms

 Group   1 Type C   : 7s4p1d contracted to 3s2p1d pattern {511/31/1}
 Group   2 Type O   : 7s4p1d contracted to 3s2p1d pattern {511/31/1}
 Group   3 Type N   : 7s4p1d contracted to 3s2p1d pattern {511/31/1}
 Group   4 Type H   : 4s contracted to 2s pattern {31}

Atom   0C    basis set group =>   1
Atom   1C    basis set group =>   1
Atom   2C    basis set group =>   1
Atom   3O    basis set group =>   2
Atom   4N    basis set group =>   3
Atom   5H    basis set group =>   4
Atom   6H    basis set group =>   4
Atom   7H    basis set group =>   4
Atom   8H    basis set group =>   4
Atom   9H    basis set group =>   4
Atom  10H    basis set group =>   4
Atom  11H    basis set group =>   4
---------------------------------
AUXILIARY/J BASIS SET INFORMATION
---------------------------------
There are 4 groups of distinct atoms

 Group   1 Type C   : 12s5p4d2f1g contracted to 6s4p3d1f1g pattern {711111/2111/211/2/1}
 Group   2 Type O   : 12s5p4d2f1g contracted to 6s4p3d1f1g pattern {711111/2111/211/2/1}
 Group   3 Type N   : 12s5p4d2f1g contracted to 6s4p3d1f1g pattern {711111/2111/211/2/1}
 Group   4 Type H   : 5s2p1d contracted to 3s1p1d pattern {311/2/1}

Atom   0C    basis set group =>   1
Atom   1C    basis set group =>   1
Atom   2C    basis set group =>   1
Atom   3O    basis set group =>   2
Atom   4N    basis set group =>   3
Atom   5H    basis set group =>   4
Atom   6H    basis set group =>   4
Atom   7H    basis set group =>   4
Atom   8H    basis set group =>   4
Atom   9H    basis set group =>   4
Atom  10H    basis set group =>   4
Atom  11H    basis set group =>   4
------------------------------------------------------------------------------
                             ORCA STARTUP CALCULATIONS
                           -- RI-GTO INTEGRALS CHOSEN --
------------------------------------------------------------------------------
------------------------------------------------------------------------------
                   ___                                                        
                  /   \      - P O W E R E D   B Y -                         
                 /     \                                                     
                 |  |  |   _    _      __       _____    __    __             
                 |  |  |  | |  | |    /  \     |  _  \  |  |  /  |          
                  \  \/   | |  | |   /    \    | | | |  |  | /  /          
                 / \  \   | |__| |  /  /\  \   | |_| |  |  |/  /          
                |  |  |   |  __  | /  /__\  \  |    /   |      \           
                |  |  |   | |  | | |   __   |  |    \   |  |\   \          
                \     /   | |  | | |  |  |  |  | |\  \  |  | \   \       
                 \___/    |_|  |_| |__|  |__|  |_| \__\ |__|  \__/        
                                                                              
                      - O R C A' S   B I G   F R I E N D -                    
                                      &                                       
                       - I N T E G R A L  F E E D E R -                       
                                                                              
 v1 FN, 2020, v2 2021, v3 2022-2024                                           
------------------------------------------------------------------------------


----------------------
SHARK INTEGRAL PACKAGE
----------------------

Number of atoms                             ...     12
Number of basis functions                   ...     84
Number of shells                            ...     44
Maximum angular momentum                    ...      2
Integral batch strategy                     ... SHARK/LIBINT Hybrid
RI-J (if used) integral strategy            ... SPLIT-RIJ (Revised 2003 algorithm where possible)
Printlevel                                  ...      1
Contraction scheme used                     ... SEGMENTED contraction
Prescreening option                         ... SCHWARTZ
   Thresh                                   ... 1.000e-09
   Tcut                                     ... 1.000e-10
   Tpresel                                  ... 1.000e-10 
Coulomb Range Separation                    ... NOT USED
Exchange Range Separation                   ... NOT USED
Multipole approximations                    ... NOT USED
Finite Nucleus Model                        ... NOT USED
CABS basis                                  ... NOT available
Auxiliary Coulomb fitting basis             ... AVAILABLE
   # of basis functions in Aux-J            ...    322
   # of shells in Aux-J                     ...    110
   Maximum angular momentum in Aux-J        ...      4
Auxiliary J/K fitting basis                 ... NOT available
Auxiliary Correlation fitting basis         ... NOT available
Auxiliary 'external' fitting basis          ... NOT available

Checking pre-screening integrals            ... done (  0.0 sec) Dimension = 44
Check shell pair data                       ... done (  0.0 sec)
Shell pair information
Shell pair cut-off parameter TPreSel        ...   1.0e-10
Total number of shell pairs                 ...       990
Shell pairs after pre-screening             ...       973
Total number of primitive shell pairs       ...      4002
Primitive shell pairs kept                  ...      2990
          la=0 lb=0:    423 shell pairs
          la=1 lb=0:    288 shell pairs
          la=1 lb=1:     55 shell pairs
          la=2 lb=0:    142 shell pairs
          la=2 lb=1:     50 shell pairs
          la=2 lb=2:     15 shell pairs

Calculating one electron integrals          ... done (  0.0 sec)
Calculating RI/J V-Matrix + Cholesky decomp.... done (  0.0 sec)
Calculating Nuclear repulsion               ... done (  0.0 sec) ENN=    179.673741776318 Eh

Diagonalization of the overlap matrix:
Smallest eigenvalue                        ... 2.412e-03
Time for diagonalization                   ...    0.002 sec
Threshold for overlap eigenvalues          ... 1.000e-07
Number of eigenvalues below threshold      ... 0
Time for construction of square roots      ...    0.003 sec
Total time needed                          ...    0.007 sec

-------------------
DFT GRID GENERATION
-------------------

General Integration Accuracy     IntAcc      ... 4.159
Radial Grid Type                 RadialGrid  ... OptM3 with GC (2021)
Angular Grid (max. ang.)         AngularGrid ... 3 (Lebedev-194)
Angular grid pruning method      GridPruning ... 4 (adaptive)
Weight generation scheme         WeightScheme... mBecke (2022)
Basis function cutoff            BFCut       ... 1.0000e-10
Integration weight cutoff        WCut        ... 1.0000e-14
Partially contracted basis set               ... off
Rotationally invariant grid construction     ... off
Angular grids for H and He will be reduced by one unit

Total number of grid points                  ...    26457
Total number of batches                      ...      419
Average number of points per batch           ...       63
Average number of grid points per atom       ...     2205
Initializing property integral containers    ... done (  0.0 sec)

SHARK setup successfully completed in   0.3 seconds

Maximum memory used throughout the entire STARTUP-calculation: 13.7 MB
-------------------------------------------------------------------------------
                                 ORCA GUESS
                   Start orbitals & Density for SCF / CASSCF
-------------------------------------------------------------------------------

------------
SCF SETTINGS
------------
Hamiltonian:
 Density Functional     Method          .... DFT(GTOs)
 Exchange Functional    Exchange        .... PBE
   PBE kappa parameter   XKappa         ....  0.804000
   PBE mue parameter    XMuePBE         ....  0.219520
 Correlation Functional Correlation     .... PBE
   PBE beta parameter  CBetaPBE         ....  0.066725
 LDA part of GGA corr.  LDAOpt          .... PW91-LDA
 Gradients option       PostSCFGGA      .... off
   NL short-range parameter             ....  6.400000
 RI-approximation to the Coulomb term is turned on
   Number of AuxJ basis functions       .... 322


General Settings:
 Integral files         IntName         .... sp
 Hartree-Fock type      HFTyp           .... RHF
 Total Charge           Charge          ....    0
 Multiplicity           Mult            ....    1
 Number of Electrons    NEL             ....   40
 Basis Dimension        Dim             ....   84
 Nuclear Repulsion      ENuc            ....    179.6737417763 Eh

Convergence Acceleration:
 AO-DIIS                CNVDIIS         .... on
   Start iteration      DIISMaxIt       ....    12
   Startup error        DIISStart       ....  0.200000
   # of expansion vecs  DIISMaxEq       ....     5
   Bias factor          DIISBfac        ....   1.050
   Max. coefficient     DIISMaxC        ....  10.000
 MO-DIIS                CNVKDIIS        .... off
 Trust-Rad. Augm. Hess. CNVTRAH         .... auto
   Auto Start mean grad. ratio tolernc. ....  1.125000
   Auto Start start iteration           ....    50
   Auto Start num. interpolation iter.  ....    10
   Max. Number of Micro iterations      ....    24
   Max. Number of Macro iterations      .... Maxiter - #DIIS iter
   Number of Davidson start vectors     ....     2
   Converg. threshold    (grad. norm)   ....   1.000e-04
   Grad. Scal. Fac. for Micro threshold ....   0.100
   Minimum threshold for Micro iter.    ....   1.000e-02
   NR start threshold (gradient norm)   ....   1.000e-04
   Initial trust radius                 ....   0.400
   Minimum AH scaling param. (alpha)    ....   1.000
   Maximum AH scaling param. (alpha)    .... 1000.000
   Quad. conv. algorithm                .... NR
   White noise on init. David. guess    .... on
   Maximum white noise                  ....   0.010
   Pseudo random numbers                .... off
   Inactive MOs                         .... canonical
   Orbital update algorithm             .... Taylor
   Preconditioner                       .... Diag
   Full preconditioner red. dimension   ....   250
 SOSCF                  CNVSOSCF        .... on
   Start iteration      SOSCFMaxIt      ....   150
   Startup grad/error   SOSCFStart      ....  0.003300
   Hessian update       SOSCFHessUp     .... L-BFGS
 Level Shifting         CNVShift        .... on
   Level shift para.    LevelShift      ....    0.2500
   Turn off err/grad.   ShiftErr        ....    0.0010
 Zerner damping         CNVZerner       .... off
 Static damping         CNVDamp         .... on
   Fraction old density DampFac         ....    0.7000
   Max. Damping (<1)    DampMax         ....    0.9800
   Min. Damping (>=0)   DampMin         ....    0.0000
   Turn off err/grad.   DampErr         ....    0.1000

SCF Procedure:
 Maximum # iterations   MaxIter         ....   125
 SCF integral mode      SCFMode         .... Direct
   Integral package                     .... SHARK and LIBINT hybrid scheme
 Reset frequency        DirectResetFreq ....    20
 Integral Threshold     Thresh          ....  1.000e-09 Eh
 Primitive CutOff       TCut            ....  1.000e-10 Eh

Convergence Tolerance:
 Convergence Check Mode ConvCheckMode   .... Total+1el-Energy
 Convergence forced     ConvForced      .... 0
 Energy Change          TolE            ....  1.000e-05 Eh
 1-El. energy change                    ....  1.000e-02 Eh
 Orbital Gradient       TolG            ....  1.000e-04
 Orbital Rotation angle TolX            ....  1.000e-04
 DIIS Error             TolErr          ....  5.000e-04

------------------------------
INITIAL GUESS: MODEL POTENTIAL
------------------------------
Loading Hartree-Fock densities                     ... done
Calculating cut-offs                               ... done
Initializing the effective Hamiltonian             ... done
Setting up the integral package (SHARK)            ... done
Starting the Coulomb interaction                   ... done (   0.0 sec)
Making the grid                                    ... done (   0.1 sec)
Mapping shells                                     ... done
Starting the XC term evaluation                    ... done (   0.1 sec)
  promolecular density results
     # of electrons  =     39.994374308
     EX              =    -32.105401262
     EC              =     -1.311168996
     EX+EC           =    -33.416570258
Transforming the Hamiltonian                       ... done (   0.0 sec)
Diagonalizing the Hamiltonian                      ... done (   0.0 sec)
Back transforming the eigenvectors                 ... done (   0.0 sec)
Now organizing SCF variables                       ... done
                      ------------------
                      INITIAL GUESS DONE (   0.2 sec)
                      ------------------
             **** ENERGY FILE WAS UPDATED (sp.en.tmp) ****
Finished Guess after   0.2 sec
Maximum memory used throughout the entire GUESS-calculation: 10.6 MB

-------------------------------------------------------------------------------------------
                                      ORCA LEAN-SCF
                              memory conserving SCF solver
-------------------------------------------------------------------------------------------

----------------------------------------D-I-I-S--------------------------------------------
Iteration    Energy (Eh)           Delta-E    RMSDP     MaxDP     DIISErr   Damp  Time(sec)
-------------------------------------------------------------------------------------------
               ***  Starting incremental Fock matrix formation  ***
    1    -247.8165918108690562     0.00e+00  8.89e-03  1.38e-01  2.58e-01  0.700   0.4
    2    -247.9201929471656172    -1.04e-01  5.51e-03  8.42e-02  8.88e-02  0.700   0.2
                               ***Turning on AO-DIIS***
    3    -247.9512790818203598    -3.11e-02  1.75e-03  2.25e-02  2.67e-02  0.700   0.2
    4    -247.9715603357424243    -2.03e-02  2.28e-03  2.58e-02  1.55e-02  0.000   0.2
    5    -248.0190522912916435    -4.75e-02  9.28e-04  1.31e-02  1.17e-02  0.000   0.2
                              *** Initializing SOSCF ***
---------------------------------------S-O-S-C-F--------------------------------------
Iteration    Energy (Eh)           Delta-E    RMSDP     MaxDP     MaxGrad    Time(sec)
--------------------------------------------------------------------------------------
    6    -248.0197191408342974    -6.67e-04  2.99e-04  2.89e-03  2.57e-03     0.2
               *** Restarting incremental Fock matrix formation ***
    7    -248.0197641531145223    -4.50e-05  2.83e-04  4.05e-03  5.19e-04     3.4
    8    -248.0197631397963391     1.01e-06  1.08e-04  1.46e-03  8.13e-04     0.2
                 **** Energy Check signals convergence ****

               *****************************************************
               *                     SUCCESS                       *
               *           SCF CONVERGED AFTER   8 CYCLES          *
               *****************************************************

             **** ENERGY FILE WAS UPDATED (sp.en.tmp) ****

----------------
TOTAL SCF ENERGY
----------------

Total Energy       :       -248.01976313979634 Eh           -6748.96087 eV

Components:
Nuclear Repulsion  :        179.67374177631837 Eh            4889.17107 eV
Electronic Energy  :       -427.69350491611470 Eh          -11638.13194 eV
One Electron Energy:       -692.26104081994458 Eh          -18837.38059 eV
Two Electron Energy:        264.56753590382988 Eh            7199.24865 eV

Virial components:
Potential Energy   :       -494.11563916457607 Eh          -13445.57010 eV
Kinetic Energy     :        246.09587602477973 Eh            6696.60924 eV
Virial Ratio       :          2.00781763248573

DFT components:
N(Alpha)           :       19.999868647170 electrons
N(Beta)            :       19.999868647170 electrons
N(Total)           :       39.999737294340 electrons
E(X)               :      -32.773255303474 Eh       
E(C)               :       -1.329526248667 Eh       
E(XC)              :      -34.102781552141 Eh       

---------------
SCF CONVERGENCE
---------------

  Last Energy change         ...   -1.0133e-06  Tolerance :   1.0000e-05
  Last MAX-Density change    ...    1.4636e-03  Tolerance :   1.0000e-03
  Last RMS-Density change    ...    1.0780e-04  Tolerance :   1.0000e-04
  Last DIIS Error            ...    2.5667e-03  Tolerance :   5.0000e-04
  Last Orbital Gradient      ...    8.1256e-04  Tolerance :   1.0000e-04
  Last Orbital Rotation      ...    1.4477e-03  Tolerance :   1.0000e-04


----------------
ORBITAL ENERGIES
----------------

  NO   OCC          E(Eh)            E(eV) 
   0   2.0000     -18.705813      -509.0110 
   1   2.0000     -14.006987      -381.1495 
   2   2.0000      -9.975818      -271.4558 
   3   2.0000      -9.892463      -269.1876 
   4   2.0000      -9.876126      -268.7431 
   5   2.0000      -0.929110       -25.2824 
   6   2.0000      -0.814243       -22.1567 
   7   2.0000      -0.695677       -18.9303 
   8   2.0000      -0.582468       -15.8498 
   9   2.0000      -0.519562       -14.1380 
  10   2.0000      -0.484548       -13.1852 
  11   2.0000      -0.426082       -11.5943 
  12   2.0000      -0.406029       -11.0486 
  13   2.0000      -0.359300        -9.7770 
  14   2.0000      -0.350198        -9.5294 
  15   2.0000      -0.319374        -8.6906 
  16   2.0000      -0.314877        -8.5683 
  17   2.0000      -0.301688        -8.2093 
  18   2.0000      -0.225494        -6.1360 
  19   2.0000      -0.194952        -5.3049 
  20   0.0000       0.003074         0.0837 
  21   0.0000       0.023439         0.6378 
  22   0.0000       0.064822         1.7639 
  23   0.0000       0.077517         2.1093 
  24   0.0000       0.094767         2.5787 
  25   0.0000       0.118430         3.2226 
  26   0.0000       0.123525         3.3613 
  27   0.0000       0.143667         3.9094 
  28   0.0000       0.187375         5.0987 
  29   0.0000       0.205589         5.5944 
  30   0.0000       0.257536         7.0079 
*Only the first 10 virtual orbitals were printed.

                    ********************************
                    * MULLIKEN POPULATION ANALYSIS *
                    ********************************

-----------------------
MULLIKEN ATOMIC CHARGES
-----------------------
   0 C :   -0.288717
   1 C :   -0.196640
   2 C :    0.040801
   3 O :   -0.203426
   4 N :   -0.326692
   5 H :    0.127205
   6 H :    0.103356
   7 H :    0.104169
   8 H :    0.071654
   9 H :    0.114990
  10 H :    0.225319
  11 H :    0.227983
Sum of atomic charges:   -0.0000000

--------------------------------
MULLIKEN REDUCED ORBITAL CHARGES
--------------------------------
  0 C s       :     3.110699  s :     3.110699
      pz      :     1.052896  p :     3.148841
      px      :     1.029813
      py      :     1.066132
      dz2     :     0.009973  d :     0.029177
      dxz     :     0.003435
      dyz     :     0.002615
      dx2y2   :     0.009128
      dxy     :     0.004026

  1 C s       :     3.046896  s :     3.046896
      pz      :     1.080262  p :     3.115864
      px      :     1.020065
      py      :     1.015537
      dz2     :     0.011047  d :     0.033880
      dxz     :     0.004117
      dyz     :     0.002940
      dx2y2   :     0.010798
      dxy     :     0.004977

  2 C s       :     3.045287  s :     3.045287
      pz      :     0.868524  p :     2.798434
      px      :     1.021577
      py      :     0.908332
      dz2     :     0.009019  d :     0.115478
      dxz     :     0.008252
      dyz     :     0.028090
      dx2y2   :     0.032076
      dxy     :     0.038042

  3 O s       :     3.727425  s :     3.727425
      pz      :     1.447219  p :     4.458421
      px      :     1.644747
      py      :     1.366455
      dz2     :     0.002003  d :     0.017580
      dxz     :     0.000867
      dyz     :     0.004555
      dx2y2   :     0.005078
      dxy     :     0.005076

  4 N s       :     3.370623  s :     3.370623
      pz      :     1.654867  p :     3.938692
      px      :     1.169581
      py      :     1.114243
      dz2     :     0.002919  d :     0.017377
      dxz     :     0.001734
      dyz     :     0.001621
      dx2y2   :     0.007390
      dxy     :     0.003713

  5 H s       :     0.872795  s :     0.872795

  6 H s       :     0.896644  s :     0.896644

  7 H s       :     0.895831  s :     0.895831

  8 H s       :     0.928346  s :     0.928346

  9 H s       :     0.885010  s :     0.885010

 10 H s       :     0.774681  s :     0.774681

 11 H s       :     0.772017  s :     0.772017


------------------------
MULLIKEN OVERLAP CHARGES
------------------------
B(  0-C ,  1-C ) :   0.8033 B(  0-C ,  5-H ) :   0.7450 B(  0-C ,  6-H ) :   0.7548 
B(  0-C ,  7-H ) :   0.7478 B(  1-C ,  2-C ) :   0.4905 B(  1-C ,  3-O ) :  -0.2347 
B(  1-C ,  4-N ) :  -0.3454 B(  1-C ,  5-H ) :  -0.0769 B(  1-C ,  6-H ) :  -0.0664 
B(  1-C ,  8-H ) :   0.5977 B(  1-C ,  9-H ) :   0.6228 B(  2-C ,  3-O ) :   1.5168 
B(  2-C ,  4-N ) :   0.7328 B(  3-O ,  4-N ) :  -0.2167 B(  4-N , 10-H ) :   0.5750 
B(  4-N , 11-H ) :   0.5659 B(  6-H ,  7-H ) :  -0.0555 


                     *******************************
                     * LOEWDIN POPULATION ANALYSIS *
                     *******************************

----------------------
LOEWDIN ATOMIC CHARGES
----------------------
   0 C :   -0.334945
   1 C :   -0.258385
   2 C :    0.010286
   3 O :   -0.194401
   4 N :   -0.302264
   5 H :    0.129554
   6 H :    0.119661
   7 H :    0.119119
   8 H :    0.112209
   9 H :    0.139757
  10 H :    0.229157
  11 H :    0.230251

-------------------------------
LOEWDIN REDUCED ORBITAL CHARGES
-------------------------------
  0 C s       :     2.945425  s :     2.945425
      pz      :     1.113910  p :     3.318821
      px      :     1.088443
      py      :     1.116468
      dz2     :     0.023359  d :     0.070699
      dxz     :     0.008569
      dyz     :     0.006709
      dx2y2   :     0.020995
      dxy     :     0.011068

  1 C s       :     2.919329  s :     2.919329
      pz      :     1.108556  p :     3.254694
      px      :     1.061596
      py      :     1.084543
      dz2     :     0.026084  d :     0.084362
      dxz     :     0.010302
      dyz     :     0.007141
      dx2y2   :     0.026484
      dxy     :     0.014351

  2 C s       :     2.844308  s :     2.844308
      pz      :     0.860515  p :     2.874115
      px      :     1.017223
      py      :     0.996378
      dz2     :     0.020493  d :     0.271290
      dxz     :     0.015446
      dyz     :     0.061226
      dx2y2   :     0.079367
      dxy     :     0.094758

  3 O s       :     3.544073  s :     3.544073
      pz      :     1.453646  p :     4.619133
      px      :     1.679066
      py      :     1.486421
      dz2     :     0.004333  d :     0.031195
      dxz     :     0.001092
      dyz     :     0.006062
      dx2y2   :     0.009602
      dxy     :     0.010106

  4 N s       :     3.163226  s :     3.163226
      pz      :     1.635299  p :     4.095162
      px      :     1.245742
      py      :     1.214121
      dz2     :     0.005050  d :     0.043876
      dxz     :     0.003911
      dyz     :     0.004223
      dx2y2   :     0.018737
      dxy     :     0.011954

  5 H s       :     0.870446  s :     0.870446

  6 H s       :     0.880339  s :     0.880339

  7 H s       :     0.880881  s :     0.880881

  8 H s       :     0.887791  s :     0.887791

  9 H s       :     0.860243  s :     0.860243

 10 H s       :     0.770843  s :     0.770843

 11 H s       :     0.769749  s :     0.769749


---------------------------------
LOEWDIN BOND ORDERS (THRESH 0.050000)
---------------------------------
B(  0-C ,  1-C ) :   1.1197 B(  0-C ,  2-C ) :   0.0619 B(  0-C ,  5-H ) :   0.9335 
B(  0-C ,  6-H ) :   0.9424 B(  0-C ,  7-H ) :   0.9389 B(  1-C ,  2-C ) :   1.0350 
B(  1-C ,  3-O ) :   0.1033 B(  1-C ,  4-N ) :   0.0750 B(  1-C ,  8-H ) :   0.9041 
B(  1-C ,  9-H ) :   0.8906 B(  2-C ,  3-O ) :   2.1699 B(  2-C ,  4-N ) :   1.4252 
B(  3-O ,  4-N ) :   0.2375 B(  4-N , 10-H ) :   0.8861 B(  4-N , 11-H ) :   0.8819 


------------------------------------------
LOEWDIN REDUCED ORBITAL POPULATIONS PER MO
-------------------------------------------
THRESHOLD FOR PRINTING IS 0.1%%
                      0         1         2         3         4         5   
                 -18.70581 -14.00699  -9.97582  -9.89246  -9.87613  -0.92911
                   2.00000   2.00000   2.00000   2.00000   2.00000   2.00000
                  --------  --------  --------  --------  --------  --------
 0 C  s               0.0       0.0       0.0       0.0      99.7       0.1
 0 C  px              0.0       0.0       0.0       0.0       0.0       0.2
 1 C  s               0.0       0.0       0.0      99.6       0.0       1.5
 1 C  pz              0.0       0.0       0.0       0.0       0.0       0.1
 1 C  px              0.0       0.0       0.1       0.0       0.0       1.8
 1 C  py              0.0       0.0       0.0       0.0       0.0       0.2
 2 C  s               0.0       0.0      99.3       0.0       0.0      24.0
 2 C  px              0.0       0.0       0.0       0.1       0.0       2.9
 2 C  py              0.1       0.0       0.0       0.0       0.0       5.3
 2 C  dz2             0.0       0.0       0.0       0.0       0.0       0.5
 2 C  dx2y2           0.0       0.0       0.0       0.0       0.0       0.5
 2 C  dxy             0.0       0.0       0.0       0.0       0.0       0.3
 3 O  s              99.9       0.0       0.0       0.0       0.0      42.1
 3 O  px              0.0       0.0       0.0       0.0       0.0       0.8
 3 O  py              0.0       0.0       0.2       0.0       0.0       5.8
 3 O  dx2y2           0.0       0.0       0.0       0.0       0.0       0.1
 4 N  s               0.0      99.8       0.0       0.0       0.0       7.9
 4 N  pz              0.0       0.0       0.0       0.0       0.0       0.2
 4 N  px              0.0       0.0       0.1       0.0       0.0       0.3
 4 N  py              0.0       0.0       0.1       0.0       0.0       1.7
 8 H  s               0.0       0.0       0.0       0.1       0.0       0.2
 9 H  s               0.0       0.0       0.0       0.1       0.0       0.2
10 H  s               0.0       0.0       0.0       0.0       0.0       1.1
11 H  s               0.0       0.0       0.0       0.0       0.0       1.5

                      6         7         8         9        10        11   
                  -0.81424  -0.69568  -0.58247  -0.51956  -0.48455  -0.42608
                   2.00000   2.00000   2.00000   2.00000   2.00000   2.00000
                  --------  --------  --------  --------  --------  --------
 0 C  s               0.0      21.8      21.2       2.8       0.8       0.0
 0 C  pz              0.0       0.6       0.4       1.2       1.8       0.0
 0 C  px              0.0       1.3       1.5       0.8       0.2       7.1
 0 C  py              0.0       1.3       1.0       1.0       1.4       6.1
 1 C  s               0.5      30.0       4.5       3.9       3.9       0.3
 1 C  pz              0.1       0.5       0.9       2.1       3.2       0.1
 1 C  px              0.3       0.5       9.0       0.2       1.9      12.9
 1 C  py              0.2       0.7       3.4       0.6       0.2      18.7
 1 C  dxz             0.0       0.0       0.1       0.0       0.0       0.0
 1 C  dx2y2           0.0       0.0       0.0       0.1       0.0       0.2
 1 C  dxy             0.0       0.0       0.1       0.0       0.0       0.0
 2 C  s               1.4       1.7       5.6       4.4       0.2       2.2
 2 C  pz              1.2       0.5       0.6       2.3       0.1       0.8
 2 C  px              0.4      10.5       3.7       4.3       1.4      10.9
 2 C  py             20.7       0.6       3.5       5.8       0.2       1.2
 2 C  dx2y2           0.0       0.2       0.0       0.0       0.5       0.2
 2 C  dxy             0.9       0.0       0.0       0.3       0.0       0.1
 3 O  s              10.8       1.1       1.1       2.8       0.6       4.1
 3 O  pz              0.0       0.0       0.0       0.4       0.0       0.1
 3 O  px              0.3       0.2       0.2       0.4       0.4       8.2
 3 O  py              0.4       0.1       0.4       2.3       0.4       1.3
 3 O  dxy             0.0       0.0       0.0       0.0       0.0       0.1
 4 N  s              44.2       1.4       1.5       0.4       0.0       0.0
 4 N  pz              0.0       0.1       1.6       2.6       0.5       0.7
 4 N  px              0.1       1.1       8.4       3.5      32.0       4.2
 4 N  py              0.1       0.1       2.3      34.5      14.5       0.2
 4 N  dz2             0.1       0.0       0.0       0.0       0.0       0.0
 4 N  dx2y2           0.0       0.0       0.0       0.0       0.3       0.1
 4 N  dxy             0.0       0.0       0.1       0.4       0.0       0.0
 5 H  s               0.0       4.0       6.4       1.1       0.8       2.8
 6 H  s               0.0       4.2       6.5       1.8       1.2       0.0
 7 H  s               0.0       4.1       7.3       1.2       0.2       2.8
 8 H  s               0.2       6.1       2.0       2.3       1.1      11.7
 9 H  s               0.0       5.9       1.6       3.1       4.3       0.2
10 H  s               9.6       0.2       0.7      11.5      12.1       0.2
11 H  s               8.0       0.9       4.2       1.5      15.0       2.3

                     12        13        14        15        16        17   
                  -0.40603  -0.35930  -0.35020  -0.31937  -0.31488  -0.30169
                   2.00000   2.00000   2.00000   2.00000   2.00000   2.00000
                  --------  --------  --------  --------  --------  --------
 0 C  s               0.2       0.1       0.0       0.2       0.1       0.1
 0 C  pz             10.6      18.4       2.3       1.5       3.8      14.8
 0 C  px              4.7       5.5       4.8      25.9       0.9       1.4
 0 C  py              6.0       0.2       7.5       3.1      23.9       4.0
 0 C  dz2             0.0       0.2       0.0       0.2       0.0       0.7
 0 C  dxz             0.0       0.0       0.0       0.2       0.0       0.0
 0 C  dx2y2           0.0       0.0       0.2       0.2       0.4       0.1
 0 C  dxy             0.1       0.0       0.0       0.1       0.1       0.0
 1 C  s               0.2       0.2       0.1       0.1       0.1       0.0
 1 C  pz             26.1       0.0       0.1       0.0       5.4      16.1
 1 C  px              0.0       5.8       2.4      10.7       0.0       0.5
 1 C  py              2.8       5.5       0.4       5.2      12.9       2.7
 1 C  dz2             0.1       0.0       0.0       0.1       0.1       0.9
 1 C  dxz             0.0       0.1       0.0       0.2       0.0       0.0
 1 C  dx2y2           0.0       0.0       0.0       0.1       0.6       0.2
 1 C  dxy             0.1       0.1       0.0       0.1       0.1       0.0
 2 C  s               0.0       0.4       1.7       0.6       0.2       0.0
 2 C  pz              8.8      20.5       0.7       1.7       2.2       3.1
 2 C  px              3.2       0.1       0.7       9.6       1.9       0.2
 2 C  py              0.7       0.6       8.2       0.1       2.4       0.2
 2 C  dxz             0.0       0.1       0.0       0.1       0.0       0.3
 2 C  dxy             0.1       0.1       0.0       0.0       0.2       0.0
 3 O  s               0.0       0.5      11.5       0.6       2.0       0.1
 3 O  pz              3.2      12.0       1.3       1.9       5.1       4.8
 3 O  px              0.5       0.1       7.7       2.8       0.6       0.0
 3 O  py              0.3       3.0      35.4       5.5       8.1       1.5
 3 O  dyz             0.0       0.1       0.0       0.0       0.0       0.0
 3 O  dx2y2           0.0       0.0       0.1       0.1       0.0       0.0
 3 O  dxy             0.0       0.0       0.2       0.0       0.0       0.0
 4 N  s               0.1       0.2       0.0       0.1       0.1       0.1
 4 N  pz              4.8       6.9       1.1       6.1       2.0       5.4
 4 N  px              1.2       4.4       0.2       0.5       0.1       1.3
 4 N  py              0.2       1.0       1.0       0.4       0.0       0.2
 4 N  dx2y2           0.1       0.0       0.1       0.2       0.1       0.0
 5 H  s               2.5       1.3       5.3       0.2      11.7       7.1
 6 H  s               3.8       9.8       0.8       2.2       1.0      12.5
 7 H  s               3.9       0.5       4.5      15.6       3.6       0.0
 8 H  s               4.2       0.9       0.1       0.8       7.0       6.8
 9 H  s               9.7       0.3       0.1       0.5       2.5      14.4
10 H  s               0.3       0.1       1.0       0.7       0.4       0.1
11 H  s               1.3       0.7       0.4       1.6       0.1       0.1

                     18        19        20        21        22        23   
                  -0.22549  -0.19495   0.00307   0.02344   0.06482   0.07752
                   2.00000   2.00000   0.00000   0.00000   0.00000   0.00000
                  --------  --------  --------  --------  --------  --------
 0 C  s               0.0       0.1       2.9       0.5       9.5       6.2
 0 C  pz              0.0       0.1       0.1       0.6       0.2       0.2
 0 C  px              0.0       0.2       0.1       0.5       1.9       0.9
 0 C  py              0.1       0.2       1.2       0.3       0.3       1.5
 0 C  dxz             0.0       0.0       0.0       0.0       0.0       0.1
 0 C  dx2y2           0.0       0.1       0.1       0.1       0.1       0.2
 1 C  s               0.0       1.1       0.4       5.2       2.5       0.9
 1 C  pz              0.1       0.6       0.7       0.0       0.9       1.7
 1 C  px              0.0       6.9       0.2       0.5       0.9       1.4
 1 C  py              0.0       0.6       0.1       3.3       2.1       2.2
 1 C  dz2             0.0       0.0       0.7       0.0       0.0       0.0
 1 C  dxz             0.0       0.0       1.2       0.0       0.0       0.0
 1 C  dyz             0.0       0.0       0.0       0.0       0.1       0.0
 1 C  dx2y2           0.0       0.0       0.1       0.0       0.1       0.4
 1 C  dxy             0.0       0.0       0.2       0.0       0.2       0.0
 2 C  s               0.0       0.2       0.0       0.1       0.2       0.8
 2 C  pz              0.4       0.1      38.3       0.7       2.3       1.8
 2 C  px              0.1       0.9       3.2       0.7       0.5       0.1
 2 C  py              0.0       0.2       1.5       0.8       0.2       0.7
 2 C  dz2             0.3       0.0       0.0       0.2       0.0       0.1
 2 C  dxz             0.0       0.0       0.8       0.0       0.0       0.5
 2 C  dyz             2.1       0.6       0.4       0.0       0.0       0.0
 2 C  dx2y2           0.1       2.2       0.2       0.1       0.4       0.8
 2 C  dxy             0.2       2.4       0.0       0.1       0.2       0.3
 3 O  s               0.0       0.0       0.0       0.4       0.1       0.1
 3 O  pz             35.2       8.6      20.1       0.2       1.5       0.7
 3 O  px              3.5      58.3       2.0       0.3       0.9       0.1
 3 O  py              1.5       7.9       0.7       0.5       0.0       0.2
 3 O  dyz             0.0       0.0       0.4       0.0       0.0       0.0
 4 N  s               0.0       2.2       0.1      12.5       5.7       0.7
 4 N  pz             49.6       0.3      11.3       0.1       1.2       0.1
 4 N  px              4.4       0.6       1.0       0.2       3.7       7.2
 4 N  py              2.0       2.5       0.4       5.4       0.0       4.3
 4 N  dz2             0.0       0.0       0.2       0.0       0.1       0.0
 4 N  dxz             0.0       0.0       0.2       0.0       0.0       0.1
 4 N  dyz             0.0       0.0       0.3       0.0       0.0       0.0
 4 N  dx2y2           0.0       0.0       0.0       0.0       0.1       0.3
 4 N  dxy             0.0       0.0       0.1       0.1       0.0       0.0
 5 H  s               0.1       0.3       0.1       0.2       3.9       8.8
 6 H  s               0.0       0.1       1.1       1.7       6.2       3.6
 7 H  s               0.1       0.3       2.3       0.6      12.9       5.7
 8 H  s               0.0       0.9       0.1      14.6       8.6       3.9
 9 H  s               0.0       0.1       6.8       2.1       3.6       6.2
10 H  s               0.0       0.7       0.1      36.1       1.4      12.2
11 H  s               0.0       0.8       0.0      11.1      27.4      24.9

                     24        25        26        27        28        29   
                   0.09477   0.11843   0.12352   0.14367   0.18738   0.20559
                   0.00000   0.00000   0.00000   0.00000   0.00000   0.00000
                  --------  --------  --------  --------  --------  --------
 0 C  s               6.6       2.6       0.8       0.3       2.2       0.5
 0 C  pz              5.7       0.2      10.3       7.4       1.1       3.7
 0 C  px              0.8       1.9      11.1       5.4      11.2       3.4
 0 C  py              0.6       5.2       0.6       6.3       9.1       7.8
 0 C  dz2             0.5       0.2       0.4       0.4       0.1       0.0
 0 C  dxz             0.4       0.0       0.0       0.9       1.5       0.3
 0 C  dyz             0.1       0.0       0.5       0.0       0.1       2.0
 0 C  dx2y2           0.0       0.4       0.4       0.1       0.1       0.3
 0 C  dxy             0.0       0.1       0.0       0.1       3.6       0.8
 1 C  s               5.8       4.4       3.3       0.0       6.0       0.0
 1 C  pz              8.3       1.7       1.2       1.6      13.2       0.6
 1 C  px              0.9       0.5       0.1       0.5       0.1      28.0
 1 C  py              1.0       4.4       0.2       5.7       9.0       1.0
 1 C  dz2             0.6       0.4       0.0       0.0       0.7       0.3
 1 C  dxz             0.2       0.0       0.0       0.0       0.0       1.7
 1 C  dyz             0.2       0.0       0.4       0.2       2.7       0.1
 1 C  dx2y2           0.0       0.3       0.1       0.0       1.1       2.1
 1 C  dxy             0.1       0.0       0.1       0.9       0.2       3.4
 2 C  s               0.2       0.2       0.1       0.4      13.5      18.9
 2 C  pz              0.5       0.1       0.0       0.6       1.6       2.1
 2 C  px              0.3       0.9       0.7       0.9       1.4       3.3
 2 C  py              0.0       0.1       0.4       1.6       0.5       1.3
 2 C  dz2             0.0       0.0       0.1       0.0       2.7       2.5
 2 C  dxz             0.2       0.0       0.1       0.2       0.4       1.0
 2 C  dyz             0.0       0.0       0.0       0.1       0.8       0.1
 2 C  dx2y2           0.0       0.6       0.0       0.0       0.0       0.2
 2 C  dxy             0.0       0.1       0.1       0.2       0.0       0.8
 3 O  s               0.0       0.2       0.0       0.3       0.8       1.2
 3 O  pz              0.2       0.0       0.1       0.0       1.2       0.6
 3 O  px              0.0       0.1       0.0       1.2       1.0       0.6
 3 O  py              0.0       0.1       0.0       0.2       0.0       1.7
 3 O  dxy             0.0       0.0       0.0       0.0       0.1       0.3
 4 N  s               0.0       1.1       0.1       0.4       0.5       0.5
 4 N  pz              0.3       0.2       0.0       0.4       0.4       0.4
 4 N  px              0.2       3.7       0.3       0.8       1.8       0.8
 4 N  py              0.0       2.3       0.6       0.3       1.2       0.3
 4 N  dyz             0.0       0.1       0.0       0.0       0.0       0.2
 4 N  dx2y2           0.0       0.5       0.1       0.0       0.0       0.1
 4 N  dxy             0.0       0.0       0.0       0.0       0.6       0.5
 5 H  s               0.7      22.5       0.5      26.6       1.7       2.6
 6 H  s              28.7       0.3      12.1      13.4       0.1       0.6
 7 H  s               0.4       0.6      43.4       2.9       0.5       1.2
 8 H  s               0.3      23.2       1.4      12.9       1.5       0.0
 9 H  s              35.4       0.4       8.3       3.7       4.3       0.8
10 H  s               0.0      15.8       1.3       2.0       0.3       0.6
11 H  s               0.7       4.7       0.6       0.9       1.1       0.8

                     30        31        32        33        34        35   
                   0.25754   0.35088   0.39747   0.41008   0.44130   0.44411
                   0.00000   0.00000   0.00000   0.00000   0.00000   0.00000
                  --------  --------  --------  --------  --------  --------
 0 C  s               0.2       0.3       0.1       1.0       0.0       1.4
 0 C  pz              0.6       3.8      14.1       0.8       4.4      13.7
 0 C  px              1.7       2.2       1.7       0.9       4.6       9.9
 0 C  py              0.2       0.1       1.9      29.7       2.8       1.2
 0 C  dz2             0.3       0.7       3.2       3.2       0.6       1.6
 0 C  dxz             0.0       0.2       0.1       0.2       0.5       1.4
 0 C  dyz             0.0       0.1       1.5       1.1       0.8       0.1
 0 C  dx2y2           1.0       0.0       0.3       0.9       2.2       1.7
 0 C  dxy             0.0       0.5       0.0       2.2       0.0       0.0
 1 C  s               1.7       0.4       0.0       0.2       1.8       1.5
 1 C  pz              0.3       3.6       0.8       7.7       4.4       7.7
 1 C  px              7.9       2.7       2.5       5.1       5.1       0.5
 1 C  py              1.2       2.3       6.1       3.3       1.9       5.4
 1 C  dz2             0.1       2.8       0.3       2.8       0.0       0.3
 1 C  dxz             0.8       0.0       0.0       0.0       0.0       1.0
 1 C  dyz             0.0       0.1       1.2       0.6       0.7       2.4
 1 C  dx2y2           2.3       0.1       0.1       0.5       0.3       0.6
 1 C  dxy             0.2       2.5       0.0       1.2       0.1       0.0
 2 C  s              19.2       4.7      12.0       1.0      10.6       3.4
 2 C  pz              0.2       1.5       5.5       3.3       4.2      12.1
 2 C  px             10.3       8.2       5.3       0.4      19.8       1.7
 2 C  py             13.0      14.1       3.1       1.1       9.1       2.2
 2 C  dz2             1.4       0.8       0.2       0.2       0.2       0.0
 2 C  dxz             0.0       1.4       0.0       0.0       0.1       1.1
 2 C  dyz             0.1       0.7       0.2       0.1       0.0       0.0
 2 C  dx2y2           2.0       0.0       1.3       0.2       0.7       0.3
 2 C  dxy             1.5       3.2       0.2       0.2       0.0       0.0
 3 O  s               9.0       0.7       0.4       0.0       0.0       0.2
 3 O  pz              0.1       0.3       0.2       0.1       0.6       0.1
 3 O  px              0.3       4.1       0.8       0.0       1.0       0.5
 3 O  py              1.7       0.2       2.1       0.1       0.2       0.4
 3 O  dyz             0.0       0.0       0.2       0.0       0.0       0.1
 3 O  dx2y2           0.0       0.3       0.5       0.0       0.3       0.0
 3 O  dxy             0.0       0.4       0.0       0.0       0.0       0.1
 4 N  s               0.2       4.4       2.0       0.2       0.3       0.1
 4 N  pz              0.0       0.8       0.6       1.1       0.8       0.8
 4 N  px              0.2       2.3       2.9       0.1       2.6       0.2
 4 N  py              2.0       7.0       3.0       0.5       2.8       0.7
 4 N  dz2             0.0       0.0       0.8       0.0       0.2       0.7
 4 N  dxz             0.4       0.1       0.0       0.0       0.2       0.0
 4 N  dyz             0.0       0.3       0.9       0.1       0.8       0.0
 4 N  dx2y2           1.4       0.0       2.1       0.2       1.2       0.7
 4 N  dxy             0.5       1.6       1.5       0.1       2.0       0.3
 5 H  s               0.9       0.1       0.0      14.7       1.9       4.1
 6 H  s               0.9       3.7       9.1       4.1       1.4       3.9
 7 H  s               3.1       0.2       3.1       0.5       6.7       3.7
 8 H  s               3.6       7.9       2.5       1.3       0.5       2.4
 9 H  s               0.0       6.1       0.3       7.8       0.2       1.6
10 H  s               4.0       2.1       3.5       1.0       0.7       7.9
11 H  s               5.2       0.1       1.0       0.2       0.7       0.1

                     36        37        38        39        40        41   
                   0.48589   0.48782   0.54750   0.60919   0.61474   0.63754
                   0.00000   0.00000   0.00000   0.00000   0.00000   0.00000
                  --------  --------  --------  --------  --------  --------
 0 C  s               0.1       0.0       7.3       5.3       2.6       4.4
 0 C  pz              1.0       1.7       1.6       1.2       1.8       1.6
 0 C  px              0.3       2.1      14.3       1.7       1.6       0.9
 0 C  py              1.7       0.1       7.4       5.9       7.2       0.8
 0 C  dz2             0.2       0.8       0.0       0.0       0.1       0.1
 0 C  dxz             0.1       0.0       0.2       1.1       1.7       0.3
 0 C  dyz             0.0       0.1       0.2       0.4       0.0       0.0
 0 C  dx2y2           0.0       0.5       0.1       0.4       0.0       0.1
 0 C  dxy             0.2       0.1       0.0       0.0       0.0       0.1
 1 C  s               1.2       6.3       4.2       0.2       9.3       2.6
 1 C  pz              0.2       3.3       1.8       7.7       2.7      13.2
 1 C  px              0.8      22.5       0.6      27.3       3.1       2.0
 1 C  py              0.9       2.5       4.0       6.5       3.4       0.6
 1 C  dz2             0.1       0.1       0.0       0.0       1.7       0.0
 1 C  dxz             0.4       0.5       0.3       0.1       0.3       0.2
 1 C  dyz             0.0       0.3       0.1       0.0       0.0       0.0
 1 C  dx2y2           0.2       0.8       0.0       0.2       0.0       0.0
 1 C  dxy             0.1       0.1       0.2       0.0       0.0       0.0
 2 C  s               0.6       4.9       3.7       4.6       2.4       2.5
 2 C  pz             15.8      11.3      19.0       8.7       2.8       0.5
 2 C  px              0.5       4.9       2.2       2.2       1.5       7.9
 2 C  py              0.8       2.5       1.0       5.0      12.2      27.8
 2 C  dz2             0.0       0.6       0.2       0.5       0.0       0.9
 2 C  dxz             0.1       0.3       0.1       0.1       0.3       0.0
 2 C  dyz             0.0       0.0       0.1       0.1       0.0       0.0
 2 C  dx2y2           0.1       1.1       0.0       0.1       0.6       1.3
 2 C  dxy             0.1       0.4       0.3       0.7       0.5       1.2
 3 O  s               0.4       0.3       0.3       0.3       0.0       0.3
 3 O  pz              0.7       1.2       0.5       2.3       0.0       0.5
 3 O  px              0.2       2.8       0.6       0.8       0.4       1.7
 3 O  py              0.3       0.0       0.4       2.7       3.0       7.4
 3 O  dz2             0.0       0.0       0.1       0.5       0.5       1.2
 3 O  dx2y2           0.0       0.0       0.0       0.6       0.3       2.0
 3 O  dxy             0.0       0.2       0.3       0.7       0.4       2.1
 4 N  s               4.8       0.3       1.0       0.1       0.0       0.3
 4 N  pz              0.6       0.0       5.6       0.0       9.8       0.5
 4 N  px              3.2       0.2       1.2       0.2       0.2       1.2
 4 N  py              6.0       0.9       0.3       0.5       1.2       0.1
 4 N  dz2             3.1       0.8       0.3       0.1       0.1       0.0
 4 N  dxz             0.4       0.8       0.3       0.0       0.2       0.1
 4 N  dyz             0.0       0.2       0.0       0.1       0.0       0.0
 4 N  dx2y2           0.0       0.9       0.2       0.1       0.4       0.0
 4 N  dxy             4.5       0.4       0.2       0.1       0.2       0.3
 5 H  s               0.6       0.0       0.6       4.3       0.5       0.0
 6 H  s               0.3       1.4       1.9       3.5       2.0       3.6
 7 H  s               0.0       3.1       3.1       0.1       2.6       0.8
 8 H  s               0.7       6.1       2.4       0.1       1.6       0.3
 9 H  s               0.6       2.0       2.7       0.1      16.9       6.2
10 H  s              28.9       0.0       1.5       1.6       1.0       0.2
11 H  s              18.7      10.5       7.1       1.0       3.0       2.2

                     42        43        44        45        46        47   
                   0.64668   0.65934   0.66285   0.68118   0.68295   0.72196
                   0.00000   0.00000   0.00000   0.00000   0.00000   0.00000
                  --------  --------  --------  --------  --------  --------
 0 C  s               6.5       4.1      31.5       1.8       0.7       2.1
 0 C  pz              2.7       9.9       5.9       6.7      29.1       0.5
 0 C  px              2.3       0.4      15.7       5.3      19.0       1.8
 0 C  py              1.1       9.7       1.6      25.8       3.0       0.1
 0 C  dz2             0.0       1.4       0.1       0.1       0.5       0.0
 0 C  dxz             1.0       0.2       0.1       0.1       0.0       0.3
 0 C  dyz             0.1       0.1       0.0       0.1       0.0       0.0
 0 C  dx2y2           0.6       0.3       0.3       1.0       0.5       0.0
 0 C  dxy             0.3       0.0       0.0       0.0       0.0       0.0
 1 C  s              17.4       0.4       2.6       0.0       3.9       2.2
 1 C  pz              1.1      12.1       2.5       6.7      10.0       0.8
 1 C  px              9.5       0.5       0.6       0.2       2.1       2.7
 1 C  py              6.3      13.2      10.0      10.4       0.1       5.4
 1 C  dz2             0.7       0.2       0.0       0.4       0.0       0.2
 1 C  dxz             0.2       0.0       0.0       0.0       0.0       0.0
 1 C  dyz             0.4       0.0       0.0       0.0       0.2       0.1
 1 C  dx2y2           0.9       0.0       0.1       0.0       0.0       0.0
 1 C  dxy             0.1       0.1       0.0       0.0       0.0       0.1
 2 C  s               6.9       0.5       0.3       0.3       0.5       1.3
 2 C  pz              0.4       0.1       0.2       0.3       0.1       0.0
 2 C  px              7.9       2.3       1.3       2.5       0.4       6.8
 2 C  py              0.1       3.3       1.0       2.0       0.6       2.1
 2 C  dz2             0.2       0.3       0.2       0.0       0.2       0.0
 2 C  dxz             0.0       0.0       0.0       0.0       0.2       0.0
 2 C  dxy             0.0       0.1       0.1       0.2       0.0       0.1
 3 O  s               0.1       0.6       0.1       0.3       0.1       2.0
 3 O  px              0.9       2.0       0.2       0.6       0.0       5.2
 3 O  py              0.2       1.4       0.6       0.3       0.2       2.0
 3 O  dz2             0.1       0.3       0.0       0.0       0.0       0.0
 3 O  dx2y2           0.0       0.2       0.0       0.0       0.0       0.3
 3 O  dxy             0.1       0.2       0.1       0.0       0.1       0.1
 4 N  s               3.3       0.1       0.0       0.4       0.5       0.2
 4 N  pz              2.9       0.1       0.7       0.0       0.1       7.8
 4 N  px              0.3       1.5       0.1       1.1       0.1       9.5
 4 N  py              0.5       0.2       0.3       1.2       0.0       8.7
 4 N  dxz             0.1       0.0       0.0       0.1       0.0       0.3
 4 N  dyz             0.0       0.1       0.0       0.0       0.1       0.0
 4 N  dx2y2           0.3       0.1       0.0       0.1       0.0       1.4
 5 H  s               1.0      14.0       0.1      14.0       3.3       1.7
 6 H  s               0.6       3.5       6.1       2.2      13.0       3.9
 7 H  s               6.7       4.1       8.3       5.0       9.3       3.1
 8 H  s              12.6       4.0       5.5       4.9       0.6       1.5
 9 H  s               0.6       6.2       3.3       3.0       1.2       2.1
10 H  s               0.0       0.4       0.0       1.4       0.0      10.7
11 H  s               3.1       1.8       0.2       1.3       0.1      12.5

                     48        49        50        51        52        53   
                   0.72805   0.74330   0.80992   0.86465   0.89303   0.94809
                   0.00000   0.00000   0.00000   0.00000   0.00000   0.00000
                  --------  --------  --------  --------  --------  --------
 0 C  s               3.8       4.2       0.5       9.4       4.1      13.3
 0 C  pz              0.0       2.2       1.5       0.1       0.6       2.2
 0 C  px              0.9       0.2       1.0       2.9       0.9       5.4
 0 C  py              0.3       1.5       0.1       1.2       0.4       0.0
 0 C  dz2             0.0       0.2       0.1       0.0       0.2       0.0
 0 C  dxz             0.1       0.6       0.0       0.7       0.0       0.1
 0 C  dyz             0.2       0.3       0.5       0.0       0.0       1.3
 0 C  dx2y2           0.1       0.2       0.1       0.0       0.1       0.2
 0 C  dxy             0.1       2.1       0.8       0.5       0.1       1.6
 1 C  s               0.0       5.2       4.3       2.0      18.1       0.1
 1 C  pz              4.9       6.8       0.6       0.8       0.6       0.9
 1 C  px              0.5       0.0       1.4       0.8       0.4       0.0
 1 C  py              0.0      12.0       0.4       1.5       0.7       4.7
 1 C  dz2             0.0       2.4       0.9       0.4       0.2       1.2
 1 C  dxz             0.0       0.0       0.2       0.2       0.2       0.2
 1 C  dyz             0.0       0.7       0.1       0.9       0.2       1.0
 1 C  dx2y2           0.0       0.8       0.0       0.0       0.0       0.1
 1 C  dxy             0.0       0.1       0.0       0.2       0.0       0.4
 2 C  s               0.5       0.2       3.9       3.3       4.9       4.1
 2 C  pz              5.1       3.4       0.5       1.2       0.5       0.7
 2 C  px              0.4       3.4       0.7       4.3       0.5       5.4
 2 C  py              2.4       7.8       0.1       0.3       0.2       4.3
 2 C  dz2             0.1       0.5       0.0       0.4       1.1       1.9
 2 C  dxz             0.0       0.2       0.0       0.0       0.4       0.0
 2 C  dyz             0.0       0.1       0.1       0.1       0.4       0.5
 2 C  dx2y2           0.0       0.1       0.6       0.8       0.3       0.4
 2 C  dxy             0.0       0.0       0.5       1.2       0.3       0.7
 3 O  s               0.8       5.3       0.1       1.9       5.6       1.3
 3 O  pz              2.0       1.4       0.1       0.8       4.1       3.1
 3 O  px              0.3       1.1       0.3       0.8       0.1       7.4
 3 O  py              0.6       7.1       3.7      20.1       0.7      22.5
 3 O  dz2             0.0       0.0       0.0       0.0       0.1       0.9
 3 O  dxz             0.0       0.0       0.0       0.0       0.2       0.0
 3 O  dyz             0.0       0.0       0.1       0.0       0.1       0.1
 3 O  dx2y2           0.0       0.0       0.0       0.3       0.0       0.9
 3 O  dxy             0.0       0.1       0.3       0.5       0.2       0.3
 4 N  s               0.5       6.4       6.8       0.3      37.2       0.3
 4 N  pz             50.6       1.1       3.3       9.4       0.3       2.2
 4 N  px             12.6       6.2      11.8      15.3       0.9       0.9
 4 N  py              0.6       0.3      43.3       2.3       0.4       0.0
 4 N  dz2             0.2       0.1       0.0       0.1       0.6       0.3
 4 N  dxz             0.0       0.2       0.0       0.0       0.6       0.3
 4 N  dyz             0.2       0.3       0.1       0.5       0.2       0.2
 4 N  dx2y2           0.3       0.0       0.1       0.8       0.0       0.0
 4 N  dxy             0.2       0.1       1.2       0.0       0.0       0.0
 5 H  s               1.0       3.1       0.0       7.0       1.1       1.0
 6 H  s               1.4       0.5       0.3       2.6       0.5       5.8
 7 H  s               2.7       2.2       0.3       1.7       1.5       0.7
 8 H  s               0.4       7.0       0.5       0.9       5.9       1.1
 9 H  s               0.7       0.2       2.1       0.1       3.5       0.2
10 H  s               3.5       0.5       5.6       0.5       0.8       0.0
11 H  s               2.0       1.6       0.8       0.9       0.3       0.0

                     54        55        56        57        58        59   
                   1.01840   1.05931   1.16253   1.27537   1.33230   1.47011
                   0.00000   0.00000   0.00000   0.00000   0.00000   0.00000
                  --------  --------  --------  --------  --------  --------
 0 C  s               3.1       5.7       0.3       0.0       0.6       0.1
 0 C  pz              0.5       0.0       0.0       0.4       0.0       0.1
 0 C  px              0.7       0.2       0.1       0.2       1.1       0.7
 0 C  py              0.1       0.3       0.1       0.0       0.5       0.1
 0 C  dz2             0.1       0.0       0.0       0.2       0.1       2.9
 0 C  dxz             0.0       0.1       0.1       1.1       7.6       0.4
 0 C  dyz             0.1       0.0       0.0       0.6       5.8      11.5
 0 C  dx2y2           0.2       0.1       0.4       0.0       6.5       0.6
 0 C  dxy             0.1       0.1       0.6       1.2       0.2       4.8
 1 C  s              15.1       4.9       4.0       3.8       0.1       1.8
 1 C  pz              1.0       0.6       0.2       0.0       0.3       0.3
 1 C  px              0.2       0.3       0.5       0.4       0.0       0.5
 1 C  py              1.7       0.2       0.1       0.0       0.1       0.7
 1 C  dz2             0.2       0.0       0.1       0.8       0.3       0.7
 1 C  dxz             0.0       0.5       0.3       2.6      15.2       5.5
 1 C  dyz             0.1       0.3       0.0       0.1      11.4       3.4
 1 C  dx2y2           0.1       0.4       0.6       0.3       9.5       0.6
 1 C  dxy             0.0       0.1       0.1       1.2       0.0      10.9
 2 C  s               0.8       0.2       0.5       0.8       0.4       0.8
 2 C  pz              1.1       3.2       0.4       0.8       0.3       0.2
 2 C  px              0.3       0.1       0.6      18.1       0.3       4.5
 2 C  py              1.2       0.0       2.3       1.4       0.1       0.4
 2 C  dz2             0.2       0.1       0.1       1.0       5.1       0.4
 2 C  dxz             0.2       0.3       0.3       0.3      21.5       0.8
 2 C  dyz             0.7       0.1       0.0       0.0       0.0       0.1
 2 C  dx2y2           0.8       0.0       0.0       0.4       0.8       2.0
 2 C  dxy             0.4       0.1       0.7       0.1       1.4       0.1
 3 O  s               0.6       0.2       2.0       0.9       0.8      29.1
 3 O  pz              1.3      74.4       3.3       0.6       0.6       0.0
 3 O  px             25.6       1.6      23.1      20.4       0.0       0.0
 3 O  py              1.8       0.5      23.0       1.8       0.7       0.8
 3 O  dz2             0.0       0.0       0.1       0.2       0.2       0.5
 3 O  dxz             0.0       0.3       0.0       0.1       0.0       0.0
 3 O  dyz             0.0       0.7       0.3       0.0       0.7       0.4
 3 O  dx2y2           0.0       0.0       1.6       0.8       0.0       1.9
 3 O  dxy             0.5       0.0       0.2       1.4       0.0       1.0
 4 N  s              20.9       0.1       5.9       6.9       0.0       0.6
 4 N  pz              0.2       0.2       0.3       0.1       0.3       0.2
 4 N  px              4.6       0.0      15.3       6.0       0.6       5.8
 4 N  py              3.9       0.2       5.9      16.7       0.9       0.6
 4 N  dz2             2.8       0.0       0.4       0.2       0.9       0.1
 4 N  dxz             0.4       0.1       0.2       1.5       0.1       0.1
 4 N  dyz             0.3       0.1       0.0       0.9       3.1       0.5
 4 N  dx2y2           0.1       0.0       2.4       1.4       0.0       2.1
 4 N  dxy             1.4       0.0       0.0       0.7       0.5       0.4
 5 H  s               0.4       0.5       0.9       0.1       0.5       0.2
 6 H  s               0.1       0.6       0.0       0.2       0.0       0.1
 7 H  s               0.6       0.9       0.2       0.4       0.2       0.1
 8 H  s               1.2       1.0       0.0       0.2       0.1       0.1
 9 H  s               4.1       0.7       0.3       0.0       0.3       0.2
10 H  s               0.2       0.0       1.5       1.5       0.2       0.1
11 H  s               0.3       0.0       0.9       1.1       0.1       0.2

                     60        61        62        63        64        65   
                   1.49958   1.61999   1.67431   1.75360   1.83653   1.85454
                   0.00000   0.00000   0.00000   0.00000   0.00000   0.00000
                  --------  --------  --------  --------  --------  --------
 0 C  s               1.3       0.1       0.7       0.1       1.4       0.0
 0 C  pz              0.0       0.2       0.2       0.0       1.0       1.2
 0 C  px              0.2       0.1       1.4       0.0       0.6       0.0
 0 C  py              0.0       0.0       0.1       0.7       0.9       0.3
 0 C  dz2             0.2       2.1       0.1       0.0       2.9       0.0
 0 C  dxz             0.0       0.3      17.1       5.1       4.1       4.7
 0 C  dyz             0.0       8.7       0.5       6.1      17.8       8.4
 0 C  dx2y2           0.4       0.6       7.7       9.3       0.2       0.0
 0 C  dxy             1.5       5.3       0.5       5.5       7.7      12.8
 1 C  s               0.2       0.9       0.1       0.7       2.6       0.2
 1 C  pz              0.0       0.6       1.3       2.2       1.2       2.3
 1 C  px              0.1       0.9       3.6       2.0       0.1       0.2
 1 C  py              0.3       0.8       1.1       0.7       2.0       1.5
 1 C  dz2             0.1       0.5       0.1       2.9       4.4       1.5
 1 C  dxz             2.8       1.4       0.6       6.7       2.2       6.8
 1 C  dyz             0.1       5.9       0.6       0.1      30.2       0.4
 1 C  dx2y2           0.2       2.8       4.9       2.9       2.7       3.9
 1 C  dxy             0.0       4.0      18.3       3.6       2.9       7.1
 2 C  s               0.1       0.2       1.4       1.6       0.1       0.4
[...]
 0 C  px              0.0       0.0       0.1       0.1       1.8       0.0
 0 C  py              0.2       0.1       0.0       0.2       1.4       0.0
 0 C  dz2             6.6       0.0       0.0       0.1       1.3       0.2
 0 C  dxz             0.0       0.7       0.2       1.5       6.6       0.0
 0 C  dyz             1.1       3.6       0.0       2.7       4.8       0.0
 0 C  dx2y2           8.1       7.1       1.8       0.6       0.1       0.2
 0 C  dxy             2.1       0.4       0.0       1.7      13.8       0.1
 1 C  s               0.2       1.2       0.0       1.0       0.4       0.1
 1 C  pz              0.9       0.2       0.1       0.2       0.4       0.0
 1 C  px              0.1       0.5       0.0       0.0       3.5       0.2
 1 C  py              0.5       0.3       0.0       0.6       0.7       0.2
 1 C  dz2             5.6      11.1       0.0       1.7       0.0       0.7
 1 C  dxz             0.0       0.0       0.7       0.5      13.2       0.7
 1 C  dyz             8.5       0.4       0.8       1.5       5.3       0.4
 1 C  dx2y2           0.3      26.2       0.4       4.5       4.1       0.7
 1 C  dxy             4.0       0.1       0.0       1.9      16.2       0.1
 2 C  s               0.1       1.8       0.0       0.3       1.7       0.0
 2 C  pz              0.1       0.6       0.7       0.1       0.0       0.0
 2 C  px              1.0       1.3       0.0       0.4       1.4       0.2
 2 C  py              0.2       0.4       0.0       0.1       0.2       0.0
 2 C  dz2             0.3       0.6       5.6       2.5       2.3       6.1
 2 C  dxz             1.1       2.0       4.2       1.8       0.4       0.4
 2 C  dyz             0.3       1.2       4.0       0.0       0.1       0.2
 2 C  dx2y2           8.1       2.0       0.1       0.1       1.0       0.7
 2 C  dxy             6.7       0.8       1.5       1.9       0.6       2.0
 3 O  s               2.9       0.3       0.0       0.5       0.1       0.8
 3 O  pz              0.1       0.1       0.1       0.1       0.0       0.0
 3 O  px              0.2       0.1       0.0       0.1       0.0       0.1
 3 O  py              1.9       0.0       0.0       0.8       0.2       0.7
 3 O  dz2             0.0       0.0       6.9       0.7       3.1      32.5
 3 O  dxz             0.3       0.0      17.3       1.3       2.9      18.0
 3 O  dyz             0.1       3.6       0.0       4.3       0.1       4.4
 3 O  dx2y2           1.0       0.7       1.7       1.7       0.3      10.5
 3 O  dxy             0.0       0.7       1.4       3.1       1.7       8.7
 4 N  s               0.1       0.7       0.0       1.8       0.1       0.0
 4 N  pz              0.3       0.1       0.7       0.0       0.1       0.0
 4 N  px              3.5       0.0       0.2       0.0       0.4       0.2
 4 N  py              1.1       0.6       0.1       0.7       0.2       0.1
 4 N  dz2             1.9      16.8       8.8      27.2       2.8       0.5
 4 N  dxz             1.6       0.0       9.3       2.8       0.5       1.6
 4 N  dyz             2.4       0.2      24.1       0.5       0.0       0.0
 4 N  dx2y2          17.0       0.1       0.1       2.8       2.3       7.0
 4 N  dxy             0.0       8.7       8.3      18.2       0.0       0.4
 5 H  s               0.4       0.1       0.2       0.0       0.2       0.0
 6 H  s               0.8       0.0       0.0       0.1       0.1       0.0
 7 H  s               0.8       0.4       0.1       0.1       0.3       0.0
 8 H  s               0.1       0.5       0.0       0.4       0.0       0.0
 9 H  s               1.1       0.8       0.0       0.1       0.1       0.1
10 H  s               1.7       2.0       0.0       5.2       0.0       0.1
11 H  s               4.3       0.7       0.1       0.8       0.9       0.8

                     78        79        80        81        82        83   
                   2.68717   2.76150   2.90690   3.09498   3.36103   3.54153
                   0.00000   0.00000   0.00000   0.00000   0.00000   0.00000
                  --------  --------  --------  --------  --------  --------
 0 C  dz2             0.0       0.0       0.2       0.0       0.0       0.0
 0 C  dxz             0.0       0.1       0.1       0.0       0.0       0.0
 0 C  dyz             0.1       0.3       0.2       0.1       0.0       0.0
 0 C  dx2y2           0.3       0.0       0.1       0.0       0.0       0.0
 0 C  dxy             0.0       0.1       0.2       0.0       0.0       0.0
 1 C  s               0.0       0.1       0.2       0.0       0.2       0.0
 1 C  px              0.0       0.3       0.2       0.0       0.5       0.0
 1 C  dz2             0.5       0.0       0.1       0.3       0.1       0.0
 1 C  dxz             0.9       0.0       0.0       0.4       0.5       0.0
 1 C  dyz             0.5       0.0       0.1       0.1       0.0       0.0
 1 C  dx2y2           0.5       0.0       0.1       0.0       2.1       0.0
 1 C  dxy             0.0       3.5       4.9       0.2       0.0       0.2
 2 C  s               0.0       2.3       3.2       0.0       0.0       6.6
 2 C  pz              0.1       0.6       0.2       0.8       0.0       0.0
 2 C  px              0.0       2.3       0.7       0.1       0.3       1.0
 2 C  py              0.0       2.8       0.8       0.0       0.3       6.1
 2 C  dz2             2.9       2.2       0.7       0.4       0.0       1.0
 2 C  dxz             7.1       0.0       4.2       2.1       0.2       0.1
 2 C  dyz             1.5       0.3       0.7      14.7       3.3       0.1
 2 C  dx2y2           0.4       4.3       6.8       1.6      13.5       3.6
 2 C  dxy             1.3       1.4      11.7       0.6      12.2       1.8
 3 O  s               0.0       1.6       1.1       0.0       0.1       6.1
 3 O  pz              0.0       0.0       0.0       1.1       0.2       0.0
 3 O  px              0.0       0.8       0.1       0.1       0.9       0.8
 3 O  py              0.0       0.7       0.9       0.1       0.4       3.4
 3 O  dz2            18.3       3.0       7.7       0.9       0.0      15.6
 3 O  dxz            39.2       1.6       1.9      11.9       0.3       0.2
 3 O  dyz             8.4       0.1       1.8      53.8       6.3       0.4
 3 O  dx2y2           1.0       5.6       0.1       6.4      28.9      20.4
 3 O  dxy             4.4       6.6       0.0       2.3      19.0      30.6
 4 N  s               0.0       4.9       1.3       0.0       0.4       0.0
 4 N  pz              0.2       0.3       0.2       0.0       0.1       0.0
 4 N  px              0.0       0.5       1.4       0.0       0.5       0.0
 4 N  py              0.0       3.2       0.9       0.0       0.5       0.1
 4 N  dz2             3.6       6.4       3.0       0.6       0.1       0.0
 4 N  dxz             1.0      10.3       0.0       1.0       1.2       0.1
 4 N  dyz             6.0       6.1       6.2       0.1       0.4       0.0
 4 N  dx2y2           0.0       1.7      30.8       0.0       1.5       1.1
 4 N  dxy             1.5      24.5       4.3       0.2       5.4       0.1
10 H  s               0.0       0.6       1.2       0.0       0.3       0.0
11 H  s               0.0       0.6       1.7       0.0       0.1       0.0



                      *****************************
                      * MAYER POPULATION ANALYSIS *
                      *****************************

  NA   - Mulliken gross atomic population
  ZA   - Total nuclear charge
  QA   - Mulliken gross atomic charge
  VA   - Mayer's total valence
  BVA  - Mayer's bonded valence
  FA   - Mayer's free valence

  ATOM       NA         ZA         QA         VA         BVA        FA
  0 C      6.2887     6.0000    -0.2887     4.0323     4.0323     0.0000
  1 C      6.1966     6.0000    -0.1966     3.9604     3.9604     0.0000
  2 C      5.9592     6.0000     0.0408     4.4650     4.4650    -0.0000
  3 O      8.2034     8.0000    -0.2034     2.3125     2.3125    -0.0000
  4 N      7.3267     7.0000    -0.3267     3.1066     3.1066    -0.0000
  5 H      0.8728     1.0000     0.1272     0.9741     0.9741     0.0000
  6 H      0.8966     1.0000     0.1034     0.9511     0.9511     0.0000
  7 H      0.8958     1.0000     0.1042     0.9478     0.9478    -0.0000
  8 H      0.9283     1.0000     0.0717     0.9569     0.9569     0.0000
  9 H      0.8850     1.0000     0.1150     0.9505     0.9505     0.0000
 10 H      0.7747     1.0000     0.2253     0.9260     0.9260    -0.0000
 11 H      0.7720     1.0000     0.2280     0.9447     0.9447     0.0000

  Mayer bond orders larger than 0.100000
B(  0-C ,  1-C ) :   1.1464 B(  0-C ,  5-H ) :   0.9456 B(  0-C ,  6-H ) :   0.9585 
B(  0-C ,  7-H ) :   0.9529 B(  1-C ,  2-C ) :   0.9881 B(  1-C ,  8-H ) :   0.9199 
B(  1-C ,  9-H ) :   0.9014 B(  2-C ,  3-O ) :   2.1114 B(  2-C ,  4-N ) :   1.2628 
B(  4-N , 10-H ) :   0.8720 B(  4-N , 11-H ) :   0.8706 

-------
TIMINGS
-------

Total SCF time: 0 days 0 hours 0 min 10 sec 

Total time                  ....      10.387 sec
Sum of individual times     ....      10.351 sec  ( 99.7%)

SCF preparation             ....       1.798 sec  ( 17.3%)
Fock matrix formation       ....       4.481 sec  ( 43.1%)
  Startup                   ....       0.080 sec  (  1.8% of F)
  Split-RI-J                ....       0.398 sec  (  8.9% of F)
  XC integration            ....       3.931 sec  ( 87.7% of F)
    Basis function eval.    ....       0.304 sec  (  7.7% of XC)
    Density eval.           ....       0.125 sec  (  3.2% of XC)
    XC-Functional eval.     ....       0.077 sec  (  2.0% of XC)
    XC-Potential eval.      ....       0.137 sec  (  3.5% of XC)
Diagonalization             ....       0.000 sec  (  0.0%)
Density matrix formation    ....       0.026 sec  (  0.2%)
Total Energy calculation    ....       0.001 sec  (  0.0%)
Population analysis         ....       3.788 sec  ( 36.5%)
Orbital Transformation      ....       0.010 sec  (  0.1%)
Orbital Orthonormalization  ....       0.000 sec  (  0.0%)
DIIS solution               ....       0.235 sec  (  2.3%)
  MO trafo                  ....       0.000 sec  (  0.0 % of DIIS)
  Orb grad                  ....       0.000 sec  (  0.0 % of DIIS)
  Energy W gradient         ....       0.000 sec  (  0.0 % of DIIS)
  DIIS error                ....       0.001 sec  (  0.3 % of DIIS)
  DIIS work                 ....       0.229 sec  ( 97.4 % of DIIS)
  Form Q                    ....       0.000 sec  (  0.0 % of DIIS)
  Form QpQm                 ....       0.000 sec  (  0.0 % of DIIS)
  Exp/Cayley                ....       0.000 sec  (  0.0 % of DIIS)
  Orb update                ....       0.000 sec  (  0.0 % of DIIS)
  Wake-sleep                ....       0.001 sec  (  0.3 % of DIIS)
SOSCF solution              ....       0.012 sec  (  0.1%)
  MO trafo                  ....       0.007 sec  ( 61.6 % of SOSCF)
  Orb grad                  ....       0.000 sec  (  0.9 % of SOSCF)
  Rot update                ....       0.001 sec  ( 12.4 % of SOSCF)
  Step                      ....       0.003 sec  ( 24.8 % of SOSCF)
Finished LeanSCF after  14.4 sec

Maximum memory used throughout the entire LEANSCF-calculation: 8.3 MB


-------------------------------------------------------------------------------
                          DFT DISPERSION CORRECTION                            
                                                                               
                                DFTD4 V3.4.0                                   
-------------------------------------------------------------------------------
The PBE functional is recognized
Active option DFTDOPT                   ...         5   

-------------------------   ----------------
Dispersion correction           -0.007432106
-------------------------   ----------------

------------------   -----------------
gCP correction             0.053361207
------------------   -----------------

-------------------------   --------------------
FINAL SINGLE POINT ENERGY      -247.973834039223
-------------------------   --------------------


------------------------------------------------------------------------------
                              ORCA PROPERTY CALCULATIONS
------------------------------------------------------------------------------

GBWName                                 ... sp.gbw
Number of atoms                         ...     12
Number of basis functions               ...     84
Max core memory                         ...   1024 MB

Electric properties:
Dipole moment                           ... YES
Quadrupole moment                       ...  NO
Static polarizability (Dipole/Dipole)   ...  NO
Static polarizability (Dipole/Quad.)    ...  NO
Static polarizability (Quad./Quad.)     ...  NO
Static polarizability (Velocity)        ...  NO

Atomic electric properties:
Dipole moment                           ...  NO
Quadrupole moment                       ...  NO
Static polarizability                   ...  NO

Choice of electric origin               ... Center of mass
Position of electric origin             ...    -0.000015     0.000025     0.000006

General magnetic properties:
Magnetizability                         ...  NO

EPR properties:
g-Tensor (aka g-matrix)                 ...  NO
Zero-Field splitting spin-orbit         ...  NO
Zero-field splitting spin-spin          ...  NO
Hyperfine couplings                     ...  NO (   0 nuclei)
Quadrupole couplings                    ...  NO (   0 nuclei)
Contact density                         ...  NO (   0 nuclei)

NMR properties:
Chemical shifts                         ...  NO (   0 nuclei)
Spin-rotation constants                 ...  NO (   0 nuclei)
Spin-spin couplings                     ...  NO (   0 nuclei,    0 pairs)

Choice of magnetic origin               ... GIAO
Position of magnetic origin             ...     0.000000     0.000000     0.000000

Properties with geometric perturbations:
SCF Hessian                             ...  NO
IR spectrum                             ...  NO
VCD spectrum                            ...  NO
X-ray spectroscopy properties:
SCF XES/XAS/RIXS spectra                ...  NO


-------------
DIPOLE MOMENT
-------------

Method             : SCF
Type of density    : Electron Density
Multiplicity       :   1
Irrep              :   0
Energy             :  -248.0197631397963391 Eh
Relativity type    : 
Basis              : AO
                                X                 Y                 Z
Electronic contribution:      4.926389143      -0.780912317      -0.339571975
Nuclear contribution   :     -5.097280954       2.133128876       0.548346764
                        -----------------------------------------
Total Dipole Moment    :     -0.170891811       1.352216560       0.208774789
                        -----------------------------------------
Magnitude (a.u.)       :      1.378869300
Magnitude (Debye)      :      3.504807230



--------------------
Rotational spectrum 
--------------------
 
Rotational constants in cm-1:             0.300896             0.129188             0.100684 
Rotational constants in MHz :          9020.650071          3872.968139          3018.438134 

Dipole components along the rotational axes: 
x,y,z [a.u.] :     0.198780    -1.362324     0.076414 
x,y,z [Debye]:     0.505259    -3.462753     0.194229 

 

Dipole moment calculation done in   1.1 sec 

Maximum memory used throughout the entire PROP-calculation: 5.5 MB

--------------------------------
SUGGESTED CITATIONS FOR THIS RUN
--------------------------------

Below you find a list of papers that are relevant to this ORCA run
We neither can nor want to force you to cite these papers, but we appreciate if you do
You receive ORCA, which is the product of decades of hard work by many enthusiastic individuals, for free
The only thing we kindly ask in return is that you cite our papers,
We deeply appreciate it, if you show your appreciation for ORCA by not just citing the generic ORCA reference.

Please note that relegating all ORCA citations to the supporting information does *not* help us.
SI sections are not indexed - citations you put there will not count into any citation statistics
But we need these citations in order to attract the funding resources that allow us to do what we are doing

Therefore, if you are a happy ORCA user, please consider citing a few of the papers listed below in the main body of your paper

In addition to the list printed below, the program has created the file sp.bibtex that contains the list in bibtex format
You can import this file easily into all common literature databanks and citation aid programs


List of essential papers. We consider these as the minimum necessary citations

  1. Neese,F.
     Software update: the ORCA program system, version 5.0
     WIRES Comput. Molec. Sci., 2022 12(1)e1606
     doi.org/10.1002/wcms.1606

List of papers to cite with high priority. The work reported in these papers was absolutely
necessary for this run to complete.
Our perspective: the developers of density functionals and basis sets usually get cited in chemistry papers
Good! But without the algorithms to do something with them, the functionals or basis sets would not do anything.
Hence, in our opinion, the algorithm design and method developments papers are equally worthy of getting cited

  1. Neese,F.
     An improvement of the resolution of the identity approximation for the formation of the Coulomb matrix
     J. Comp. Chem., 2003 24(14)1740-1747
     doi.org/10.1002/jcc.10318
  2. Neese,F.
     The SHARK Integral Generation and Digestion System
     J. Comp. Chem., 2022  1-16
     doi.org/10.1002/jcc.26942
  3. Caldeweyher,E.; Bannwarth,C.; Grimme,S.
     Extension of the D3 dispersion coefficient model
     J. Chem. Phys., 2017 147 034112
     doi.org/10.1063/1.4993215
  4. Caldeweyher,E.; Ehlert,S.; Hansen,A.; Neugebauer,H.; Spicher,S.; Bannwarth,C.; Grimme,S.
     A generally applicable atomic-charge dependent London dispersion correction
     J. Chem. Phys., 2019 150 154122
     doi.org/10.1063/1.5090222
  5. Caldeweyher,E.; Mewes,J.; Ehlert,S.; Grimme,S.
     Extension and evaluation of the D4 London-dispersion model for periodic systems
     Phys. Chem. Chem. Phys., 2020 22(16)8499-8512
     doi.org/10.1039/D0CP00502A
  6. Wittmann,L.; Gordiy,I.; Friede,M.; Helmich-Paris,B.; Grimme,S.; Hansen,A.; Bursch,M.
     Extension of the D3 and D4 London Dispersion Corrections to the full Actinides Series
     Phys. Chem. Chem. Phys., 2024 26(32)21379-21394
     doi.org/https://doi.org/10.1039/D4CP01514B 

List of suggested additional citations. These are papers that are important in the 'surrounding' of 
of this run, or papers that preceded the highly important papers. If you like your results we are grateful for a citation.

  1. Neese,F.
     The ORCA program system
     WIRES Comput. Molec. Sci., 2012 2(1)73-78
     doi.org/10.1002/wcms.81
  2. Neese,F.
     Software update: the ORCA program system, version 4.0
     WIRES Comput. Molec. Sci., 2018 8(1)1-6
     doi.org/10.1002/wcms.1327
  3. Neese,F.; Wennmohs,F.; Becker,U.; Riplinger,C.
     The ORCA quantum chemistry program package
     J. Chem. Phys., 2020 152 Art. No. L224108
     doi.org/10.1063/5.0004608

List of optional additional citations

  1. Neese,F.
     Approximate second-order SCF convergence for spin unrestricted wavefunctions
     Chem. Phys. Lett., 2000 325(1-3)93-98
     doi.org/10.1016/s0009-2614(00)00662-x

Timings for individual modules:

Sum of individual times          ...       16.227 sec (=   0.270 min)
Startup calculation              ...        0.348 sec (=   0.006 min)   2.1 %
SCF iterations                   ...       14.730 sec (=   0.246 min)  90.8 %
Property calculations            ...        1.149 sec (=   0.019 min)   7.1 %
                             ****ORCA TERMINATED NORMALLY****
TOTAL RUN TIME: 0 days 0 hours 0 minutes 20 seconds 145 msec
