
                                 *****************
                                 * O   R   C   A *
                                 *****************

                                            #,                                       
                                            ###                                      
                                            ####                                     
                                            #####                                    
                                            ######                                   
                                           ########,                                 
                                     ,,################,,,,,                         
                               ,,#################################,,                 
                          ,,##########################################,,             
                       ,#########################################, ''#####,          
                    ,#############################################,,   '####,        
                  ,##################################################,,,,####,       
                ,###########''''           ''''###############################       
              ,#####''   ,,,,##########,,,,          '''####'''          '####       
            ,##' ,,,,###########################,,,                        '##       
           ' ,,###''''                  '''############,,,                           
         ,,##''                                '''############,,,,        ,,,,,,###''
      ,#''                                            '''#######################'''  
     '                                                          ''''####''''         
             ,#######,   #######,   ,#######,      ##                                
            ,#'     '#,  ##    ##  ,#'     '#,    #''#        ,####,   ,####,        
            ##       ##  ##   ,#'  ##            #'  '#       #'       #'  '#        
            ##       ##  #######   ##           ,######,      #####,   #    #        
            '#,     ,#'  ##    ##  '#,     ,#' ,#      #,     #,   #   #,  ,#        
             '#######'   ##     ##  '#######'  #'      '#     '####' # '####'        



                #########################################################
                #                        -***-                          #
                #          Department of theory and spectroscopy        #
                #                                                       #
                #                      Frank Neese                      #
                #                                                       #
                #     Directorship, Architecture, Infrastructure        #
                #                    SHARK, DRIVERS                     #
                #        Core code/Algorithms in most modules           #
                #                                                       #
                #        Max Planck Institute fuer Kohlenforschung      #
                #                Kaiser Wilhelm Platz 1                 #
                #                 D-45470 Muelheim/Ruhr                 #
                #                      Germany                          #
                #                                                       #
                #                  All rights reserved                  #
                #                        -***-                          #
                #########################################################


                         Program Version 6.0.1  -  RELEASE   -


 With contributions from (in alphabetic order):
[Max-Planck-Institut fuer Kohlenforschung]                               
  Daniel Aravena         : Magnetic Suceptibility                        
  Michael Atanasov       : Ab Initio Ligand Field Theory (pilot matlab implementation)
  Alexander A. Auer      : GIAO ZORA, VPT2 properties, NMR spectrum      
  Ute Becker             : All parallelization in ORCA, NUMFREQ, NUMCALC 
  Giovanni Bistoni       : ED, misc. LED, open-shell LED, HFLD           
  Martin Brehm           : Molecular dynamics                            
  Dmytro Bykov           : pre 5.0 version of the SCF Hessian            
  Marcos Casanova-Páez   : Triplet and SCS-CIS(D). UHF-(DLPNO)-IP/EA/STEOM-CCSD. UHF-CVS-IP/STEOM-CCSD   
  Vijay G. Chilkuri      : MRCI spin determinant printing, contributions to CSF-ICE 
  Pauline Colinet        : FMM embedding                                 
  Dipayan Datta          : RHF DLPNO-CCSD density                        
  Achintya Kumar Dutta   : EOM-CC, STEOM-CC                              
  Nicolas Foglia         : Exact transition moments, OPA infrastructure, MCD improvements    
  Dmitry Ganyushin       : Spin-Orbit,Spin-Spin,Magnetic field MRCI      
  Miquel Garcia-Rates    : C-PCM and meta-GGA Hessian, CCSD/C-PCM, Gaussian charge scheme 
  Tiago L. C. Gouveia    : GS-ROHF, GS-ROCIS                             
  Yang Guo               : DLPNO-NEVPT2, F12-NEVPT2, CIM, IAO-localization        
  Andreas Hansen         : Spin unrestricted coupled pair/coupled cluster methods 
  Ingolf Harden          : AUTO-CI MPn and infrastructure                
  Benjamin Helmich-Paris : MC-RPA, TRAH-(SCF,CASSCF), AVAS, COSX integrals, SCF dyn. polar. 
  Lee Huntington         : MR-EOM, pCC                                   
  Robert Izsak           : Overlap fitted RIJCOSX, COSX-SCS-MP3, EOM     
  Riya Kayal             : Wick's Theorem for AUTO-CI, AUTO-CI UHF-CCSDT 
  Emily Kempfer          : AUTO-CI, RHF CISDT and CCSDT                  
  Christian Kollmar      : KDIIS, OOCD, Brueckner-CCSD(T), CCSD density, CASPT2, CASPT2-K, improved NEVPT2 
  Axel Koslowski         : Symmetry handling                             
  Simone Kossmann        : meta-GGA functionals, TD-DFT gradient, OOMP2, (MP2 Hessian; deprecated post 5.0) 
  Lucas Lang             : DCDCAS                                        
  Marvin Lechner         : AUTO-CI (C++ implementation), FIC-MRCC        
  Spencer Leger          : CASSCF response                               
  Dagmar Lenk            : GEPOL surface, SMD, ORCA-2-JSON               
  Dimitrios Liakos       : Extrapolation schemes; Compound Job, initial MDCI parallelization 
  Dimitrios Manganas     : Further ROCIS development; embedding schemes. LFT, Crystal Embedding 
  Dimitrios Pantazis     : SARC Basis sets                               
  Anastasios Papadopoulos: AUTO-CI, single reference methods and gradients 
  Taras Petrenko         : pre 6.0 DFT Hessian and TD-DFT gradient, (ASA, deprecated), ECA, 1-Electron XAS/XES, NRVS 
  Peter Pinski           : DLPNO-MP2, DLPNO-MP2 Gradient                 
  Christoph Reimann      : Effective Core Potentials                     
  Marius Retegan         : Local ZFS, SOC                                
  Christoph Riplinger    : Optimizer, TS searches, QM/MM, DLPNO-CCSD(T), (RO)-DLPNO pert. Triples 
  Michael Roemelt        : Original ROCIS implementation                 
  Masaaki Saitow         : Open-shell DLPNO-CCSD energy and density      
  Barbara Sandhoefer     : DKH picture change effects                    
  Kantharuban Sivalingam : CASSCF convergence/infrastructure, NEVPT2 and variants, FIC-MRCI 
  Bernardo de Souza      : ESD, SOC TD-DFT                               
  Georgi L. Stoychev     : AutoAux, RI-MP2 NMR, DLPNO-MP2 response, X2C  
  Van Anh Tran           : RI-MP2 g-tensors                              
  Willem Van den Heuvel  : Paramagnetic NMR                              
  Zikuan Wang            : NOTCH, Electric field optimization            
  Frank Wennmohs         : Technical directorship and infrastructure     
  Hang Xu                : AUTO-CI-Response properties                   
                                                                         
[FACCTs GmbH]                                                            
  Markus Bursch, Miquel Garcia-Rates, Christoph Riplinger, Bernardo de Souza, Georgi L. Stoychev 
                                                                 
  APM, Basis sets (HGBS, AHGBS, def-TZVP (Ac-Lr), def2-XVPD (La-Lu)), CI-OPT, improved COSX, DLPNO-Multilevel,           
  DOCKER, DRACO, updates on ESD, GOAT, IRC, LR-CPCM, MBIS, meta-GGA TD-DFT gradient, ML-optimized integration grids, 
  MM, NACMEs, nearIR, NEB, NEB-TS, NL-DFT gradient (VV10), 2- and 3-layer-ONIOM, interface openCOSMO-RS, QMMM,   
  Crystal-QMMM, SF, symmetry and pop. for TD-DFT, r2SCAN hybrids, SOLVATOR                                   
                                                                         
[Other institutions]                                                     
  V. Asgeirsson          : NEB                                           
  Christoph Bannwarth    : sTDA-DFT, sTD-DFT, PBEh-3c, B97-3c, D3        
  Sebastian Ehlert       : rSCAN, r2SCAN, r2SCAN-3c, D4, dhf basis sets  
  Marvin Friede          : D4 for Fr, Ra, Ac-Lr                          
  Lars Goerigk           : TD-DFT with DH, B97 family of functionals     
  Stefan Grimme          : VdW corrections, initial TS optimization, DFT functionals, gCP, sTDA/sTD-DF 
  Waldemar Hujo          : DFT-NL                                        
  H. Jonsson             : NEB                                           
  Holger Kruse           : gCP                                           
  Marcel Mueller         : wB97X-3c, vDZP basis set                      
  Hagen Neugebauer       : wr2SCAN                                       
  Tobias Risthaus        : range-separated hybrid DFT                    
  Lukas Wittmann         : regularized MP2, r2SCAN double-hybrids, wr2SCAN        
                                                                         
We gratefully acknowledge several colleagues who have allowed us to      
interface, adapt or use parts of their codes:                            
  Ed Valeev, F. Pavosevic, A. Kumar             : LibInt (2-el integral package), F12 methods 
  Garnet Chan, S. Sharma, J. Yang, R. Olivares  : DMRG                   
  Ulf Ekstrom                                   : XCFun DFT Library      
  Mihaly Kallay                                 : mrcc  (arbitrary order and MRCC methods)
  Frank Weinhold                                : gennbo (NPA and NBO analysis)           
  Simon Mueller                                 : openCOSMO-RS                            
  Christopher J. Cramer and Donald G. Truhlar   : smd solvation model                     
  S Lehtola, MJT Oliveira, MAL Marques          : LibXC Library                           
  Liviu Ungur et al                             : ANISO software                          


 Your calculation uses the libint2 library for the computation of 2-el integrals
 For citations please refer to: http://libint.valeyev.net

 Your ORCA version has been built with support for libXC version: 6.2.2
 For citations please refer to: https://libxc.gitlab.io

 This ORCA versions uses:
   CBLAS   interface :  Fast vector & matrix operations
   LAPACKE interface :  Fast linear algebra routines
   SCALAPACK package :  Parallel linear algebra routines
   Shared memory     :  Shared parallel matrices
   BLAS/LAPACK       :  OpenBLAS 0.3.27  USE64BITINT DYNAMIC_ARCH NO_AFFINITY Zen SINGLE_THREADED
        Core in use  :  Zen
   Copyright (c) 2011-2014, The OpenBLAS Project


Your calculation utilizes the geometrical counterpoise correction gCP
Please cite in your paper:
H.Kruse, S. Grimme J.Chem.Phys., 136, (2012), 154101 
   

Your calculation utilizes the atom-pairwise dispersion correction
based on EEQ partial charges (D4)


================================================================================

----- Orbital basis set information -----
Your calculation utilizes the basis: def2-mTZVPP
   Stefan Grimme, Andreas Hansen, Sebastian Ehlert, and Jan-Michael Mewes 
   J. Chem. Phys. 154, 064103 (2021). DOI: 10.1063/5.0040021

----- AuxJ basis set information -----
Your calculation utilizes the auxiliary basis: def2/J
   F. Weigend, Phys. Chem. Chem. Phys. 8, 1057 (2006).

================================================================================
                                        WARNINGS
                       Please study these warnings very carefully!
================================================================================



WARNING: SCAN, rSCAN, or r2SCAN functional requested.
  ===> : libXC variant has now been activated.



================================================================================
                                       INPUT FILE
================================================================================
NAME = sp.inp
|  1> ! r2scan-3c def2/J RI DEFGRID2 scfconv6 printgap
|  2> %output
|  3>     printlevel normal
|  4> end
|  5> * xyz 0 1
|  6> C 1.8572800121 0.1685590533 0.1926034557
|  7> C 0.7100165521 -0.1171743961 -0.3926345009
|  8> C -0.560866842 -0.4268492278 0.3424032861
|  9> O -1.669770584 0.2851847545 -0.16542497
| 10> H 2.7489928639 0.3807324573 -0.3719933067
| 11> H 1.955936446 0.1863874403 1.2660403755
| 12> H 0.6195631987 -0.1292290797 -1.47072469
| 13> H -0.4347844856 -0.2354968162 1.4179609655
| 14> H -0.8162641189 -1.4832838105 0.2067218609
| 15> H -1.4778490168 1.2282258511 -0.1186795968
| 16> *
| 17> 
| 18>                          ****END OF INPUT****
================================================================================

                       ****************************
                       * Single Point Calculation *
                       ****************************

---------------------------------
CARTESIAN COORDINATES (ANGSTROEM)
---------------------------------
  C      1.857280    0.168559    0.192603
  C      0.710017   -0.117174   -0.392635
  C     -0.560867   -0.426849    0.342403
  O     -1.669771    0.285185   -0.165425
  H      2.748993    0.380732   -0.371993
  H      1.955936    0.186387    1.266040
  H      0.619563   -0.129229   -1.470725
  H     -0.434784   -0.235497    1.417961
  H     -0.816264   -1.483284    0.206722
  H     -1.477849    1.228226   -0.118680

----------------------------
CARTESIAN COORDINATES (A.U.)
----------------------------
  NO LB      ZA    FRAG     MASS         X           Y           Z
   0 C     6.0000    0    12.011    3.509751    0.318530    0.363968
   1 C     6.0000    0    12.011    1.341737   -0.221428   -0.741972
   2 C     6.0000    0    12.011   -1.059885   -0.806628    0.647048
   3 O     8.0000    0    15.999   -3.155409    0.538921   -0.312608
   4 H     1.0000    0     1.008    5.194844    0.719480   -0.702965
   5 H     1.0000    0     1.008    3.696184    0.352221    2.392470
   6 H     1.0000    0     1.008    1.170805   -0.244208   -2.779267
   7 H     1.0000    0     1.008   -0.821624   -0.445024    2.679558
   8 H     1.0000    0     1.008   -1.542516   -2.803000    0.390648
   9 H     1.0000    0     1.008   -2.792730    2.321010   -0.224272

--------------------------------
INTERNAL COORDINATES (ANGSTROEM)
--------------------------------
 C      0   0   0     0.000000000000     0.00000000     0.00000000
 C      1   0   0     1.319227242215     0.00000000     0.00000000
 C      2   1   0     1.500441152163   124.33133746     0.00000000
 O      3   2   1     1.412285183193   112.63438993   132.62032432
 H      1   2   3     1.076540230341   122.03041219   179.70330715
 H      1   2   3     1.078108419466   121.65893671     0.71573981
 H      2   1   3     1.081945276052   121.14188101   179.06395097
 H      3   2   1     1.099698516748   110.24918585     8.38432697
 H      3   2   1     1.095304179540   109.62613089   249.12102257
 H      4   3   2     0.963506890348   108.63969433   302.50417561

---------------------------
INTERNAL COORDINATES (A.U.)
---------------------------
 C      0   0   0     0.000000000000     0.00000000     0.00000000
 C      1   0   0     2.492978196195     0.00000000     0.00000000
 C      2   1   0     2.835422857654   124.33133746     0.00000000
 O      3   2   1     2.668832219229   112.63438993   132.62032432
 H      1   2   3     2.034366207493   122.03041219   179.70330715
 H      1   2   3     2.037329655465   121.65893671     0.71573981
 H      2   1   3     2.044580263628   121.14188101   179.06395097
 H      3   2   1     2.078129026532   110.24918585     8.38432697
 H      3   2   1     2.069824932669   109.62613089   249.12102257
 H      4   3   2     1.820764150904   108.63969433   302.50417561

---------------------
BASIS SET INFORMATION
---------------------
There are 3 groups of distinct atoms

 Group   1 Type C   : 11s6p1d contracted to 5s3p1d pattern {62111/411/1}
 Group   2 Type O   : 11s6p2d contracted to 5s3p2d pattern {62111/411/11}
 Group   3 Type H   : 4s1p contracted to 2s1p pattern {31/1}

Atom   0C    basis set group =>   1
Atom   1C    basis set group =>   1
Atom   2C    basis set group =>   1
Atom   3O    basis set group =>   2
Atom   4H    basis set group =>   3
Atom   5H    basis set group =>   3
Atom   6H    basis set group =>   3
Atom   7H    basis set group =>   3
Atom   8H    basis set group =>   3
Atom   9H    basis set group =>   3
---------------------------------
AUXILIARY/J BASIS SET INFORMATION
---------------------------------
There are 3 groups of distinct atoms

 Group   1 Type C   : 12s5p4d2f1g contracted to 6s4p3d1f1g pattern {711111/2111/211/2/1}
 Group   2 Type O   : 12s5p4d2f1g contracted to 6s4p3d1f1g pattern {711111/2111/211/2/1}
 Group   3 Type H   : 5s2p1d contracted to 3s1p1d pattern {311/2/1}

Atom   0C    basis set group =>   1
Atom   1C    basis set group =>   1
Atom   2C    basis set group =>   1
Atom   3O    basis set group =>   2
Atom   4H    basis set group =>   3
Atom   5H    basis set group =>   3
Atom   6H    basis set group =>   3
Atom   7H    basis set group =>   3
Atom   8H    basis set group =>   3
Atom   9H    basis set group =>   3

Checking for AutoStart:
The File: sp.gbw exists
Trying to determine its content:
     ... Fine, the file contains calculation information
     ... Fine, the calculation information was read
     ... Fine, the file contains a basis set
     ... Fine, the basis set was read
     ... Fine, the file contains a geometry
     ... Fine, the geometry was read
     ... Fine, the file contains a set of orbitals
     ... Fine, the orbitals can be read
     => possible old guess file was deleted
     => GBW file was renamed to GES file
     => GES file is set as startup file
     => Guess is set to MORead
     ... now leaving AutoStart

------------------------------------------------------------------------------
                             ORCA STARTUP CALCULATIONS
                           -- RI-GTO INTEGRALS CHOSEN --
------------------------------------------------------------------------------
------------------------------------------------------------------------------
                   ___                                                        
                  /   \      - P O W E R E D   B Y -                         
                 /     \                                                     
                 |  |  |   _    _      __       _____    __    __             
                 |  |  |  | |  | |    /  \     |  _  \  |  |  /  |          
                  \  \/   | |  | |   /    \    | | | |  |  | /  /          
                 / \  \   | |__| |  /  /\  \   | |_| |  |  |/  /          
                |  |  |   |  __  | /  /__\  \  |    /   |      \           
                |  |  |   | |  | | |   __   |  |    \   |  |\   \          
                \     /   | |  | | |  |  |  |  | |\  \  |  | \   \       
                 \___/    |_|  |_| |__|  |__|  |_| \__\ |__|  \__/        
                                                                              
                      - O R C A' S   B I G   F R I E N D -                    
                                      &                                       
                       - I N T E G R A L  F E E D E R -                       
                                                                              
 v1 FN, 2020, v2 2021, v3 2022-2024                                           
------------------------------------------------------------------------------


----------------------
SHARK INTEGRAL PACKAGE
----------------------

Number of atoms                             ...     10
Number of basis functions                   ...    111
Number of shells                            ...     55
Maximum angular momentum                    ...      2
Integral batch strategy                     ... SHARK/LIBINT Hybrid
RI-J (if used) integral strategy            ... SPLIT-RIJ (Revised 2003 algorithm where possible)
Printlevel                                  ...      1
Contraction scheme used                     ... SEGMENTED contraction
Prescreening option                         ... SCHWARTZ
   Thresh                                   ... 1.000e-10
   Tcut                                     ... 1.000e-11
   Tpresel                                  ... 1.000e-11 
Coulomb Range Separation                    ... NOT USED
Exchange Range Separation                   ... NOT USED
Multipole approximations                    ... NOT USED
Finite Nucleus Model                        ... NOT USED
CABS basis                                  ... NOT available
Auxiliary Coulomb fitting basis             ... AVAILABLE
   # of basis functions in Aux-J            ...    262
   # of shells in Aux-J                     ...     90
   Maximum angular momentum in Aux-J        ...      4
Auxiliary J/K fitting basis                 ... NOT available
Auxiliary Correlation fitting basis         ... NOT available
Auxiliary 'external' fitting basis          ... NOT available

Checking pre-screening integrals            ... done (  0.0 sec) Dimension = 55
Check shell pair data                       ... done (  0.0 sec)
Shell pair information
Shell pair cut-off parameter TPreSel        ...   1.0e-11
Total number of shell pairs                 ...      1540
Shell pairs after pre-screening             ...      1487
Total number of primitive shell pairs       ...      5462
Primitive shell pairs kept                  ...      4138
          la=0 lb=0:    502 shell pairs
          la=1 lb=0:    559 shell pairs
          la=1 lb=1:    167 shell pairs
          la=2 lb=0:    155 shell pairs
          la=2 lb=1:     89 shell pairs
          la=2 lb=2:     15 shell pairs

Calculating one electron integrals          ... done (  0.0 sec)
Calculating RI/J V-Matrix + Cholesky decomp.... done (  0.0 sec)
Calculating Nuclear repulsion               ... done (  0.0 sec) ENN=    117.061632605243 Eh

Diagonalization of the overlap matrix:
Smallest eigenvalue                        ... 4.926e-04
Time for diagonalization                   ...    0.001 sec
Threshold for overlap eigenvalues          ... 1.000e-07
Number of eigenvalues below threshold      ... 0
Time for construction of square roots      ...    0.003 sec
Total time needed                          ...    0.005 sec

-------------------
DFT GRID GENERATION
-------------------

General Integration Accuracy     IntAcc      ... 4.388
Radial Grid Type                 RadialGrid  ... OptM3 with GC (2021)
Angular Grid (max. ang.)         AngularGrid ... 4 (Lebedev-302)
Angular grid pruning method      GridPruning ... 4 (adaptive)
Weight generation scheme         WeightScheme... mBecke (2022)
Basis function cutoff            BFCut       ... 1.0000e-10
Integration weight cutoff        WCut        ... 1.0000e-14
Partially contracted basis set               ... off
Rotationally invariant grid construction     ... off
Angular grids for H and He will be reduced by one unit
Diffuse basis detected: some atoms will have their outermost
                        angular grid increased by 1.

Total number of grid points                  ...    44080
Total number of batches                      ...      695
Average number of points per batch           ...       63
Average number of grid points per atom       ...     4408
Initializing property integral containers    ... done (  0.0 sec)

SHARK setup successfully completed in   0.4 seconds

Maximum memory used throughout the entire STARTUP-calculation: 19.4 MB
-------------------------------------------------------------------------------
                                 ORCA GUESS
                   Start orbitals & Density for SCF / CASSCF
-------------------------------------------------------------------------------

------------
SCF SETTINGS
------------
Hamiltonian:
 Density Functional     Method          .... DFT(GTOs)
  Functional kind                       .... Exchange
  Functional name                       .... Re-regularized SCAN exchange by Furness et al
  Functional family                     .... MGGA
  Functional refs                              
    [ 0] J. W. Furness, A. D. Kaplan, J. Ning, J. P. Perdew, and J. Sun.,  J. Phys. Chem. Lett. 11, 8208-8215 (2020), doi: 10.1021/acs.jpclett.0c02405
    [ 1] J. W. Furness, A. D. Kaplan, J. Ning, J. P. Perdew, and J. Sun.,  J. Phys. Chem. Lett. 11, 9248-9248 (2020), doi: 10.1021/acs.jpclett.0c03077
  Functional external parameters        .... 6
    Parameter  0 _c1        =  6.670000e-01 : c1 parameter        
    Parameter  1 _c2        =  8.000000e-01 : c2 parameter        
    Parameter  2 _d         =  1.240000e+00 : d parameter         
    Parameter  3 _k1        =  6.500000e-02 : k1 parameter        
    Parameter  4 _eta       =  1.000000e-03 : eta parameter       
    Parameter  5 _dp2       =  3.610000e-01 : dp2 parameter       
  Functional kind                       .... Correlation
  Functional name                       .... Re-regularized SCAN correlation by Furness et al
  Functional family                     .... MGGA
  Functional refs                              
    [ 0] J. W. Furness, A. D. Kaplan, J. Ning, J. P. Perdew, and J. Sun.,  J. Phys. Chem. Lett. 11, 8208-8215 (2020), doi: 10.1021/acs.jpclett.0c02405
    [ 1] J. W. Furness, A. D. Kaplan, J. Ning, J. P. Perdew, and J. Sun.,  J. Phys. Chem. Lett. 11, 9248-9248 (2020), doi: 10.1021/acs.jpclett.0c03077
  Functional external parameters        .... 1
    Parameter  0 _eta       =  1.000000e-03 : Regularization parameter
 Gradients option       PostSCFGGA      .... off
 RI-approximation to the Coulomb term is turned on
   Number of AuxJ basis functions       .... 262


General Settings:
 Integral files         IntName         .... sp
 Hartree-Fock type      HFTyp           .... RHF
 Total Charge           Charge          ....    0
 Multiplicity           Mult            ....    1
 Number of Electrons    NEL             ....   32
 Basis Dimension        Dim             ....  111
 Nuclear Repulsion      ENuc            ....    117.0616326052 Eh

Convergence Acceleration:
 AO-DIIS                CNVDIIS         .... on
   Start iteration      DIISMaxIt       ....    12
   Startup error        DIISStart       ....  0.200000
   # of expansion vecs  DIISMaxEq       ....     5
   Bias factor          DIISBfac        ....   1.050
   Max. coefficient     DIISMaxC        ....  10.000
 MO-DIIS                CNVKDIIS        .... off
 Trust-Rad. Augm. Hess. CNVTRAH         .... auto
   Auto Start mean grad. ratio tolernc. ....  1.125000
   Auto Start start iteration           ....     1
   Auto Start num. interpolation iter.  ....    10
   Max. Number of Micro iterations      ....    24
   Max. Number of Macro iterations      .... Maxiter - #DIIS iter
   Number of Davidson start vectors     ....     2
   Converg. threshold    (grad. norm)   ....   3.330e-04
   Grad. Scal. Fac. for Micro threshold ....   0.100
   Minimum threshold for Micro iter.    ....   1.000e-02
   NR start threshold (gradient norm)   ....   1.000e-04
   Initial trust radius                 ....   0.400
   Minimum AH scaling param. (alpha)    ....   1.000
   Maximum AH scaling param. (alpha)    .... 1000.000
   Quad. conv. algorithm                .... NR
   White noise on init. David. guess    .... on
   Maximum white noise                  ....   0.010
   Pseudo random numbers                .... off
   Inactive MOs                         .... canonical
   Orbital update algorithm             .... Taylor
   Preconditioner                       .... Diag
   Full preconditioner red. dimension   ....   250
   COSX micro iterations for RIJONX calc.... off
 SOSCF                  CNVSOSCF        .... on
   Start iteration      SOSCFMaxIt      ....   150
   Startup grad/error   SOSCFStart      ....  0.003300
   Hessian update       SOSCFHessUp     .... L-BFGS
 Level Shifting         CNVShift        .... on
   Level shift para.    LevelShift      ....    0.2500
   Turn off err/grad.   ShiftErr        ....    0.0010
 Zerner damping         CNVZerner       .... off
 Static damping         CNVDamp         .... on
   Fraction old density DampFac         ....    0.7000
   Max. Damping (<1)    DampMax         ....    0.9800
   Min. Damping (>=0)   DampMin         ....    0.0000
   Turn off err/grad.   DampErr         ....    0.1000

SCF Procedure:
 Maximum # iterations   MaxIter         ....   125
 SCF integral mode      SCFMode         .... Direct
   Integral package                     .... SHARK and LIBINT hybrid scheme
 Reset frequency        DirectResetFreq ....    20
 Integral Threshold     Thresh          ....  1.000e-10 Eh
 Primitive CutOff       TCut            ....  1.000e-11 Eh

Convergence Tolerance:
 Convergence Check Mode ConvCheckMode   .... Total+1el-Energy
 Convergence forced     ConvForced      .... 0
 Energy Change          TolE            ....  1.000e-06 Eh
 1-El. energy change                    ....  1.000e-03 Eh
 Orbital Gradient       TolG            ....  3.330e-04
 Orbital Rotation angle TolX            ....  3.330e-04
 DIIS Error             TolErr          ....  1.000e-06

---------------------
INITIAL GUESS: MOREAD
---------------------
Guess MOs are being read from file: sp.ges
Input Geometry matches current geometry (good)
Atom 0: N(Shells)= 9 and 6 - projection required
Input basis set needs projection
NBasis(read)= 68
NBasis(calc)= 111
Basis set overlap was calculated
Using GuessMode=FMatrix for the initial guess
C*T matrix was formed
Effective Fockian was calculated
Effective Fockian was diagonalized
Initial density was built
                      ------------------
                      INITIAL GUESS DONE (   0.0 sec)
                      ------------------
             **** ENERGY FILE WAS UPDATED (sp.en.tmp) ****
Finished Guess after   0.1 sec
Maximum memory used throughout the entire GUESS-calculation: 8.4 MB

-------------------------------------------------------------------------------------------
                                      ORCA LEAN-SCF
                              memory conserving SCF solver
-------------------------------------------------------------------------------------------

----------------------------------------D-I-I-S--------------------------------------------
Iteration    Energy (Eh)           Delta-E    RMSDP     MaxDP     DIISErr   Damp  Time(sec)
-------------------------------------------------------------------------------------------
               ***  Starting incremental Fock matrix formation  ***
    1    -192.9615522908187586     0.00e+00  3.17e-03  5.68e-02  6.26e-01  0.700   0.5
    2    -192.9940554751021864    -3.25e-02  2.69e-03  4.28e-02  4.40e-01  0.700   0.5
    3    -193.0171110950074080    -2.31e-02  1.99e-03  3.03e-02  3.08e-01  0.700   0.5
    4    -193.0333152781985859    -1.62e-02  1.43e-03  2.14e-02  2.16e-01  0.700   0.5
                               ***Turning on AO-DIIS***
    5    -193.0446916967219408    -1.14e-02  1.04e-03  1.55e-02  1.51e-01  0.700   0.5
    6    -193.0526730811401990    -7.98e-03  7.38e-04  1.09e-02  1.06e-01  0.700   0.5
    7    -193.0582717244234914    -5.60e-03  5.22e-04  7.64e-03  7.41e-02  0.700   0.5
    8    -193.0621967803658094    -3.93e-03  1.23e-03  1.78e-02  5.19e-02  0.000   0.5
                              *** Initializing SOSCF ***
---------------------------------------S-O-S-C-F--------------------------------------
Iteration    Energy (Eh)           Delta-E    RMSDP     MaxDP     MaxGrad    Time(sec)
--------------------------------------------------------------------------------------
    9    -193.0713742874515333    -9.18e-03  9.79e-06  1.37e-04  1.73e-04     0.5
               *** Restarting incremental Fock matrix formation ***
   10    -193.0713743531138675    -6.57e-08  7.73e-06  1.07e-04  3.45e-05     0.5
                  *** Gradient check signals convergence ***

               *****************************************************
               *                     SUCCESS                       *
               *           SCF CONVERGED AFTER  10 CYCLES          *
               *****************************************************

             **** ENERGY FILE WAS UPDATED (sp.en.tmp) ****

----------------
TOTAL SCF ENERGY
----------------

Total Energy       :       -193.07137435311387 Eh           -5253.73919 eV

Components:
Nuclear Repulsion  :        117.06163260524276 Eh            3185.40897 eV
Electronic Energy  :       -310.13300695835665 Eh           -8439.14816 eV
One Electron Energy:       -492.83667094865069 Eh          -13410.76761 eV
Two Electron Energy:        182.70366399029405 Eh            4971.61945 eV

Virial components:
Potential Energy   :       -385.38377489456570 Eh          -10486.82565 eV
Kinetic Energy     :        192.31240054145181 Eh            5233.08646 eV
Virial Ratio       :          2.00394656719757

DFT components:
N(Alpha)           :       16.000002592380 electrons
N(Beta)            :       16.000002592380 electrons
N(Total)           :       32.000005184761 electrons
E(X)               :      -26.006762026610 Eh       
E(C)               :       -1.007041914397 Eh       
E(XC)              :      -27.013803941007 Eh       

---------------
SCF CONVERGENCE
---------------

  Last Energy change         ...    6.5662e-08  Tolerance :   1.0000e-06
  Last MAX-Density change    ...    1.0703e-04  Tolerance :   1.0000e-05
  Last RMS-Density change    ...    7.7264e-06  Tolerance :   1.0000e-06
  Last DIIS Error            ...    1.7272e-04  Tolerance :   1.0000e-06
  Last Orbital Gradient      ...    3.4507e-05  Tolerance :   3.3300e-04
  Last Orbital Rotation      ...    1.0188e-04  Tolerance :   3.3300e-04


----------------
ORBITAL ENERGIES
----------------

  NO   OCC          E(Eh)            E(eV) 
   0   2.0000     -18.952514      -515.7241 
   1   2.0000     -10.082783      -274.3665 
   2   2.0000     -10.039309      -273.1835 
   3   2.0000     -10.031902      -272.9819 
   4   2.0000      -0.990704       -26.9584 
   5   2.0000      -0.756546       -20.5867 
   6   2.0000      -0.647509       -17.6196 
   7   2.0000      -0.541192       -14.7266 
   8   2.0000      -0.487236       -13.2584 
   9   2.0000      -0.417384       -11.3576 
  10   2.0000      -0.415076       -11.2948 
  11   2.0000      -0.404572       -11.0090 
  12   2.0000      -0.337588        -9.1862 
  13   2.0000      -0.300554        -8.1785 
  14   2.0000      -0.261092        -7.1047 
  15   2.0000      -0.239199        -6.5089 
  16   0.0000      -0.028270        -0.7693 
  17   0.0000       0.073478         1.9994 
  18   0.0000       0.106135         2.8881 
  19   0.0000       0.132483         3.6051 
  20   0.0000       0.139504         3.7961 
  21   0.0000       0.152343         4.1455 
  22   0.0000       0.161569         4.3965 
  23   0.0000       0.178709         4.8629 
  24   0.0000       0.214964         5.8495 
  25   0.0000       0.223212         6.0739 
  26   0.0000       0.227506         6.1908 
*Only the first 10 virtual orbitals were printed.

                    ********************************
                    * MULLIKEN POPULATION ANALYSIS *
                    ********************************

-----------------------
MULLIKEN ATOMIC CHARGES
-----------------------
   0 C :   -0.341803
   1 C :   -0.105739
   2 C :   -0.159417
   3 O :   -0.418009
   4 H :    0.144511
   5 H :    0.142291
   6 H :    0.166084
   7 H :    0.133194
   8 H :    0.141439
   9 H :    0.297450
Sum of atomic charges:    0.0000000

--------------------------------
MULLIKEN REDUCED ORBITAL CHARGES
--------------------------------
  0 C s       :     3.267065  s :     3.267065
      pz      :     1.030780  p :     3.048296
      px      :     1.005032
      py      :     1.012483
      dz2     :     0.007679  d :     0.026442
      dxz     :     0.007982
      dyz     :     0.001374
      dx2y2   :     0.004985
      dxy     :     0.004422

  1 C s       :     3.161570  s :     3.161570
      pz      :     1.021206  p :     2.907726
      px      :     0.924001
      py      :     0.962520
      dz2     :     0.010200  d :     0.036442
      dxz     :     0.010474
      dyz     :     0.001971
      dx2y2   :     0.006647
      dxy     :     0.007151

  2 C s       :     3.288195  s :     3.288195
      pz      :     0.995648  p :     2.810998
      px      :     0.819547
      py      :     0.995802
      dz2     :     0.014197  d :     0.060225
      dxz     :     0.013893
      dyz     :     0.004603
      dx2y2   :     0.015359
      dxy     :     0.012173

  3 O s       :     3.761955  s :     3.761955
      pz      :     1.838721  p :     4.642287
      px      :     1.545756
      py      :     1.257810
      dz2     :     0.002914  d :     0.013767
      dxz     :     0.002659
      dyz     :     0.001459
      dx2y2   :     0.003107
      dxy     :     0.003629

  4 H s       :     0.835742  s :     0.835742
      pz      :     0.005787  p :     0.019747
      px      :     0.009327
      py      :     0.004634

  5 H s       :     0.837953  s :     0.837953
      pz      :     0.012059  p :     0.019756
      px      :     0.003409
      py      :     0.004289

  6 H s       :     0.814734  s :     0.814734
      pz      :     0.012070  p :     0.019183
      px      :     0.003237
      py      :     0.003876

  7 H s       :     0.849813  s :     0.849813
      pz      :     0.011164  p :     0.016994
      px      :     0.002695
      py      :     0.003134

  8 H s       :     0.841239  s :     0.841239
      pz      :     0.003320  p :     0.017322
      px      :     0.003142
      py      :     0.010860

  9 H s       :     0.659010  s :     0.659010
      pz      :     0.012325  p :     0.043540
      px      :     0.009697
      py      :     0.021518


------------------------
MULLIKEN OVERLAP CHARGES
------------------------
B(  0-C ,  1-C ) :   1.0122 B(  0-C ,  2-C ) :  -0.0570 B(  0-C ,  4-H ) :   0.7954 
B(  0-C ,  5-H ) :   0.8655 B(  0-C ,  7-H ) :   0.0561 B(  1-C ,  2-C ) :   0.4782 
B(  1-C ,  3-O ) :  -0.1542 B(  1-C ,  4-H ) :  -0.0516 B(  1-C ,  5-H ) :  -0.1268 
B(  1-C ,  6-H ) :   0.7727 B(  1-C ,  7-H ) :  -0.2635 B(  2-C ,  3-O ) :   0.4519 
B(  2-C ,  7-H ) :   0.9683 B(  2-C ,  8-H ) :   0.7915 B(  2-C ,  9-H ) :  -0.1031 
B(  3-O ,  7-H ) :  -0.1010 B(  3-O ,  8-H ) :  -0.1163 B(  3-O ,  9-H ) :   0.5965 
B(  4-H ,  5-H ) :  -0.0505 B(  7-H ,  8-H ) :  -0.0626 


                     *******************************
                     * LOEWDIN POPULATION ANALYSIS *
                     *******************************

----------------------
LOEWDIN ATOMIC CHARGES
----------------------
   0 C :   -0.302842
   1 C :   -0.188633
   2 C :    0.008122
   3 O :   -0.607613
   4 H :    0.158556
   5 H :    0.156517
   6 H :    0.167460
   7 H :    0.159791
   8 H :    0.183399
   9 H :    0.265242

-------------------------------
LOEWDIN REDUCED ORBITAL CHARGES
-------------------------------
  0 C s       :     2.981753  s :     2.981753
      pz      :     1.133747  p :     3.258736
      px      :     1.120031
      py      :     1.004958
      dz2     :     0.019475  d :     0.062353
      dxz     :     0.021304
      dyz     :     0.002843
      dx2y2   :     0.010606
      dxy     :     0.008125

  1 C s       :     2.948087  s :     2.948087
      pz      :     1.119839  p :     3.161924
      px      :     1.082299
      py      :     0.959787
      dz2     :     0.023710  d :     0.078621
      dxz     :     0.024777
      dyz     :     0.003753
      dx2y2   :     0.013480
      dxy     :     0.012900

  2 C s       :     2.868502  s :     2.868502
      pz      :     1.047063  p :     2.989156
      px      :     0.923298
      py      :     1.018795
      dz2     :     0.033347  d :     0.134220
      dxz     :     0.030700
      dyz     :     0.008239
      dx2y2   :     0.036449
      dxy     :     0.025484

  3 O s       :     3.524883  s :     3.524883
      pz      :     1.833753  p :     4.812580
      px      :     1.606000
      py      :     1.372827
      dz2     :     0.049432  d :     0.270151
      dxz     :     0.050121
      dyz     :     0.020564
      dx2y2   :     0.097695
      dxy     :     0.052339

  4 H s       :     0.795901  s :     0.795901
      pz      :     0.013747  p :     0.045543
      px      :     0.021759
      py      :     0.010036

  5 H s       :     0.798208  s :     0.798208
      pz      :     0.028990  p :     0.045275
      px      :     0.007096
      py      :     0.009188

  6 H s       :     0.787799  s :     0.787799
      pz      :     0.029285  p :     0.044741
      px      :     0.006968
      py      :     0.008487

  7 H s       :     0.800524  s :     0.800524
      pz      :     0.026205  p :     0.039684
      px      :     0.006167
      py      :     0.007313

  8 H s       :     0.777482  s :     0.777482
      pz      :     0.007294  p :     0.039119
      px      :     0.007581
      py      :     0.024243

  9 H s       :     0.610907  s :     0.610907
      pz      :     0.032152  p :     0.123851
      px      :     0.026744
      py      :     0.064956


---------------------------------
LOEWDIN BOND ORDERS (THRESH 0.050000)
---------------------------------
B(  0-C ,  1-C ) :   2.0707 B(  0-C ,  2-C ) :   0.1122 B(  0-C ,  4-H ) :   0.9148 
B(  0-C ,  5-H ) :   0.9131 B(  0-C ,  6-H ) :   0.0591 B(  1-C ,  2-C ) :   1.0558 
B(  1-C ,  3-O ) :   0.1781 B(  1-C ,  4-H ) :   0.0673 B(  1-C ,  5-H ) :   0.0598 
B(  1-C ,  6-H ) :   0.8741 B(  2-C ,  3-O ) :   1.4468 B(  2-C ,  7-H ) :   0.8334 
B(  2-C ,  8-H ) :   0.8156 B(  3-O ,  7-H ) :   0.1030 B(  3-O ,  8-H ) :   0.1006 
B(  3-O ,  9-H ) :   0.9773 

------------------------------------------
LOEWDIN REDUCED ORBITAL POPULATIONS PER MO
-------------------------------------------
THRESHOLD FOR PRINTING IS 0.1%%
                      0         1         2         3         4         5   
                 -18.95251 -10.08278 -10.03931 -10.03190  -0.99070  -0.75655
                   2.00000   2.00000   2.00000   2.00000   2.00000   2.00000
                  --------  --------  --------  --------  --------  --------
 0 C  s               0.0       0.0       0.3      99.3       0.1      24.1
 0 C  pz              0.0       0.0       0.0       0.0       0.0       0.8
 0 C  px              0.0       0.0       0.1       0.0       0.1       4.1
 0 C  py              0.0       0.0       0.0       0.0       0.0       0.3
 0 C  dxz             0.0       0.0       0.0       0.0       0.0       0.1
 0 C  dx2y2           0.0       0.0       0.0       0.0       0.0       0.2
 1 C  s               0.0       0.0      99.3       0.3       0.9      32.0
 1 C  pz              0.0       0.0       0.0       0.0       0.2       1.6
 1 C  px              0.0       0.1       0.0       0.1       1.5       1.1
 1 C  dx2y2           0.0       0.0       0.0       0.0       0.0       0.2
 2 C  s               0.0      99.4       0.0       0.0       9.9       8.3
 2 C  pz              0.0       0.0       0.0       0.0       1.2       0.3
 2 C  px              0.0       0.0       0.1       0.0       4.6       6.4
 2 C  py              0.0       0.0       0.0       0.0       2.7       0.0
 2 C  dxz             0.0       0.0       0.0       0.0       0.2       0.1
 2 C  dyz             0.0       0.0       0.0       0.0       0.1       0.0
 2 C  dxy             0.0       0.0       0.0       0.0       0.4       0.1
 3 O  s              99.9       0.0       0.0       0.0      60.3       2.2
 3 O  pz              0.0       0.0       0.0       0.0       0.4       0.1
 3 O  px              0.0       0.1       0.0       0.0       2.2       1.0
 3 O  py              0.0       0.0       0.0       0.0       0.2       1.0
 3 O  dz2             0.0       0.0       0.0       0.0       0.1       0.1
 3 O  dx2y2           0.0       0.0       0.0       0.0       0.0       0.4
 3 O  dxy             0.0       0.1       0.0       0.0       0.1       0.3
 4 H  s               0.0       0.0       0.0       0.0       0.0       3.0
 4 H  px              0.0       0.0       0.0       0.0       0.0       0.2
 5 H  s               0.0       0.0       0.0       0.0       0.0       3.3
 5 H  pz              0.0       0.0       0.0       0.0       0.0       0.3
 6 H  s               0.0       0.0       0.0       0.0       0.1       4.2
 6 H  pz              0.0       0.0       0.0       0.0       0.0       0.4
 7 H  s               0.0       0.0       0.0       0.0       0.7       1.4
 7 H  pz              0.0       0.0       0.0       0.0       0.1       0.1
 8 H  s               0.0       0.0       0.0       0.0       0.7       1.2
 9 H  s               0.0       0.0       0.0       0.0      10.6       0.7
 9 H  py              0.0       0.0       0.0       0.0       2.3       0.2

                      6         7         8         9        10        11   
                  -0.64751  -0.54119  -0.48724  -0.41738  -0.41508  -0.40457
                   2.00000   2.00000   2.00000   2.00000   2.00000   2.00000
                  --------  --------  --------  --------  --------  --------
 0 C  s              14.6       9.0       0.1       0.6       0.1       0.2
 0 C  pz              0.1       5.2       5.8      13.9      10.0       1.8
 0 C  px              0.7       8.0       2.2      11.2       8.4      14.0
 0 C  py              0.1       0.4       0.1       0.3       0.0       2.9
 0 C  dxz             0.0       0.1       0.0       0.2       0.1       0.1
 1 C  s               0.0      11.8       0.2       0.3       0.4       0.3
 1 C  pz              0.1       7.6      13.4       0.2       6.1       5.5
 1 C  px             15.5       2.6       1.2      16.7       0.5       4.3
 1 C  py              1.6       0.0       0.0       2.6       2.1       2.4
 1 C  dxz             0.3       0.0       0.0       0.1       0.1       0.2
 2 C  s              20.4       1.7       0.8       0.0       1.4       0.5
 2 C  pz              0.2       5.0      10.7      15.9       5.3       1.1
 2 C  px              0.1       6.2      11.6       4.2       0.3       0.2
 2 C  py              1.8       1.0       1.1       2.6      17.9      17.2
 2 C  dz2             0.0       0.0       0.1       0.0       0.0       0.1
 2 C  dxz             0.0       0.2       0.1       0.1       0.0       0.0
 2 C  dyz             0.0       0.0       0.0       0.0       0.1       0.0
 2 C  dx2y2           0.0       0.0       0.0       0.0       0.4       0.0
 3 O  s               3.1       0.0       1.0       0.0       0.1       3.9
 3 O  pz              0.9       1.8       0.3       9.3       0.1       4.5
 3 O  px              3.7       0.1       0.4       0.3       7.8      18.3
 3 O  py              9.7       7.7      28.0       1.6       8.7       2.2
 3 O  dz2             0.1       0.2       0.0       0.6       0.0       0.0
 3 O  dxz             0.4       0.4       0.5       0.6       0.0       0.2
 3 O  dyz             0.2       0.1       0.0       0.1       0.2       0.0
 3 O  dx2y2           0.3       0.1       0.0       0.0       1.1       0.6
 3 O  dxy             1.2       0.1       0.2       0.1       0.3       0.2
 4 H  s               4.1       5.4       2.1       1.1       7.1       8.0
 4 H  pz              0.1       0.2       0.0       0.2       0.0       0.1
 4 H  px              0.2       0.1       0.1       0.0       0.1       0.1
 5 H  s               3.0       8.0       0.9       8.7       2.8       0.2
 5 H  pz              0.2       0.5       0.0       0.3       0.1       0.0
 5 H  px              0.0       0.0       0.0       0.1       0.1       0.1
 6 H  s               0.0       9.6       4.3       0.2       1.7       1.9
 6 H  pz              0.0       0.6       0.2       0.0       0.0       0.0
 6 H  px              0.0       0.0       0.0       0.2       0.0       0.0
 7 H  s               4.9       2.2       6.6       5.1       2.6       2.3
 7 H  pz              0.4       0.1       0.3       0.1       0.0       0.1
 7 H  py              0.0       0.0       0.0       0.0       0.2       0.1
 8 H  s               6.8       1.6       0.2       1.3      10.0       5.3
 8 H  py              0.5       0.1       0.0       0.0       0.2       0.1
 9 H  s               3.6       1.8       6.7       0.5       2.9       0.2
 9 H  pz              0.0       0.0       0.0       0.1       0.0       0.1
 9 H  px              0.1       0.0       0.1       0.0       0.2       0.2
 9 H  py              0.4       0.1       0.2       0.0       0.0       0.0

                     12        13        14        15        16        17   
                  -0.33759  -0.30055  -0.26109  -0.23920  -0.02827   0.07348
                   2.00000   2.00000   2.00000   2.00000   0.00000   0.00000
                  --------  --------  --------  --------  --------  --------
 0 C  s               0.4       0.2       0.0       0.0       0.0       1.7
 0 C  pz             17.8       1.1       0.1       0.0       0.0       0.1
 0 C  px              0.5       2.6       3.8       0.3       2.4       1.2
 0 C  py              0.0       1.2      27.2      17.6      40.8       1.7
 0 C  dz2             0.6       0.1       0.0       0.0       0.0       0.0
 0 C  dxz             0.2       0.2       0.1       0.0       0.0       0.1
 0 C  dyz             0.0       0.0       0.0       0.0       0.2       0.1
 0 C  dx2y2           0.1       0.1       0.0       0.1       0.2       0.1
 0 C  dxy             0.0       0.0       0.2       0.0       0.7       0.0
 1 C  s               0.5       0.2       0.5       0.6       0.1       2.4
 1 C  pz             17.9       1.3       0.7       1.3       0.0       0.3
 1 C  px              0.1       5.4       0.8       4.3       2.6       1.5
 1 C  py              0.0       0.2      31.9       7.2      35.9       5.1
 1 C  dz2             1.0       0.0       0.0       0.1       0.0       0.2
 1 C  dxz             0.1       0.3       0.0       0.0       0.0       0.1
 1 C  dyz             0.0       0.0       0.1       0.0       0.2       0.3
 1 C  dx2y2           0.3       0.0       0.1       0.1       0.2       0.0
 1 C  dxy             0.1       0.0       0.2       0.2       0.7       0.0
 2 C  s               0.7       0.1       0.2       0.0       0.3       5.7
 2 C  pz              6.9       1.3       0.9       3.6       0.0       2.4
 2 C  px              1.4       9.4       1.1       0.6       2.1       7.2
 2 C  py              0.1       4.6       1.4       0.5       0.4      11.5
 2 C  dz2             0.1       0.3       0.2       0.8       0.0       0.3
 2 C  dxz             0.0       0.0       0.2       0.6       0.1       0.1
 2 C  dyz             0.0       0.0       0.0       0.0       0.0       0.7
 2 C  dx2y2           0.0       0.7       0.5       0.0       0.2       0.0
 2 C  dxy             0.0       0.1       0.4       0.1       1.1       0.5
 3 O  s               0.3       5.1       0.1       0.0       1.1       8.7
 3 O  pz              4.4       7.9      22.0      40.0       0.0       0.4
 3 O  px              7.4      27.1       1.2      10.8       2.2       2.3
 3 O  py              0.5       8.7       0.1       0.2       0.0       4.8
 3 O  dz2             0.4       0.3       0.0       0.6       0.5       0.2
 3 O  dxz             0.0       0.1       0.0       0.2       0.1       0.0
 3 O  dyz             0.0       0.0       0.2       0.1       0.1       1.0
 3 O  dx2y2           0.0       2.1       0.1       0.0       0.0       4.0
 3 O  dxy             0.0       0.0       0.0       0.0       0.3       0.6
 4 H  s               4.9       3.4       0.4       0.2       0.0       0.0
 4 H  px              0.1       0.0       0.0       0.0       0.1       0.0
 4 H  py              0.0       0.0       0.3       0.2       1.1       0.0
 5 H  s              11.6       1.1       0.1       0.1       0.0       0.1
 5 H  py              0.0       0.0       0.2       0.2       1.1       0.0
 6 H  s              16.6       0.1       0.2       0.5       0.0       0.6
 6 H  pz              0.2       0.0       0.0       0.0       0.0       0.0
 6 H  py              0.0       0.0       0.3       0.1       1.1       0.4
 7 H  s               3.4       3.4       1.1       6.2       0.3       2.0
 7 H  pz              0.0       0.0       0.0       0.0       0.0       0.5
 7 H  px              0.0       0.1       0.0       0.0       0.0       0.1
 7 H  py              0.0       0.0       0.0       0.0       0.0       0.8
 8 H  s               0.5       7.2       2.5       1.3       1.7       0.4
 8 H  pz              0.0       0.0       0.0       0.0       0.0       0.4
 8 H  px              0.0       0.0       0.0       0.0       0.2       0.3
 9 H  s               0.2       3.1       0.1       0.0       1.1      22.7
 9 H  pz              0.1       0.1       0.4       0.8       0.0       0.0
 9 H  px              0.1       0.3       0.0       0.2       0.0       0.1
 9 H  py              0.0       0.1       0.0       0.0       0.3       5.9

                     18        19        20        21        22        23   
                   0.10614   0.13248   0.13950   0.15234   0.16157   0.17871
                   0.00000   0.00000   0.00000   0.00000   0.00000   0.00000
                  --------  --------  --------  --------  --------  --------
 0 C  s              21.7       0.0       5.2       3.8       6.4       1.2
 0 C  pz              0.6      15.7       4.4       1.9       1.6       2.1
 0 C  px              1.3       1.3       2.2      17.1      11.3      17.0
 0 C  py              0.5       0.2       0.6       0.9       2.3       1.9
 0 C  dz2             0.0       0.6       1.1       0.8       0.1       0.0
 0 C  dxz             0.6       0.3       0.4       0.4       0.5       0.5
 0 C  dyz             0.1       0.0       0.0       0.0       0.2       0.0
 0 C  dx2y2           0.1       0.0       0.0       0.1       0.0       0.9
 0 C  dxy             0.0       0.0       0.0       0.2       0.0       0.1
 1 C  s               8.9       4.5       0.7      17.5       1.3       3.0
 1 C  pz              3.0      11.2       2.6       6.6       0.1       3.1
 1 C  px              1.3       0.0       4.8       1.2       4.8       1.2
 1 C  py              0.8       1.4       4.7       1.1       2.7       0.2
 1 C  dz2             0.2       2.0       0.2       0.1       0.0       0.3
 1 C  dxz             0.1       0.0       1.0       0.2       0.8       0.8
 1 C  dyz             0.0       0.0       0.3       0.0       0.2       0.1
 1 C  dx2y2           0.2       0.3       0.0       1.8       0.0       0.2
 1 C  dxy             0.0       0.0       0.1       0.5       0.3       0.0
 2 C  s               9.5       4.0      10.7       2.2       1.2       0.2
 2 C  pz              4.6      16.1       0.3       8.1      13.9       5.3
 2 C  px             12.3       1.4       7.5       2.1       1.3       7.5
 2 C  py              2.3       1.2      15.6       5.4      11.7       6.3
 2 C  dz2             0.3       0.8       0.0       0.1       0.4       0.6
 2 C  dxz             0.7       0.1       0.1       0.4       0.0       0.3
 2 C  dyz             0.0       0.0       0.0       0.8       0.5       0.1
 2 C  dx2y2           0.0       0.2       0.2       0.6       1.1       0.1
 2 C  dxy             0.2       0.0       0.1       0.0       0.6       0.4
 3 O  s               1.3       0.0       0.1       0.1       0.4       0.3
 3 O  pz              1.4       0.1       0.0       0.6       1.1       0.2
 3 O  px              0.8       0.1       0.4       1.2       1.1       0.2
 3 O  py              1.3       1.6       2.0       1.2       2.4       4.9
 3 O  dz2             0.0       0.0       2.0       0.0       0.1       1.3
 3 O  dxz             0.6       0.2       0.5       0.6       4.5       0.4
 3 O  dyz             1.0       0.9       0.2       3.2       0.3       0.0
 3 O  dx2y2           0.1       0.7       0.4       0.2       0.9       0.1
 3 O  dxy             1.7       0.2       1.0       2.7       0.0       4.1
 4 H  s               4.4       1.3       0.5       0.5       0.9      12.6
 4 H  pz              1.3       0.0       0.2       0.3       0.0       1.5
 4 H  px              0.8       0.7       0.0       1.5       0.3       3.1
 4 H  py              0.0       0.0       0.0       0.2       0.0       0.1
 5 H  s               2.9       4.1       7.6       2.3       2.5       0.4
 5 H  pz              1.6       1.5       2.8       0.0       1.1       0.1
 5 H  px              0.3       0.0       0.2       0.5       0.5       0.3
 5 H  py              0.1       0.0       0.0       0.0       0.1       0.0
 6 H  s               2.3       7.5       1.7       3.0       0.3       1.9
 6 H  pz              1.1       3.3       0.6       1.9       0.0       0.3
 6 H  px              0.0       0.0       0.8       0.0       0.6       0.2
 6 H  py              0.1       0.0       0.1       0.0       0.1       0.0
 7 H  s               2.0       8.0       0.7       1.2       2.7       3.8
 7 H  pz              0.6       3.2       0.3       0.0       1.8       1.1
 7 H  px              0.9       0.0       0.2       0.5       0.1       0.3
 7 H  py              0.0       0.2       0.1       0.7       1.0       0.0
 8 H  s               2.5       0.7       6.5       0.6       9.1       2.5
 8 H  pz              0.0       0.2       0.1       1.1       0.4       0.0
 8 H  px              0.1       0.1       0.5       0.1       0.3       0.2
 8 H  py              1.0       0.3       3.2       0.0       1.4       1.5
 9 H  s               0.1       2.5       3.6       1.4       2.3       4.3
 9 H  px              0.1       0.1       0.0       0.1       0.0       0.4
 9 H  py              0.0       0.5       0.8       0.2       0.4       0.6

                     24        25        26        27        28        29   
                   0.21496   0.22321   0.22751   0.24518   0.26844   0.29177
                   0.00000   0.00000   0.00000   0.00000   0.00000   0.00000
                  --------  --------  --------  --------  --------  --------
 0 C  s              15.1      11.1       0.0       0.1       2.3       3.0
 0 C  pz             10.5      27.7       3.1       3.6       1.9      14.7
 0 C  px              5.4       3.6       0.2       4.5       6.2      15.2
 0 C  py              0.3       0.1       4.1      43.5       4.8       3.1
 0 C  dz2             1.9       0.0       0.4       0.1       0.4       0.3
 0 C  dxz             0.5       0.0       0.3       0.0       0.3       1.5
 0 C  dyz             0.0       0.0       0.0       0.1       0.1       0.0
 0 C  dx2y2           0.7       2.1       0.1       0.0       0.2       0.0
 0 C  dxy             0.5       0.5       0.0       0.1       0.0       0.0
 1 C  s               6.7       6.0       0.6       0.1       0.3       0.1
 1 C  pz              2.6       1.2      19.8       2.2       0.8       3.0
 1 C  px              2.0      12.6       0.8       0.6       5.2       2.6
 1 C  py              1.2       0.2       0.5      18.0      10.2       2.4
 1 C  dz2             0.6       0.8       0.2       0.1       0.8       0.3
 1 C  dxz             0.6       0.2       0.4       0.1       0.6       0.2
 1 C  dyz             0.0       0.0       0.1       0.2       0.1       0.2
 1 C  dx2y2           0.0       0.1       0.5       0.1       0.1       0.4
 1 C  dxy             0.1       0.2       0.2       0.2       0.0       0.4
 2 C  s               0.2       0.5       5.3       0.1       0.3       0.2
 2 C  pz              4.7       6.1       2.8       3.0      19.8       4.5
 2 C  px              3.8       1.7      12.4       3.5       2.2       8.5
 2 C  py              3.2       1.3      11.6       2.0       8.2       4.0
 2 C  dz2             0.7       0.0       0.0       0.4       0.6       1.3
 2 C  dxz             0.0       0.3       0.5       0.0       0.3       0.6
 2 C  dyz             0.1       0.0       0.5       0.0       0.0       0.2
 2 C  dx2y2           0.0       0.2       0.4       0.0       0.2       0.1
 2 C  dxy             0.1       0.1       0.0       0.0       0.1       0.7
 3 O  s               0.1       0.0       1.8       0.7       0.2       0.1
 3 O  pz              1.2       2.6       0.3       0.3       6.9       1.2
 3 O  px              0.7       0.8       1.6       0.4       0.2       0.1
 3 O  py              0.9       1.3       0.4       0.6       1.6       1.0
 3 O  dz2             1.8       0.0       0.3       0.3       0.3       0.2
 3 O  dxz             0.6       0.1       1.0       0.2       0.4       0.2
 3 O  dyz             0.0       1.0       3.5       0.0       1.7       3.6
 3 O  dx2y2           0.5       2.3       0.2       0.4       0.0       0.2
 3 O  dxy             1.1       0.1       0.1       1.4       0.0       0.0
 4 H  s               8.7       3.9       2.7       1.6       2.7       4.2
 4 H  pz              1.8       0.3       0.0       0.4       1.4       0.0
 4 H  px              0.4       0.4       1.0       0.2       0.1       0.0
 5 H  s               7.8       1.4       5.6       0.4       3.8       1.3
 5 H  pz              0.6       0.5       1.1       0.0       1.1       0.8
 5 H  px              0.4       0.1       0.5       0.2       0.3       0.9
 5 H  py              0.0       0.0       0.0       0.0       0.1       0.0
 6 H  s               0.8       4.9       2.6       2.5       6.7       1.2
 6 H  pz              0.1       0.5       0.9       0.8       1.3       0.0
 6 H  px              1.0       0.2       0.1       0.0       0.9       0.4
 6 H  py              0.0       0.0       0.0       0.0       0.0       0.3
 7 H  s               2.6       0.2       1.7       0.6       1.3      11.3
 7 H  pz              0.4       0.0       0.4       0.0       0.0       2.2
 7 H  px              0.0       0.3       0.6       0.0       0.0       0.1
 7 H  py              0.0       0.0       1.1       0.0       0.3       0.0
 8 H  s               3.4       0.1       5.2       1.3       1.8       0.4
 8 H  pz              0.2       0.1       0.5       0.2       0.2       0.8
 8 H  px              0.3       0.0       0.0       0.1       0.0       0.6
 8 H  py              1.1       0.1       0.5       0.1       0.0       0.2
 9 H  s               1.3       1.5       1.0       3.3       0.2       0.8
 9 H  pz              0.0       0.0       0.1       0.0       0.2       0.1
 9 H  py              0.4       0.5       0.2       0.9       0.0       0.2

                     30        31        32        33        34        35   
                   0.31332   0.32006   0.35569   0.37249   0.40782   0.44014
                   0.00000   0.00000   0.00000   0.00000   0.00000   0.00000
                  --------  --------  --------  --------  --------  --------
 0 C  s               6.4       5.9       0.5       0.9      11.5       0.5
 0 C  pz              1.4       0.1       0.2       1.3       4.5       1.5
 0 C  px              1.2       0.3       1.6       2.4       2.5       1.2
 0 C  py              1.9       6.2      27.1       0.2       0.0       0.0
 0 C  dz2             0.4       0.0       0.1       0.7       0.0       0.2
 0 C  dxz             0.2       0.0       0.0       0.1       0.0       0.3
 0 C  dx2y2           1.0       0.4       0.0       0.1       1.0       0.3
 0 C  dxy             0.0       0.3       0.1       0.0       0.3       0.0
 1 C  s               9.4       1.4       0.1       2.1      11.7      21.8
 1 C  pz             11.5       8.7       0.3       4.1       0.7       5.2
 1 C  px              1.3       1.7       1.0      24.5       5.4       5.3
 1 C  py              2.8       2.8      44.0       0.3       0.8       1.4
 1 C  dz2             0.8       0.4       0.0       0.2       0.0       0.0
 1 C  dxz             0.1       0.2       0.0       0.0       0.3       0.0
 1 C  dyz             0.0       0.1       0.0       0.0       0.1       0.0
 1 C  dx2y2           1.6       0.0       0.1       0.5       1.2       0.4
 1 C  dxy             0.1       0.4       0.0       0.2       0.1       0.0
 2 C  s               3.2       2.5       0.6       2.6      11.2       9.9
 2 C  pz              3.2       5.2       1.6       2.6       2.3       3.2
 2 C  px              1.1      24.4       1.5       1.8       3.2       5.1
 2 C  py             16.5       7.0       2.9       1.5       0.9       0.4
 2 C  dz2             0.1       0.0       0.1       0.2       0.0       0.4
 2 C  dxz             0.2       0.4       0.1       0.0       0.2       1.1
 2 C  dyz             0.0       0.0       0.6       0.0       0.0       0.1
 2 C  dx2y2           0.1       0.1       0.1       2.0       0.0       0.5
 2 C  dxy             0.0       0.3       0.1       0.8       0.2       0.0
 3 O  s               1.4       0.2       0.0       0.3       2.5       0.4
 3 O  pz              1.5       0.3       0.3       0.0       0.2       3.1
 3 O  px              2.4       7.3       2.7       0.1      10.6       2.2
 3 O  py              0.4       4.7       0.5       3.2       2.5       0.4
 3 O  dz2             3.5       0.5       0.0      11.8       0.1      10.9
 3 O  dxz             0.9       0.9       0.9       1.3       1.3       5.4
 3 O  dyz             0.1       5.7       1.7       1.1       0.2       5.4
 3 O  dx2y2           0.2       0.9       0.1      12.0       4.9       0.6
 3 O  dxy             6.3       4.1       0.7       0.1       0.7       3.5
 4 H  s               0.6       0.5       0.0       0.6       2.3       0.8
 4 H  pz              0.0       0.1       0.1       0.1       0.2       0.0
 4 H  px              0.0       0.1       0.0       0.0       1.3       0.3
 5 H  s               6.0       0.2       0.2       1.0       1.7       0.4
 5 H  pz              0.9       0.0       0.1       0.1       0.8       0.7
 5 H  px              0.5       0.1       0.0       0.0       0.0       0.2
 6 H  s               6.3       1.0       0.1       0.4       0.6       2.0
 6 H  pz              0.4       0.0       0.0       0.2       0.1       1.7
 6 H  px              0.0       0.0       0.1       0.8       1.9       0.1
 6 H  py              0.0       0.0       0.1       0.0       0.3       0.0
 7 H  s               0.4       0.1       0.8       8.4       0.3       1.1
 7 H  pz              0.1       0.2       0.4       2.3       0.1       0.3
 7 H  px              0.3       0.2       0.0       0.0       0.1       0.2
 7 H  py              0.1       0.0       0.7       0.0       0.0       0.0
 8 H  s               0.5       1.1       4.8       0.1       4.4       0.4
 8 H  pz              0.0       0.1       0.1       0.5       0.1       0.1
 8 H  px              0.0       0.0       0.7       1.8       0.3       0.0
 8 H  py              0.0       0.8       0.7       0.1       2.8       0.0
 9 H  s               1.5       1.5       1.4       3.9       1.0       0.6
 9 H  pz              0.0       0.2       0.1       0.2       0.0       0.1
 9 H  px              0.5       0.3       0.0       0.1       0.0       0.1
 9 H  py              0.4       0.2       0.3       0.1       0.6       0.0

                     36        37        38        39        40        41   
                   0.47109   0.50515   0.53273   0.56113   0.59098   0.60906
                   0.00000   0.00000   0.00000   0.00000   0.00000   0.00000
                  --------  --------  --------  --------  --------  --------
 0 C  s               0.6       0.8       0.8       8.0       6.2       0.6
 0 C  pz              0.1       1.4      14.9       2.1       1.2       1.4
 0 C  px              0.4       0.3       4.8       9.6       1.7       2.8
 0 C  py              0.0       0.2       0.5       0.3       0.4       0.4
 0 C  dz2             0.1       0.0       0.2       0.1       0.2       0.0
 0 C  dxz             0.0       0.1       0.1       3.2       1.8       1.1
 0 C  dyz             0.0       0.2       0.0       0.1       0.2       0.2
 0 C  dx2y2           0.0       0.0       0.0       1.6       0.6       0.3
 0 C  dxy             0.0       0.0       0.0       0.2       0.2       0.4
 1 C  s               0.2       3.0       0.6       1.3       5.8       5.5
 1 C  pz              0.2       3.2      19.5       1.6       4.1       1.1
 1 C  px              0.6       0.8       1.6      16.9      11.0       2.6
 1 C  py              0.1       4.4       0.7       1.3       0.2       0.2
 1 C  dz2             0.2       0.0       0.3       0.4       0.0       0.1
 1 C  dxz             0.2       0.4       0.1       5.4       0.1       0.5
 1 C  dyz             0.0       0.1       0.0       0.3       0.1       0.0
 1 C  dx2y2           0.1       0.8       0.2       2.1       0.7       0.0
 1 C  dxy             0.0       0.0       0.0       0.1       0.3       0.7
 2 C  s               6.6       1.3       2.4       1.5       1.1       5.8
 2 C  pz              0.6       1.6       0.4       2.1       1.5       1.1
 2 C  px              3.4       3.0       5.3       2.0       0.8       4.3
 2 C  py              2.4       1.4       0.6       1.3       0.3       1.7
 2 C  dz2             0.1       0.3       0.3       0.5       0.2       0.0
 2 C  dxz             0.4       0.0       0.1       0.8       0.3       0.3
 2 C  dyz             0.0       0.1       0.0       0.9       0.2       0.0
 2 C  dx2y2           0.0       0.2       0.1       0.2       0.3       0.1
 2 C  dxy             0.1       0.0       0.0       0.0       0.1       0.9
 3 O  s               0.2       0.2       1.6       1.3       0.0       5.9
 3 O  pz              5.0      31.4       4.6       0.3       0.1       0.9
 3 O  px             29.2       2.0       0.4       1.9       8.6       0.5
 3 O  py              4.3       0.7       0.1       0.1       0.3       0.0
 3 O  dz2             0.4       0.1       0.6       4.5      31.8       0.0
 3 O  dxz             0.9       3.5       5.7       2.2       0.5      48.5
 3 O  dyz            12.8      14.8       0.8       0.0       4.2       5.0
 3 O  dx2y2           3.3       0.1       1.1      12.2       7.3       0.1
 3 O  dxy            11.0      14.1       2.2       6.3       1.6       0.1
 4 H  s               0.0       0.8       5.8       0.1       0.1       0.8
 4 H  pz              0.0       0.0       0.2       0.5       0.1       0.2
 4 H  px              0.0       0.2       3.2       0.4       0.0       0.1
 4 H  py              0.0       0.0       0.1       0.0       0.0       0.0
 5 H  s               0.0       1.2       4.5       0.6       0.3       0.1
 5 H  pz              0.0       1.0       2.4       0.1       0.0       0.1
 5 H  px              0.0       0.1       0.7       0.5       0.3       0.2
 6 H  s               0.2       0.4       6.7       0.2       0.4       0.4
 6 H  pz              0.0       0.6       3.4       0.1       0.1       0.0
 6 H  px              0.0       0.3       0.3       0.3       0.5       0.3
 6 H  py              0.0       0.1       0.0       0.0       0.2       0.0
 7 H  s               1.9       0.7       0.6       0.7       0.3       0.0
 7 H  pz              0.6       0.0       0.9       0.0       0.0       0.1
 7 H  px              0.4       0.2       0.0       0.0       0.1       0.7
 7 H  py              0.1       0.0       0.1       0.1       0.2       0.0
 8 H  s               5.1       0.2       0.2       1.0       0.9       0.3
 8 H  pz              0.0       0.1       0.0       0.3       0.2       0.1
 8 H  px              0.0       0.0       0.1       0.1       0.0       0.1
 8 H  py              1.8       0.1       0.1       0.1       0.0       0.0
 9 H  s               4.8       0.9       0.0       0.8       1.9       1.2
 9 H  pz              0.8       1.3       0.1       0.0       0.3       1.5
 9 H  px              0.8       0.9       0.2       1.2       0.1       0.0

                     42        43        44        45        46        47   
                   0.68087   0.68360   0.70297   0.75152   0.94579   1.01776
                   0.00000   0.00000   0.00000   0.00000   0.00000   0.00000
                  --------  --------  --------  --------  --------  --------
 0 C  s               1.8       1.6       0.6       0.6       0.1       2.4
 0 C  pz              1.4       0.1       0.3       0.5       0.1       2.0
 0 C  px              1.7       0.1       0.6       0.6       0.2       0.2
 0 C  py              0.1       0.2       0.3       0.2       0.1       0.0
 0 C  dz2             0.6       0.0       0.0       0.1       0.0       4.0
 0 C  dxz             0.1       0.2       0.6       0.1       0.1       0.9
 0 C  dyz             0.0       0.3       0.1       0.0       0.0       0.1
 0 C  dx2y2           0.1       0.0       0.3       0.0       0.0       0.0
 0 C  dxy             0.6       0.1       0.3       0.2       0.4       0.2
 1 C  s               1.8       5.8       3.4       1.5       0.3       4.1
 1 C  pz              1.3       0.3       1.3       1.0       0.2       0.5
 1 C  px              4.1       0.9       1.4       2.0       1.4       0.1
 1 C  py              0.1       0.5       0.5       0.2       0.0       0.1
 1 C  dz2             0.0       0.0       0.1       0.0       0.2       5.5
 1 C  dxz             0.2       0.1       0.1       0.0       0.1       0.4
 1 C  dyz             0.5       0.1       0.0       0.1       1.3       0.0
 1 C  dx2y2           0.1       0.0       0.0       0.1       0.1       0.2
 1 C  dxy             0.6       2.3       0.1       0.2       0.2       0.4
 2 C  s              18.2       0.1       0.9       8.4       9.0       0.7
 2 C  pz              1.7       3.5       0.6       3.6       0.9       1.9
 2 C  px              1.4       1.3       0.1       5.4       8.2       0.5
 2 C  py              1.7       1.3       0.4       4.6       0.5       1.3
 2 C  dz2             0.1       0.4       0.5       0.1       0.0       4.8
 2 C  dxz             0.5       1.3       0.3       0.1       0.0       0.1
 2 C  dyz             0.0       1.6       0.2       0.5       0.0       0.0
 2 C  dx2y2           1.1       0.1       0.0       0.2       0.2       0.9
 2 C  dxy             0.0       1.2       0.0       0.9       0.2       0.1
 3 O  s               9.2       0.0      18.9       0.7      37.1       0.0
 3 O  pz              0.4      33.5       0.2       0.4       1.8       0.1
 3 O  px              0.9       5.7       3.6      12.2       5.0       0.4
 3 O  py              1.2       0.2      19.0      30.4      11.2       0.0
 3 O  dz2            11.9       2.8       0.5       3.0       1.2       0.1
 3 O  dxz             0.4       5.3       0.4       1.7       3.6       0.4
 3 O  dyz             7.4      13.8       0.3       1.4       1.6       0.1
 3 O  dx2y2           6.9       0.0       5.7       8.7       0.3       0.2
 3 O  dxy             6.3       6.9       0.3       3.3       7.7       0.1
 4 H  s               0.9       0.1       0.0       0.2       0.0       0.4
 4 H  px              0.5       0.0       0.0       0.1       0.0       0.4
 4 H  py              0.4       0.0       0.0       0.0       0.2       0.0
 5 H  s               0.1       0.0       0.0       0.0       0.0      21.4
 5 H  px              0.0       0.0       0.1       0.1       0.0       0.1
 5 H  py              0.0       0.2       0.0       0.0       0.0       0.0
 6 H  s               0.3       0.3       0.3       0.5       0.6      17.5
 6 H  pz              0.4       0.0       0.1       0.2       0.0       0.6
 6 H  px              0.5       0.0       0.1       0.1       0.1       0.0
 6 H  py              0.1       0.0       0.0       0.0       0.1       0.0
 7 H  s               1.8       2.0       0.2       0.2       1.3      19.2
 7 H  pz              1.1       0.2       0.1       0.2       0.0       0.1
 7 H  px              0.5       0.3       0.2       0.7       0.2       0.0
 7 H  py              0.1       0.7       0.1       0.1       0.0       0.0
 8 H  s               3.5       0.2       0.1       0.9       0.4       6.4
 8 H  pz              0.1       1.2       0.0       0.0       0.0       0.1
 8 H  px              0.1       1.4       0.0       0.2       0.9       0.1
 8 H  py              0.2       0.0       0.0       0.4       0.1       0.3
 9 H  s               2.0       0.4      35.6       1.6       2.0       0.5
 9 H  pz              1.2       0.3       0.0       0.0       0.2       0.0
 9 H  px              1.3       0.5       0.7       1.4       0.2       0.0
 9 H  py              0.7       0.1       0.3       0.1       0.2       0.0

                     48        49        50        51        52        53   
                   1.06454   1.07788   1.09751   1.20725   1.23898   1.27794
                   0.00000   0.00000   0.00000   0.00000   0.00000   0.00000
                  --------  --------  --------  --------  --------  --------
 0 C  s               1.9       2.9       6.8      10.8       0.4       3.4
 0 C  pz              0.8       0.1       1.3       4.7       1.4      17.1
 0 C  px              1.8       3.0       2.5       0.9       4.4      25.9
 0 C  py              0.2       0.2       0.1       0.1       0.2       1.9
 0 C  dz2             0.9       0.2       5.1       2.3       0.0       7.5
 0 C  dxz             0.4       2.4       1.0       3.0       2.9       5.6
 0 C  dyz             0.0       0.4       0.0       0.3       0.1       0.2
 0 C  dx2y2           3.8       2.0       0.0       0.0       0.1       0.0
 0 C  dxy             0.0       1.1       0.0       0.6       0.8       0.5
 1 C  s               0.2       0.9       0.0       1.7       4.3       2.6
 1 C  pz              2.5       0.3       0.0      10.8      16.6       2.5
 1 C  px              3.1       0.7       1.0       0.6       0.6       2.0
 1 C  py              0.4       0.0       0.3       1.0       1.2       0.1
 1 C  dz2             2.2       1.2       0.1       1.1       2.3       0.4
 1 C  dxz             1.1       0.8       1.2       0.0       0.6       4.7
 1 C  dyz             0.1       0.2       0.2       0.0       0.5       0.3
 1 C  dx2y2           0.0       0.0       0.1       3.0       0.6       2.1
 1 C  dxy             0.5       0.0       0.1       0.1       3.6       0.1
 2 C  s               5.0      13.1       6.0       0.5       0.5       0.8
 2 C  pz              0.9       0.5       3.6       0.0      12.4       1.5
 2 C  px              0.2       0.4       0.3       1.8       0.1       0.0
 2 C  py              2.2       2.2       0.1       2.4      16.6       1.6
 2 C  dz2             2.6       0.0       3.7       0.0       1.4       0.0
 2 C  dxz             0.0       0.5       0.4       0.1       1.4       0.0
 2 C  dyz             0.0       1.2       1.7       0.0       1.0       0.1
 2 C  dx2y2           2.5       2.9       0.4       0.1       0.0       0.5
[...]
 3 O  dxz             2.9       1.8      14.1       0.3       7.3       0.0
 3 O  dyz             6.2      12.5       2.9       2.0       1.9       0.1
 3 O  dx2y2           2.2       4.5       1.8       2.8      10.2       2.4
 3 O  dxy             3.8       2.1       1.9       1.0      18.7       3.5
 4 H  s               0.1       0.0       0.2       4.7       0.7       1.3
 4 H  pz              0.0       0.0       0.8       3.1       0.5       1.5
 4 H  px              0.4       0.0       0.7      18.9       3.2       2.9
 4 H  py              0.0       0.0       0.0       1.2       0.2       0.2
 5 H  s               0.1       0.1       0.3       0.3       1.6       2.8
 5 H  pz              0.3       1.0       2.1       1.8       7.8       9.4
 5 H  px              0.0       0.0       0.0       0.1       0.5       0.2
 6 H  s               0.3       0.1       0.1       3.8       0.3       1.1
 6 H  pz              2.3       0.1       0.5      18.8       1.8       3.0
 6 H  px              0.2       0.1       0.6       0.0       0.1       0.7
 7 H  s               0.0       0.2       0.0       0.6       0.0       2.6
 7 H  pz              0.1       1.2       0.0       2.6       0.1       9.7
 7 H  px              1.8       0.1       0.2       0.3       0.5       0.5
 7 H  py              1.5       0.0       1.1       0.0       0.0       0.9
 8 H  s               0.1       0.1       0.5       0.3       0.1       1.3
 8 H  pz              0.2       0.0       0.0       0.0       0.6       0.5
 8 H  px              0.0       0.0       0.0       0.0       1.4       0.2
 8 H  py              0.5       0.4       2.7       2.2       0.1       6.2
 9 H  s               0.1       0.1       0.1       0.0       0.0       0.0
 9 H  pz              0.6       1.8       0.0       0.2       1.4       0.0
 9 H  px              0.2       0.7       0.3       0.3       9.3       0.7
 9 H  py              1.4       1.8       0.7       0.0       0.5       0.0

                    102       103       104       105       106       107   
                   3.46959   3.59514   3.78852   4.08351   4.58221  21.65715
                   0.00000   0.00000   0.00000   0.00000   0.00000   0.00000
                  --------  --------  --------  --------  --------  --------
 0 C  s               0.8       0.3       0.0       0.0       0.0      52.1
 0 C  pz              2.1       0.0       3.0       0.0       0.0       0.0
 0 C  px              1.7       0.5       1.2       0.0       0.0       0.0
 0 C  dz2             9.8       0.0       9.1       0.0       0.0       0.0
 0 C  dxz             2.6       1.4      10.3       0.0       0.0       0.0
 0 C  dyz             0.2       0.1       0.6       0.0       0.0       0.0
 0 C  dx2y2           0.0       0.0       3.4       0.0       0.0       0.0
 0 C  dxy             0.0       0.0       0.9       0.0       0.0       0.0
 1 C  s               2.1       0.1       0.3       0.0       0.0      42.9
 1 C  pz              1.4       0.7       2.1       0.1       0.0       0.0
 1 C  px              3.2       0.3       0.4       0.0       0.0       0.0
 1 C  py              0.1       0.1       0.0       0.0       0.0       0.0
 1 C  dz2             5.8       0.6      13.2       0.0       0.0       0.0
 1 C  dxz             6.1       0.1       3.8       0.1       0.0       0.0
 1 C  dyz             0.6       0.0       0.3       0.0       0.0       0.0
 1 C  dx2y2           0.6       1.4       1.8       0.0       0.0       0.0
 1 C  dxy             0.1       0.1       0.6       0.2       0.0       0.0
 2 C  s               1.0       0.1       0.2       1.8       0.1       4.6
 2 C  pz              1.0       5.0       1.8       2.2       0.1       0.0
 2 C  px              2.2       0.9       0.3       5.2       0.6       0.0
 2 C  py              1.0       8.0       0.0       2.0       0.4       0.0
 2 C  dz2             0.2      18.2       1.0       2.6       0.0       0.0
 2 C  dxz             0.9       0.0       2.9       2.6       0.4       0.0
 2 C  dyz             0.2       0.0       0.4       1.6       0.1       0.0
 2 C  dx2y2           9.1       4.4       0.0       1.3       0.5       0.0
 2 C  dxy             0.4       2.1       0.0       5.5       0.8       0.0
 3 O  s               0.2       1.0       0.1      24.8       6.0       0.0
 3 O  pz              0.4       0.1       0.0       2.7       0.1       0.0
 3 O  px              1.0       0.5       0.2      14.2       0.1       0.0
 3 O  py              0.0       0.3       0.0       2.1      19.3       0.0
 3 O  dz2             0.0       0.0       0.0       8.6       6.5       0.0
 3 O  dxz             1.2       0.1       0.0       7.4       0.2       0.0
 3 O  dyz             0.4       0.3       0.0       2.0       0.9       0.0
 3 O  dx2y2           1.1       0.2       0.7       0.0      24.2       0.0
 3 O  dxy             0.6       0.1       0.2       7.5       8.9       0.0
 4 H  s               0.5       0.2       5.1       0.0       0.0       0.0
 4 H  pz              0.0       0.1       3.8       0.0       0.0       0.0
 4 H  px              2.3       0.2       5.4       0.0       0.0       0.0
 4 H  py              0.1       0.0       0.3       0.0       0.0       0.0
 5 H  s               3.5       0.0       3.4       0.0       0.0       0.0
 5 H  pz             10.5       0.0       6.6       0.0       0.0       0.0
 5 H  px              0.8       0.1       0.1       0.0       0.0       0.0
 6 H  s               2.4       0.3       4.0       0.0       0.0       0.0
 6 H  pz              8.1       0.8       9.0       0.0       0.0       0.0
 6 H  px              0.4       0.0       0.0       0.0       0.0       0.0
 7 H  s               0.5       6.7       1.0       0.8       0.0       0.0
 7 H  pz              1.4      16.4       1.8       1.1       0.0       0.0
 7 H  px              0.9       0.2       0.0       0.1       0.0       0.0
 7 H  py              0.5       0.1       0.0       0.3       0.0       0.0
 8 H  s               1.8       8.3       0.1       0.1       0.1       0.0
 8 H  pz              0.7       0.0       0.0       0.3       0.0       0.0
 8 H  px              0.7       0.7       0.2       0.6       0.0       0.0
 8 H  py              5.6      18.3       0.1       0.0       0.1       0.0
 9 H  s               0.0       0.1       0.0       0.7      14.1       0.0
 9 H  pz              0.2       0.0       0.0       0.0       0.0       0.0
 9 H  px              0.9       0.1       0.0       0.0       0.6       0.0
 9 H  py              0.0       0.1       0.0       1.1      15.4       0.0

                    108       109       110   
                  21.97940  22.12883  43.53748
                   0.00000   0.00000   0.00000
                  --------  --------  --------
 0 C  s               1.1      46.5       0.0
 1 C  s               4.2      52.5       0.0
 2 C  s              94.4       0.6       0.0
 3 O  s               0.1       0.0      99.9


                      *****************************
                      * MAYER POPULATION ANALYSIS *
                      *****************************

  NA   - Mulliken gross atomic population
  ZA   - Total nuclear charge
  QA   - Mulliken gross atomic charge
  VA   - Mayer's total valence
  BVA  - Mayer's bonded valence
  FA   - Mayer's free valence

  ATOM       NA         ZA         QA         VA         BVA        FA
  0 C      6.3418     6.0000    -0.3418     3.9253     3.9253     0.0000
  1 C      6.1057     6.0000    -0.1057     3.6603     3.6603     0.0000
  2 C      6.1594     6.0000    -0.1594     3.8833     3.8833     0.0000
  3 O      8.4180     8.0000    -0.4180     1.8127     1.8127     0.0000
  4 H      0.8555     1.0000     0.1445     0.9710     0.9710     0.0000
  5 H      0.8577     1.0000     0.1423     0.9709     0.9709     0.0000
  6 H      0.8339     1.0000     0.1661     0.9617     0.9617    -0.0000
  7 H      0.8668     1.0000     0.1332     0.9574     0.9574    -0.0000
  8 H      0.8586     1.0000     0.1414     0.9532     0.9532     0.0000
  9 H      0.7026     1.0000     0.2974     0.9107     0.9107     0.0000

  Mayer bond orders larger than 0.100000
B(  0-C ,  1-C ) :   1.8913 B(  0-C ,  4-H ) :   0.9547 B(  0-C ,  5-H ) :   0.9823 
B(  1-C ,  2-C ) :   0.9493 B(  1-C ,  6-H ) :   0.9302 B(  2-C ,  3-O ) :   0.9323 
B(  2-C ,  7-H ) :   1.0038 B(  2-C ,  8-H ) :   0.9525 B(  3-O ,  9-H ) :   0.8975 


-------
TIMINGS
-------

Total SCF time: 0 days 0 hours 0 min 11 sec 

Total time                  ....      11.626 sec
Sum of individual times     ....      11.591 sec  ( 99.7%)

SCF preparation             ....       1.855 sec  ( 16.0%)
Fock matrix formation       ....       4.684 sec  ( 40.3%)
  Startup                   ....       0.007 sec  (  0.2% of F)
  Split-RI-J                ....       0.580 sec  ( 12.4% of F)
  XC integration            ....       3.993 sec  ( 85.3% of F)
    Basis function eval.    ....       0.767 sec  ( 19.2% of XC)
    Density eval.           ....       1.124 sec  ( 28.2% of XC)
    XC-Functional eval.     ....       0.741 sec  ( 18.6% of XC)
    XC-Potential eval.      ....       1.152 sec  ( 28.9% of XC)
Diagonalization             ....       0.000 sec  (  0.0%)
Density matrix formation    ....       0.040 sec  (  0.3%)
Total Energy calculation    ....       0.002 sec  (  0.0%)
Population analysis         ....       4.911 sec  ( 42.2%)
Orbital Transformation      ....       0.012 sec  (  0.1%)
Orbital Orthonormalization  ....       0.000 sec  (  0.0%)
DIIS solution               ....       0.076 sec  (  0.7%)
  MO trafo                  ....       0.000 sec  (  0.0 % of DIIS)
  Orb grad                  ....       0.000 sec  (  0.0 % of DIIS)
  Energy W gradient         ....       0.000 sec  (  0.0 % of DIIS)
  DIIS error                ....       0.003 sec  (  3.3 % of DIIS)
  DIIS work                 ....       0.066 sec  ( 87.0 % of DIIS)
  Form Q                    ....       0.000 sec  (  0.0 % of DIIS)
  Form QpQm                 ....       0.000 sec  (  0.0 % of DIIS)
  Exp/Cayley                ....       0.000 sec  (  0.0 % of DIIS)
  Orb update                ....       0.000 sec  (  0.0 % of DIIS)
  Wake-sleep                ....       0.001 sec  (  1.5 % of DIIS)
SOSCF solution              ....       0.010 sec  (  0.1%)
  MO trafo                  ....       0.008 sec  ( 79.3 % of SOSCF)
  Orb grad                  ....       0.000 sec  (  0.6 % of SOSCF)
  Rot update                ....       0.000 sec  (  0.2 % of SOSCF)
  Step                      ....       0.002 sec  ( 19.6 % of SOSCF)
Finished LeanSCF after  17.1 sec

Maximum memory used throughout the entire LEANSCF-calculation: 11.6 MB


-------------------------------------------------------------------------------
                          DFT DISPERSION CORRECTION                            
                                                                               
                                DFTD4 V3.4.0                                   
-------------------------------------------------------------------------------
The R2SCAN3C composite method is recognized
Using three-body term ABC
Active option DFTDOPT                   ...         5   

-------------------------   ----------------
Dispersion correction           -0.001716008
-------------------------   ----------------

------------------   -----------------
gCP correction             0.004880448
------------------   -----------------

-------------------------   --------------------
FINAL SINGLE POINT ENERGY      -193.068209912789
-------------------------   --------------------


------------------------------------------------------------------------------
                              ORCA PROPERTY CALCULATIONS
------------------------------------------------------------------------------

GBWName                                 ... sp.gbw
Number of atoms                         ...     10
Number of basis functions               ...    111
Max core memory                         ...   1024 MB

Electric properties:
Dipole moment                           ... YES
Quadrupole moment                       ...  NO
Static polarizability (Dipole/Dipole)   ...  NO
Static polarizability (Dipole/Quad.)    ...  NO
Static polarizability (Quad./Quad.)     ...  NO
Static polarizability (Velocity)        ...  NO

Atomic electric properties:
Dipole moment                           ...  NO
Quadrupole moment                       ...  NO
Static polarizability                   ...  NO

Choice of electric origin               ... Center of mass
Position of electric origin             ...     0.000030    -0.000004     0.000005

General magnetic properties:
Magnetizability                         ...  NO

EPR properties:
g-Tensor (aka g-matrix)                 ...  NO
Zero-Field splitting spin-orbit         ...  NO
Zero-field splitting spin-spin          ...  NO
Hyperfine couplings                     ...  NO (   0 nuclei)
Quadrupole couplings                    ...  NO (   0 nuclei)
Contact density                         ...  NO (   0 nuclei)

NMR properties:
Chemical shifts                         ...  NO (   0 nuclei)
Spin-rotation constants                 ...  NO (   0 nuclei)
Spin-spin couplings                     ...  NO (   0 nuclei,    0 pairs)

Choice of magnetic origin               ... GIAO
Position of magnetic origin             ...     0.000000     0.000000     0.000000

Properties with geometric perturbations:
SCF Hessian                             ...  NO
IR spectrum                             ...  NO
VCD spectrum                            ...  NO
X-ray spectroscopy properties:
SCF XES/XAS/RIXS spectra                ...  NO


-------------
DIPOLE MOMENT
-------------

Method             : SCF
Type of density    : Electron Density
Multiplicity       :   1
Irrep              :   0
Energy             :  -193.0713743531138675 Eh
Relativity type    : 
Basis              : AO
                                X                 Y                 Z
Electronic contribution:     -1.941874841       0.286814651      -0.692326608
Nuclear contribution   :      2.410341050      -0.045178804       0.869409389
                        -----------------------------------------
Total Dipole Moment    :      0.468466209       0.241635847       0.177082781
                        -----------------------------------------
Magnitude (a.u.)       :      0.556063649
Magnitude (Debye)      :      1.413401472



--------------------
Rotational spectrum 
--------------------
 
Rotational constants in cm-1:             0.934069             0.143310             0.137932 
Rotational constants in MHz :         28002.669987          4296.324284          4135.108088 

Dipole components along the rotational axes: 
x,y,z [a.u.] :    -0.470689     0.010460     0.295887 
x,y,z [Debye]:    -1.196396     0.026588     0.752086 

 

Dipole moment calculation done in   1.1 sec 

Maximum memory used throughout the entire PROP-calculation: 6.6 MB

--------------------------------
SUGGESTED CITATIONS FOR THIS RUN
--------------------------------

Below you find a list of papers that are relevant to this ORCA run
We neither can nor want to force you to cite these papers, but we appreciate if you do
You receive ORCA, which is the product of decades of hard work by many enthusiastic individuals, for free
The only thing we kindly ask in return is that you cite our papers,
We deeply appreciate it, if you show your appreciation for ORCA by not just citing the generic ORCA reference.

Please note that relegating all ORCA citations to the supporting information does *not* help us.
SI sections are not indexed - citations you put there will not count into any citation statistics
But we need these citations in order to attract the funding resources that allow us to do what we are doing

Therefore, if you are a happy ORCA user, please consider citing a few of the papers listed below in the main body of your paper

In addition to the list printed below, the program has created the file sp.bibtex that contains the list in bibtex format
You can import this file easily into all common literature databanks and citation aid programs


List of essential papers. We consider these as the minimum necessary citations

  1. Neese,F.
     Software update: the ORCA program system, version 5.0
     WIRES Comput. Molec. Sci., 2022 12(1)e1606
     doi.org/10.1002/wcms.1606
  2. Grimme,S.; Hansen,A.; Ehlert,S.; Mewes,J.
     r2SCAN-3c: A 'Swiss army knife' composite electronic-structure method
     J. Chem. Phys., 2021 154 064103
     doi.org/10.1063/5.0040021

List of papers to cite with high priority. The work reported in these papers was absolutely
necessary for this run to complete.
Our perspective: the developers of density functionals and basis sets usually get cited in chemistry papers
Good! But without the algorithms to do something with them, the functionals or basis sets would not do anything.
Hence, in our opinion, the algorithm design and method developments papers are equally worthy of getting cited

  1. Neese,F.
     An improvement of the resolution of the identity approximation for the formation of the Coulomb matrix
     J. Comp. Chem., 2003 24(14)1740-1747
     doi.org/10.1002/jcc.10318
  2. Neese,F.
     The SHARK Integral Generation and Digestion System
     J. Comp. Chem., 2022  1-16
     doi.org/10.1002/jcc.26942
  3. Lehtola,S.; Steigemann,C.; Oliveira,M.; Marques,M.
     Recent developments in Libxc - A comprehensive library of functionals for density functional theory
     Software X, 2018 7 
     doi.org/10.1016/j.softx.2017.11.002
  4. Caldeweyher,E.; Bannwarth,C.; Grimme,S.
     Extension of the D3 dispersion coefficient model
     J. Chem. Phys., 2017 147 034112
     doi.org/10.1063/1.4993215
  5. Caldeweyher,E.; Ehlert,S.; Hansen,A.; Neugebauer,H.; Spicher,S.; Bannwarth,C.; Grimme,S.
     A generally applicable atomic-charge dependent London dispersion correction
     J. Chem. Phys., 2019 150 154122
     doi.org/10.1063/1.5090222
  6. Caldeweyher,E.; Mewes,J.; Ehlert,S.; Grimme,S.
     Extension and evaluation of the D4 London-dispersion model for periodic systems
     Phys. Chem. Chem. Phys., 2020 22(16)8499-8512
     doi.org/10.1039/D0CP00502A
  7. Wittmann,L.; Gordiy,I.; Friede,M.; Helmich-Paris,B.; Grimme,S.; Hansen,A.; Bursch,M.
     Extension of the D3 and D4 London Dispersion Corrections to the full Actinides Series
     Phys. Chem. Chem. Phys., 2024 26(32)21379-21394
     doi.org/https://doi.org/10.1039/D4CP01514B 

List of suggested additional citations. These are papers that are important in the 'surrounding' of 
of this run, or papers that preceded the highly important papers. If you like your results we are grateful for a citation.

  1. Neese,F.
     The ORCA program system
     WIRES Comput. Molec. Sci., 2012 2(1)73-78
     doi.org/10.1002/wcms.81
  2. Neese,F.
     Software update: the ORCA program system, version 4.0
     WIRES Comput. Molec. Sci., 2018 8(1)1-6
     doi.org/10.1002/wcms.1327
  3. Neese,F.; Wennmohs,F.; Becker,U.; Riplinger,C.
     The ORCA quantum chemistry program package
     J. Chem. Phys., 2020 152 Art. No. L224108
     doi.org/10.1063/5.0004608

List of optional additional citations

  1. Neese,F.
     Approximate second-order SCF convergence for spin unrestricted wavefunctions
     Chem. Phys. Lett., 2000 325(1-3)93-98
     doi.org/10.1016/s0009-2614(00)00662-x

Timings for individual modules:

Sum of individual times          ...       18.764 sec (=   0.313 min)
Startup calculation              ...        0.374 sec (=   0.006 min)   2.0 %
SCF iterations                   ...       17.219 sec (=   0.287 min)  91.8 %
Property calculations            ...        1.171 sec (=   0.020 min)   6.2 %
                             ****ORCA TERMINATED NORMALLY****
TOTAL RUN TIME: 0 days 0 hours 0 minutes 22 seconds 794 msec
