
                                 *****************
                                 * O   R   C   A *
                                 *****************

                                            #,                                       
                                            ###                                      
                                            ####                                     
                                            #####                                    
                                            ######                                   
                                           ########,                                 
                                     ,,################,,,,,                         
                               ,,#################################,,                 
                          ,,##########################################,,             
                       ,#########################################, ''#####,          
                    ,#############################################,,   '####,        
                  ,##################################################,,,,####,       
                ,###########''''           ''''###############################       
              ,#####''   ,,,,##########,,,,          '''####'''          '####       
            ,##' ,,,,###########################,,,                        '##       
           ' ,,###''''                  '''############,,,                           
         ,,##''                                '''############,,,,        ,,,,,,###''
      ,#''                                            '''#######################'''  
     '                                                          ''''####''''         
             ,#######,   #######,   ,#######,      ##                                
            ,#'     '#,  ##    ##  ,#'     '#,    #''#        ,####,   ,####,        
            ##       ##  ##   ,#'  ##            #'  '#       #'       #'  '#        
            ##       ##  #######   ##           ,######,      #####,   #    #        
            '#,     ,#'  ##    ##  '#,     ,#' ,#      #,     #,   #   #,  ,#        
             '#######'   ##     ##  '#######'  #'      '#     '####' # '####'        



                #########################################################
                #                        -***-                          #
                #          Department of theory and spectroscopy        #
                #                                                       #
                #                      Frank Neese                      #
                #                                                       #
                #     Directorship, Architecture, Infrastructure        #
                #                    SHARK, DRIVERS                     #
                #        Core code/Algorithms in most modules           #
                #                                                       #
                #        Max Planck Institute fuer Kohlenforschung      #
                #                Kaiser Wilhelm Platz 1                 #
                #                 D-45470 Muelheim/Ruhr                 #
                #                      Germany                          #
                #                                                       #
                #                  All rights reserved                  #
                #                        -***-                          #
                #########################################################


                         Program Version 6.0.0  -   RELEASE  -


 With contributions from (in alphabetic order):
   Daniel Aravena         : Magnetic Suceptibility
   Michael Atanasov       : Ab Initio Ligand Field Theory (pilot matlab implementation)
   Alexander A. Auer      : GIAO ZORA, VPT2 properties, NMR spectrum
   Ute Becker             : All parallelization in ORCA, NUMFREQ, NUMCALC
   Giovanni Bistoni       : ED, misc. LED, open-shell LED, HFLD
   Martin Brehm           : Molecular dynamics
   Dmytro Bykov           : pre 5.0 version of the SCF Hessian
   Marcos Casanova-Páez   : Triplet and SCS-CIS(D). UHF-(DLPNO)-IP/EA/STEOM-CCSD. UHF-CVS-IP/STEOM-CCSD
   Vijay G. Chilkuri      : MRCI spin determinant printing, contributions to CSF-ICE
   Pauline Colinet        : FMM embedding
   Dipayan Datta          : RHF DLPNO-CCSD density
   Achintya Kumar Dutta   : EOM-CC, STEOM-CC
   Nicolas Foglia         : Exact transition moments, OPA infrastructure, MCD improvements
   Dmitry Ganyushin       : Spin-Orbit,Spin-Spin,Magnetic field MRCI
   Miquel Garcia          : C-PCM and meta-GGA Hessian, CCSD/C-PCM, Gaussian charge scheme
   Tiago L. C. Gouveia    : GS-ROHF, GS-ROCIS
   Yang Guo               : DLPNO-NEVPT2, F12-NEVPT2, CIM, IAO-localization
   Andreas Hansen         : Spin unrestricted coupled pair/coupled cluster methods
   Ingolf Harden          : AUTO-CI MPn and infrastructure 
   Benjamin Helmich-Paris : MC-RPA, TRAH-(SCF,CASSCF), AVAS, COSX integrals, SCF dyn. polar.
   Lee Huntington         : MR-EOM, pCC
   Robert Izsak           : Overlap fitted RIJCOSX, COSX-SCS-MP3, EOM
   Riya Kayal             : Wick's Theorem for AUTO-CI, AUTO-CI UHF-CCSDT
   Emily Kempfer          : AUTO-CI, RHF CISDT and CCSDT
   Christian Kollmar      : KDIIS, OOCD, Brueckner-CCSD(T), CCSD density, CASPT2, CASPT2-K, improved NEVPT2
   Axel Koslowski         : Symmetry handling
   Simone Kossmann        : Meta GGA functionals, TD-DFT gradient, OOMP2, (MP2 Hessian; deprecated post 5.0)
   Lucas Lang             : DCDCAS
   Marvin Lechner         : AUTO-CI (C++ implementation), FIC-MRCC
   Spencer Leger          : CASSCF response
   Dagmar Lenk            : GEPOL surface, SMD, ORCA-2-JSON
   Dimitrios Liakos       : Extrapolation schemes; Compound Job, initial MDCI parallelization
   Dimitrios Manganas     : Further ROCIS development; embedding schemes. LFT, Crystal Embedding
   Dimitrios Pantazis     : SARC Basis sets
   Anastasios Papadopoulos: AUTO-CI, single reference methods and gradients
   Taras Petrenko         : pre 6.0 DFT Hessian and TD-DFT gradient, (ASA, deprecated), ECA, 1-Electron XAS/XES, NRVS
   Peter Pinski           : DLPNO-MP2, DLPNO-MP2 Gradient
   Christoph Reimann      : Effective Core Potentials
   Marius Retegan         : Local ZFS, SOC
   Christoph Riplinger    : Optimizer, TS searches, QM/MM, DLPNO-CCSD(T), (RO)-DLPNO pert. Triples
   Michael Roemelt        : Original ROCIS implementation
   Masaaki Saitow         : Open-shell DLPNO-CCSD energy and density
   Barbara Sandhoefer     : DKH picture change effects
   Kantharuban Sivalingam : CASSCF convergence/infrastructure, NEVPT2 and variants, FIC-MRCI
   Bernardo de Souza      : ESD, SOC TD-DFT
   Georgi Stoychev        : AutoAux, RI-MP2 NMR, DLPNO-MP2 response, X2C
   Van Anh Tran           : RI-MP2 g-tensors
   Willem Van den Heuvel  : Paramagnetic NMR
   Zikuan Wang            : NOTCH, Electric field optimization 
   Frank Wennmohs         : Technical directorship and infrastructure
   Hang Xu                : AUTO-CI-Response properties 


 We gratefully acknowledge several colleagues who have allowed us to
 interface, adapt or use parts of their codes:
   Stefan Grimme, W. Hujo, H. Kruse, P. Pracht,  : VdW corrections, initial TS optimization,
                  C. Bannwarth, S. Ehlert,         DFT functionals, gCP, sTDA/sTD-DF
                  L. Wittmann, M. Mueller
   Ed Valeev, F. Pavosevic, A. Kumar             : LibInt (2-el integral package), F12 methods
   Garnet Chan, S. Sharma, J. Yang, R. Olivares  : DMRG
   Ulf Ekstrom                                   : XCFun DFT Library
   Mihaly Kallay                                 : mrcc  (arbitrary order and MRCC methods)
   Frank Weinhold                                : gennbo (NPA and NBO analysis)
   Simon Mueller                                 : openCOSMO-RS
   Christopher J. Cramer and Donald G. Truhlar   : smd solvation model
   Lars Goerigk                                  : TD-DFT with DH, B97 family of functionals
   V. Asgeirsson, H. Jonsson                     : NEB implementation
   FAccTs GmbH                                   : IRC, NEB, NEB-TS, DLPNO-Multilevel, CI-OPT
                                                   MM, QMMM, 2- and 3-layer-ONIOM, Crystal-QMMM,
                                                   LR-CPCM, SF, NACMEs, symmetry and pop. for TD-DFT,
                                                   nearIR, NL-DFT gradient (VV10), updates on ESD,
                                                   ML-optimized integration grids, MBIS, APM,
                                                   GOAT, DOCKER, SOLVATOR, interface openCOSMO-RS
   S Lehtola, MJT Oliveira, MAL Marques          : LibXC Library
   Liviu Ungur et al                             : ANISO software


 Your calculation uses the libint2 library for the computation of 2-el integrals
 For citations please refer to: http://libint.valeyev.net

 Your ORCA version has been built with support for libXC version: 6.2.2
 For citations please refer to: https://libxc.gitlab.io

 This ORCA versions uses:
   CBLAS   interface :  Fast vector & matrix operations
   LAPACKE interface :  Fast linear algebra routines
   SCALAPACK package :  Parallel linear algebra routines
   Shared memory     :  Shared parallel matrices
   BLAS/LAPACK       :  OpenBLAS 0.3.27  USE64BITINT DYNAMIC_ARCH NO_AFFINITY SkylakeX SINGLE_THREADED
        Core in use  :  SkylakeX
   Copyright (c) 2011-2014, The OpenBLAS Project




***************************************
The coordinates will be read from file: censo.xyz
***************************************


Your calculation utilizes the geometrical counterpoise correction gCP
Please cite in your paper:
H.Kruse, S. Grimme J.Chem.Phys., 136, (2012), 154101 
   

Your calculation utilizes the atom-pairwise dispersion correction
based on EEQ partial charges (D4)


================================================================================

----- Orbital basis set information -----
Your calculation utilizes the basis: def2-TZVP
   F. Weigend and R. Ahlrichs, Phys. Chem. Chem. Phys. 7, 3297 (2005).

----- AuxJ basis set information -----
Your calculation utilizes the basis: def2-mTZVPP/J
   Stefan Grimme, Andreas Hansen, Sebastian Ehlert, and Jan-Michael Mewes 
   J. Chem. Phys. 154, 000000 (2021). DOI: 10.1063/5.0040021

================================================================================
                                        WARNINGS
                       Please study these warnings very carefully!
================================================================================

Using LibXC functional ID 497 : Re-regularized SCAN exchange by Furness et al
[ 1]  J. W. Furness, A. D. Kaplan, J. Ning, J. P. Perdew, and J. Sun.,  J. Phys. Chem. Lett. 11, 8208-8215 (2020)
[ 2]  J. W. Furness, A. D. Kaplan, J. Ning, J. P. Perdew, and J. Sun.,  J. Phys. Chem. Lett. 11, 9248-9248 (2020)
Using LibXC functional ID 498 : Re-regularized SCAN correlation by Furness et al
[ 1]  J. W. Furness, A. D. Kaplan, J. Ning, J. P. Perdew, and J. Sun.,  J. Phys. Chem. Lett. 11, 8208-8215 (2020)
[ 2]  J. W. Furness, A. D. Kaplan, J. Ning, J. P. Perdew, and J. Sun.,  J. Phys. Chem. Lett. 11, 9248-9248 (2020)
Using LibXC functional ID 497 : Re-regularized SCAN exchange by Furness et al
[ 1]  J. W. Furness, A. D. Kaplan, J. Ning, J. P. Perdew, and J. Sun.,  J. Phys. Chem. Lett. 11, 8208-8215 (2020)
[ 2]  J. W. Furness, A. D. Kaplan, J. Ning, J. P. Perdew, and J. Sun.,  J. Phys. Chem. Lett. 11, 9248-9248 (2020)
Using LibXC functional ID 498 : Re-regularized SCAN correlation by Furness et al
[ 1]  J. W. Furness, A. D. Kaplan, J. Ning, J. P. Perdew, and J. Sun.,  J. Phys. Chem. Lett. 11, 8208-8215 (2020)
[ 2]  J. W. Furness, A. D. Kaplan, J. Ning, J. P. Perdew, and J. Sun.,  J. Phys. Chem. Lett. 11, 9248-9248 (2020)

================================================================================
                                       INPUT FILE
================================================================================
NAME = censo.inp
|  1> ! r2SCAN-3c DEF2-TZVP FREQ
|  2> * xyzfile 0 1 censo.xyz
|  3> 
|  4>                          ****END OF INPUT****
================================================================================

                       ****************************
                       * Single Point Calculation *
                       ****************************

---------------------------------
CARTESIAN COORDINATES (ANGSTROEM)
---------------------------------
  C     -2.525241    0.738222   -0.002826
  C     -1.223765   -0.012309   -0.001021
  C     -1.200692   -1.406692   -0.003759
  C      0.000041   -2.112329   -0.004699
  C      1.200748   -1.406646   -0.003736
  C      1.223767   -0.012263   -0.000997
  C     -0.000013    0.690846   -0.000819
  N     -0.000038    2.083250   -0.064917
  C      2.525214    0.738320   -0.002767
  H     -3.368142    0.043666   -0.023290
  H     -2.633335    1.368867    0.889454
  H     -2.610408    1.400477   -0.873394
  H     -2.145997   -1.943409   -0.004055
  H      0.000062   -3.197694   -0.007131
  H      2.146073   -1.943327   -0.004013
  H     -0.834967    2.525484    0.291137
  H      0.834864    2.525516    0.291156
  H      3.368141    0.043798   -0.023291
  H      2.610345    1.400639   -0.873288
  H      2.633293    1.368905    0.889557

----------------------------
CARTESIAN COORDINATES (A.U.)
----------------------------
  NO LB      ZA    FRAG     MASS         X           Y           Z
   0 C     6.0000    0    12.011   -4.772015    1.395038   -0.005340
   1 C     6.0000    0    12.011   -2.312580   -0.023261   -0.001930
   2 C     6.0000    0    12.011   -2.268979   -2.658263   -0.007104
   3 C     6.0000    0    12.011    0.000078   -3.991724   -0.008880
   4 C     6.0000    0    12.011    2.269085   -2.658175   -0.007059
   5 C     6.0000    0    12.011    2.312584   -0.023173   -0.001884
   6 C     6.0000    0    12.011   -0.000024    1.305510   -0.001548
   7 N     7.0000    0    14.007   -0.000072    3.936773   -0.122675
   8 C     6.0000    0    12.011    4.771963    1.395223   -0.005229
   9 H     1.0000    0     1.008   -6.364866    0.082516   -0.044011
  10 H     1.0000    0     1.008   -4.976283    2.586783    1.680824
  11 H     1.0000    0     1.008   -4.932957    2.646518   -1.650475
  12 H     1.0000    0     1.008   -4.055346   -3.672510   -0.007663
  13 H     1.0000    0     1.008    0.000117   -6.042766   -0.013475
  14 H     1.0000    0     1.008    4.055489   -3.672356   -0.007583
  15 H     1.0000    0     1.008   -1.577858    4.772472    0.550169
  16 H     1.0000    0     1.008    1.577665    4.772534    0.550206
  17 H     1.0000    0     1.008    6.364865    0.082765   -0.044013
  18 H     1.0000    0     1.008    4.932838    2.646825   -1.650276
  19 H     1.0000    0     1.008    4.976203    2.586855    1.681020

--------------------------------
INTERNAL COORDINATES (ANGSTROEM)
--------------------------------
 C      0   0   0     0.000000000000     0.00000000     0.00000000
 C      1   0   0     1.502378958212     0.00000000     0.00000000
 C      2   1   0     1.394576559508   120.91877076     0.00000000
 C      3   2   1     1.392725848262   121.38953700   179.87575782
 C      4   3   2     1.392726468662   119.11464993   359.95868813
 C      5   4   3     1.394575791756   121.38952893     0.04131242
 C      2   1   3     1.411380858739   120.14770805   179.79715511
 N      7   2   1     1.393878860167   119.84492687   357.03106931
 C      6   5   4     1.502379090859   120.91882244   180.12385413
 H      1   2   3     1.092386792353   110.53775903   359.05188533
 H      1   2   3     1.097979648557   111.79209061   119.04668680
 H      1   2   3     1.097143116325   111.69977931   238.76994010
 H      3   2   1     1.087044281132   118.63866691   359.80872108
 H      4   3   2     1.085367359873   120.44265709   180.01795038
 H      5   4   3     1.087044144925   119.97171781   179.97339138
 H      8   7   2     1.009678211772   114.91857292    25.76775693
 H      8   7   2     1.009677876941   114.91865797   157.27671531
 H      9   6   5     1.092386746656   110.53773607     0.95272037
 H      9   6   5     1.097142622805   111.69990399   121.23471320
 H      9   6   5     1.097980235463   111.79192089   240.95799569

---------------------------
INTERNAL COORDINATES (A.U.)
---------------------------
 C      0   0   0     0.000000000000     0.00000000     0.00000000
 C      1   0   0     2.839084780386     0.00000000     0.00000000
 C      2   1   0     2.635367770256   120.91877076     0.00000000
 C      3   2   1     2.631870432848   121.38953700   179.87575782
 C      4   3   2     2.631871605234   119.11464993   359.95868813
 C      5   4   3     2.635366319416   121.38952893     0.04131242
 C      2   1   3     2.667123293676   120.14770805   179.79715511
 N      7   2   1     2.634049309578   119.84492687   357.03106931
 C      6   5   4     2.839085031052   120.91882244   180.12385413
 H      1   2   3     2.064311869860   110.53775903   359.05188533
 H      1   2   3     2.074880836392   111.79209061   119.04668680
 H      1   2   3     2.073300019571   111.69977931   238.76994010
 H      3   2   1     2.054215986784   118.63866691   359.80872108
 H      4   3   2     2.051047064857   120.44265709   180.01795038
 H      5   4   3     2.054215729391   119.97171781   179.97339138
 H      8   7   2     1.908015303637   114.91857292    25.76775693
 H      8   7   2     1.908014670898   114.91865797   157.27671531
 H      9   6   5     2.064311783505   110.53773607     0.95272037
 H      9   6   5     2.073299086954   111.69990399   121.23471320
 H      9   6   5     2.074881945484   111.79192089   240.95799569

---------------------
BASIS SET INFORMATION
---------------------
There are 3 groups of distinct atoms

 Group   1 Type C   : 11s6p2d1f contracted to 5s3p2d1f pattern {62111/411/11/1}
 Group   2 Type N   : 11s6p2d1f contracted to 5s3p2d1f pattern {62111/411/11/1}
 Group   3 Type H   : 5s1p contracted to 3s1p pattern {311/1}

Atom   0C    basis set group =>   1
Atom   1C    basis set group =>   1
Atom   2C    basis set group =>   1
Atom   3C    basis set group =>   1
Atom   4C    basis set group =>   1
Atom   5C    basis set group =>   1
Atom   6C    basis set group =>   1
Atom   7N    basis set group =>   2
Atom   8C    basis set group =>   1
Atom   9H    basis set group =>   3
Atom  10H    basis set group =>   3
Atom  11H    basis set group =>   3
Atom  12H    basis set group =>   3
Atom  13H    basis set group =>   3
Atom  14H    basis set group =>   3
Atom  15H    basis set group =>   3
Atom  16H    basis set group =>   3
Atom  17H    basis set group =>   3
Atom  18H    basis set group =>   3
Atom  19H    basis set group =>   3
---------------------------------
AUXILIARY/J BASIS SET INFORMATION
---------------------------------
There are 3 groups of distinct atoms

 Group   1 Type C   : 8s3p3d contracted to 6s3p3d pattern {311111/111/111}
 Group   2 Type N   : 8s3p3d contracted to 6s3p3d pattern {311111/111/111}
 Group   3 Type H   : 5s2p1d contracted to 3s1p1d pattern {311/2/1}

Atom   0C    basis set group =>   1
Atom   1C    basis set group =>   1
Atom   2C    basis set group =>   1
Atom   3C    basis set group =>   1
Atom   4C    basis set group =>   1
Atom   5C    basis set group =>   1
Atom   6C    basis set group =>   1
Atom   7N    basis set group =>   2
Atom   8C    basis set group =>   1
Atom   9H    basis set group =>   3
Atom  10H    basis set group =>   3
Atom  11H    basis set group =>   3
Atom  12H    basis set group =>   3
Atom  13H    basis set group =>   3
Atom  14H    basis set group =>   3
Atom  15H    basis set group =>   3
Atom  16H    basis set group =>   3
Atom  17H    basis set group =>   3
Atom  18H    basis set group =>   3
Atom  19H    basis set group =>   3
------------------------------------------------------------------------------
                             ORCA STARTUP CALCULATIONS
                           -- RI-GTO INTEGRALS CHOSEN --
------------------------------------------------------------------------------
------------------------------------------------------------------------------
                   ___                                                        
                  /   \      - P O W E R E D   B Y -                         
                 /     \                                                     
                 |  |  |   _    _      __       _____    __    __             
                 |  |  |  | |  | |    /  \     |  _  \  |  |  /  |          
                  \  \/   | |  | |   /    \    | | | |  |  | /  /          
                 / \  \   | |__| |  /  /\  \   | |_| |  |  |/  /          
                |  |  |   |  __  | /  /__\  \  |    /   |      \           
                |  |  |   | |  | | |   __   |  |    \   |  |\   \          
                \     /   | |  | | |  |  |  |  | |\  \  |  | \   \       
                 \___/    |_|  |_| |__|  |__|  |_| \__\ |__|  \__/        
                                                                              
                      - O R C A' S   B I G   F R I E N D -                    
                                      &                                       
                       - I N T E G R A L  F E E D E R -                       
                                                                              
 v1 FN, 2020, v2 2021, v3 2022-2024                                           
------------------------------------------------------------------------------


----------------------
SHARK INTEGRAL PACKAGE
----------------------

Number of atoms                             ...     20
Number of basis functions                   ...    345
Number of shells                            ...    143
Maximum angular momentum                    ...      3
Integral batch strategy                     ... SHARK/LIBINT Hybrid
RI-J (if used) integral strategy            ... SPLIT-RIJ (Revised 2003 algorithm where possible)
Printlevel                                  ...      1
Contraction scheme used                     ... SEGMENTED contraction
Prescreening option                         ... SCHWARTZ
   Thresh                                   ... 1.000e-10
   Tcut                                     ... 1.000e-11
   Tpresel                                  ... 1.000e-11 
Coulomb Range Separation                    ... NOT USED
Exchange Range Separation                   ... NOT USED
Multipole approximations                    ... NOT USED
Finite Nucleus Model                        ... NOT USED
CABS basis                                  ... NOT available
Auxiliary Coulomb fitting basis             ... AVAILABLE
   # of basis functions in Aux-J            ...    391
   # of shells in Aux-J                     ...    163
   Maximum angular momentum in Aux-J        ...      2
Auxiliary J/K fitting basis                 ... NOT available
Auxiliary Correlation fitting basis         ... NOT available
Auxiliary 'external' fitting basis          ... NOT available

Checking pre-screening integrals            ... done (  0.0 sec) Dimension = 143
Check shell pair data                       ... done (  0.0 sec)
Shell pair information
Shell pair cut-off parameter TPreSel        ...   1.0e-11
Total number of shell pairs                 ...     10296
Shell pairs after pre-screening             ...      9254
Total number of primitive shell pairs       ...     30612
Primitive shell pairs kept                  ...     20469
          la=0 lb=0:   2636 shell pairs
          la=1 lb=0:   2673 shell pairs
          la=1 lb=1:    683 shell pairs
          la=2 lb=0:   1294 shell pairs
          la=2 lb=1:    647 shell pairs
          la=2 lb=2:    165 shell pairs
          la=3 lb=0:    629 shell pairs
          la=3 lb=1:    323 shell pairs
          la=3 lb=2:    159 shell pairs
          la=3 lb=3:     45 shell pairs

Calculating one electron integrals          ... done (  0.1 sec)
Calculating RI/J V-Matrix + Cholesky decomp.... done (  0.1 sec)
Calculating Nuclear repulsion               ... done (  0.0 sec) ENN=    431.415109697615 Eh

Diagonalization of the overlap matrix:
Smallest eigenvalue                        ... 6.690e-06
Time for diagonalization                   ...    0.013 sec
Threshold for overlap eigenvalues          ... 1.000e-07
Number of eigenvalues below threshold      ... 0
Time for construction of square roots      ...    0.025 sec
Total time needed                          ...    0.048 sec

-------------------
DFT GRID GENERATION
-------------------

General Integration Accuracy     IntAcc      ... 4.388
Radial Grid Type                 RadialGrid  ... OptM3 with GC (2021)
Angular Grid (max. ang.)         AngularGrid ... 4 (Lebedev-302)
Angular grid pruning method      GridPruning ... 4 (adaptive)
Weight generation scheme         WeightScheme... mBecke (2022)
Basis function cutoff            BFCut       ... 1.0000e-10
Integration weight cutoff        WCut        ... 1.0000e-14
Partially contracted basis set               ... off
Rotationally invariant grid construction     ... off
Angular grids for H and He will be reduced by one unit

Total number of grid points                  ...    89203
Total number of batches                      ...     1403
Average number of points per batch           ...       63
Average number of grid points per atom       ...     4460
Initializing property integral containers    ... done (  0.0 sec)

SHARK setup successfully completed in   1.5 seconds

Maximum memory used throughout the entire STARTUP-calculation: 52.1 MB
-------------------------------------------------------------------------------
                                 ORCA GUESS
                   Start orbitals & Density for SCF / CASSCF
-------------------------------------------------------------------------------

------------
SCF SETTINGS
------------
Hamiltonian:
 Density Functional     Method          .... DFT(GTOs)
  Functional kind                       .... Exchange
  Functional name                       .... Re-regularized SCAN exchange by Furness et al
  Functional family                     .... MGGA
  Functional refs                              
    [ 0] J. W. Furness, A. D. Kaplan, J. Ning, J. P. Perdew, and J. Sun.,  J. Phys. Chem. Lett. 11, 8208-8215 (2020), doi: 10.1021/acs.jpclett.0c02405
    [ 1] J. W. Furness, A. D. Kaplan, J. Ning, J. P. Perdew, and J. Sun.,  J. Phys. Chem. Lett. 11, 9248-9248 (2020), doi: 10.1021/acs.jpclett.0c03077
  Functional external parameters        .... 6
    Parameter  0 _c1        =  6.670000e-01 : c1 parameter        
    Parameter  1 _c2        =  8.000000e-01 : c2 parameter        
    Parameter  2 _d         =  1.240000e+00 : d parameter         
    Parameter  3 _k1        =  6.500000e-02 : k1 parameter        
    Parameter  4 _eta       =  1.000000e-03 : eta parameter       
    Parameter  5 _dp2       =  3.610000e-01 : dp2 parameter       
  Functional kind                       .... Correlation
  Functional name                       .... Re-regularized SCAN correlation by Furness et al
  Functional family                     .... MGGA
  Functional refs                              
    [ 0] J. W. Furness, A. D. Kaplan, J. Ning, J. P. Perdew, and J. Sun.,  J. Phys. Chem. Lett. 11, 8208-8215 (2020), doi: 10.1021/acs.jpclett.0c02405
    [ 1] J. W. Furness, A. D. Kaplan, J. Ning, J. P. Perdew, and J. Sun.,  J. Phys. Chem. Lett. 11, 9248-9248 (2020), doi: 10.1021/acs.jpclett.0c03077
  Functional external parameters        .... 1
    Parameter  0 _eta       =  1.000000e-03 : Regularization parameter
 Gradients option       PostSCFGGA      .... off
 RI-approximation to the Coulomb term is turned on
   Number of AuxJ basis functions       .... 391


General Settings:
 Integral files         IntName         .... censo
 Hartree-Fock type      HFTyp           .... RHF
 Total Charge           Charge          ....    0
 Multiplicity           Mult            ....    1
 Number of Electrons    NEL             ....   66
 Basis Dimension        Dim             ....  345
 Nuclear Repulsion      ENuc            ....    431.4151096976 Eh

Convergence Acceleration:
 AO-DIIS                CNVDIIS         .... on
   Start iteration      DIISMaxIt       ....    12
   Startup error        DIISStart       ....  0.200000
   # of expansion vecs  DIISMaxEq       ....     5
   Bias factor          DIISBfac        ....   1.050
   Max. coefficient     DIISMaxC        ....  10.000
 MO-DIIS                CNVKDIIS        .... off
 Trust-Rad. Augm. Hess. CNVTRAH         .... auto
   Auto Start mean grad. ratio tolernc. ....  1.125000
   Auto Start start iteration           ....    50
   Auto Start num. interpolation iter.  ....    10
   Max. Number of Micro iterations      ....    24
   Max. Number of Macro iterations      .... Maxiter - #DIIS iter
   Number of Davidson start vectors     ....     2
   Converg. threshold    (grad. norm)   ....   5.000e-05
   Grad. Scal. Fac. for Micro threshold ....   0.100
   Minimum threshold for Micro iter.    ....   1.000e-02
   NR start threshold (gradient norm)   ....   1.000e-04
   Initial trust radius                 ....   0.400
   Minimum AH scaling param. (alpha)    ....   1.000
   Maximum AH scaling param. (alpha)    .... 1000.000
   Quad. conv. algorithm                .... NR
   White noise on init. David. guess    .... on
   Maximum white noise                  ....   0.010
   Pseudo random numbers                .... off
   Inactive MOs                         .... canonical
   Orbital update algorithm             .... Taylor
   Preconditioner                       .... Diag
   Full preconditioner red. dimension   ....   250
   COSX micro iterations for RIJONX calc.... off
 SOSCF                  CNVSOSCF        .... on
   Start iteration      SOSCFMaxIt      ....   150
   Startup grad/error   SOSCFStart      ....  0.003300
   Hessian update       SOSCFHessUp     .... L-BFGS
 Level Shifting         CNVShift        .... on
   Level shift para.    LevelShift      ....    0.2500
   Turn off err/grad.   ShiftErr        ....    0.0010
 Zerner damping         CNVZerner       .... off
 Static damping         CNVDamp         .... on
   Fraction old density DampFac         ....    0.7000
   Max. Damping (<1)    DampMax         ....    0.9800
   Min. Damping (>=0)   DampMin         ....    0.0000
   Turn off err/grad.   DampErr         ....    0.1000

SCF Procedure:
 Maximum # iterations   MaxIter         ....   125
 SCF integral mode      SCFMode         .... Direct
   Integral package                     .... SHARK and LIBINT hybrid scheme
 Reset frequency        DirectResetFreq ....    20
 Integral Threshold     Thresh          ....  1.000e-10 Eh
 Primitive CutOff       TCut            ....  1.000e-11 Eh

Convergence Tolerance:
 Convergence Check Mode ConvCheckMode   .... Total+1el-Energy
 Convergence forced     ConvForced      .... 0
 Energy Change          TolE            ....  1.000e-06 Eh
 1-El. energy change                    ....  1.000e-03 Eh
 Orbital Gradient       TolG            ....  5.000e-05
 Orbital Rotation angle TolX            ....  5.000e-05
 DIIS Error             TolErr          ....  1.000e-06

------------------------------
INITIAL GUESS: MODEL POTENTIAL
------------------------------
Loading Hartree-Fock densities                     ... done
Calculating cut-offs                               ... done
Initializing the effective Hamiltonian             ... done
Setting up the integral package (SHARK)            ... done
Starting the Coulomb interaction                   ... done (   0.5 sec)
Making the grid                                    ... done (   0.3 sec)
Mapping shells                                     ... done
Starting the XC term evaluation                    ... done (   0.6 sec)
  promolecular density results
     # of electrons  =     65.992468784
     EX              =    -50.714248765
     EC              =     -2.175631306
     EX+EC           =    -52.889880071
Transforming the Hamiltonian                       ... done (   0.0 sec)
Diagonalizing the Hamiltonian                      ... done (   0.0 sec)
Back transforming the eigenvectors                 ... done (   0.0 sec)
Now organizing SCF variables                       ... done
                      ------------------
                      INITIAL GUESS DONE (   1.5 sec)
                      ------------------
             **** ENERGY FILE WAS UPDATED (censo.en.tmp) ****
Finished Guess after   1.7 sec
Maximum memory used throughout the entire GUESS-calculation: 34.9 MB

-------------------------------------------------------------------------------------------
                                      ORCA LEAN-SCF
                              memory conserving SCF solver
-------------------------------------------------------------------------------------------

----------------------------------------D-I-I-S--------------------------------------------
Iteration    Energy (Eh)           Delta-E    RMSDP     MaxDP     DIISErr   Damp  Time(sec)
-------------------------------------------------------------------------------------------
               ***  Starting incremental Fock matrix formation  ***
    1    -365.8906467080182665     0.00e+00  1.57e-03  4.35e-02  2.39e-01  0.700   5.3
    2    -366.0203850809327832    -1.30e-01  1.09e-03  3.17e-02  1.11e-01  0.700   4.7
                               ***Turning on AO-DIIS***
    3    -366.0718685093785325    -5.15e-02  6.22e-04  1.60e-02  3.62e-02  0.700   4.6
    4    -366.1012673360512508    -2.94e-02  1.51e-03  5.00e-02  1.65e-02  0.000   4.4
    5    -366.1656519510704584    -6.44e-02  2.66e-04  9.01e-03  9.03e-03  0.000   4.5
                              *** Initializing SOSCF ***
---------------------------------------S-O-S-C-F--------------------------------------
Iteration    Energy (Eh)           Delta-E    RMSDP     MaxDP     MaxGrad    Time(sec)
--------------------------------------------------------------------------------------
    6    -366.1661798989126737    -5.28e-04  1.28e-04  3.90e-03  1.46e-03     4.2
               *** Restarting incremental Fock matrix formation ***
    7    -366.1662126459958699    -3.27e-05  9.03e-05  2.60e-03  2.22e-04     5.2
    8    -366.1662113747597687     1.27e-06  2.01e-05  5.73e-04  3.08e-04     3.9
    9    -366.1662168229481722    -5.45e-06  1.87e-05  5.58e-04  1.21e-04     3.8
   10    -366.1662165846023527     2.38e-07  5.20e-06  1.05e-04  1.67e-04     3.7
                 **** Energy Check signals convergence ****

               *****************************************************
               *                     SUCCESS                       *
               *           SCF CONVERGED AFTER  10 CYCLES          *
               *****************************************************

             **** ENERGY FILE WAS UPDATED (censo.en.tmp) ****

----------------
TOTAL SCF ENERGY
----------------

Total Energy       :       -366.16621658460235 Eh           -9963.88931 eV

Components:
Nuclear Repulsion  :        431.41510969761453 Eh           11739.40195 eV
Electronic Energy  :       -797.58132628221688 Eh          -21703.29126 eV
One Electron Energy:      -1348.46883035973610 Eh          -36693.70235 eV
Two Electron Energy:        550.88750407751922 Eh           14990.41108 eV

Virial components:
Potential Energy   :       -730.49736896904483 Eh          -19877.84398 eV
Kinetic Energy     :        364.33115238444253 Eh            9913.95467 eV
Virial Ratio       :          2.00503680288702

DFT components:
N(Alpha)           :       33.000069832410 electrons
N(Beta)            :       33.000069832410 electrons
N(Total)           :       66.000139664820 electrons
E(X)               :      -52.213449644084 Eh       
E(C)               :       -2.104880244590 Eh       
E(XC)              :      -54.318329888674 Eh       

---------------
SCF CONVERGENCE
---------------

  Last Energy change         ...   -2.3835e-07  Tolerance :   1.0000e-06
  Last MAX-Density change    ...    1.0519e-04  Tolerance :   1.0000e-05
  Last RMS-Density change    ...    5.2016e-06  Tolerance :   1.0000e-06
  Last DIIS Error            ...    1.4581e-03  Tolerance :   1.0000e-06
  Last Orbital Gradient      ...    1.6739e-04  Tolerance :   5.0000e-05
  Last Orbital Rotation      ...    3.3822e-04  Tolerance :   5.0000e-05


----------------
ORBITAL ENERGIES
----------------

  NO   OCC          E(Eh)            E(eV) 
   0   2.0000     -14.167278      -385.5112 
   1   2.0000     -10.064552      -273.8704 
   2   2.0000     -10.032357      -272.9943 
   3   2.0000     -10.032345      -272.9940 
   4   2.0000     -10.031232      -272.9637 
   5   2.0000     -10.031232      -272.9637 
   6   2.0000     -10.022110      -272.7155 
   7   2.0000     -10.022100      -272.7152 
   8   2.0000     -10.016404      -272.5602 
   9   2.0000      -0.887605       -24.1530 
  10   2.0000      -0.798991       -21.7417 
  11   2.0000      -0.746442       -20.3117 
  12   2.0000      -0.706618       -19.2280 
  13   2.0000      -0.652310       -17.7503 
  14   2.0000      -0.641836       -17.4652 
  15   2.0000      -0.552619       -15.0375 
  16   2.0000      -0.546347       -14.8668 
  17   2.0000      -0.480563       -13.0768 
  18   2.0000      -0.478119       -13.0103 
  19   2.0000      -0.423602       -11.5268 
  20   2.0000      -0.405292       -11.0285 
  21   2.0000      -0.399714       -10.8768 
  22   2.0000      -0.384293       -10.4571 
  23   2.0000      -0.383221       -10.4280 
  24   2.0000      -0.373214       -10.1557 
  25   2.0000      -0.365313        -9.9407 
  26   2.0000      -0.341317        -9.2877 
  27   2.0000      -0.326322        -8.8797 
  28   2.0000      -0.307560        -8.3691 
  29   2.0000      -0.299782        -8.1575 
  30   2.0000      -0.283379        -7.7111 
  31   2.0000      -0.213949        -5.8218 
  32   2.0000      -0.180687        -4.9167 
  33   0.0000      -0.017995        -0.4897 
  34   0.0000      -0.008445        -0.2298 
  35   0.0000       0.029041         0.7902 
  36   0.0000       0.060393         1.6434 
  37   0.0000       0.069615         1.8943 
  38   0.0000       0.096681         2.6308 
  39   0.0000       0.101923         2.7735 
  40   0.0000       0.108777         2.9600 
  41   0.0000       0.112245         3.0543 
  42   0.0000       0.114745         3.1224 
  43   0.0000       0.141349         3.8463 
*Only the first 10 virtual orbitals were printed.

                    ********************************
                    * MULLIKEN POPULATION ANALYSIS *
                    ********************************

-----------------------
MULLIKEN ATOMIC CHARGES
-----------------------
   0 C :   -0.411980
   1 C :    0.051780
   2 C :   -0.145527
   3 C :   -0.150800
   4 C :   -0.145552
   5 C :    0.051810
   6 C :    0.163071
   7 N :   -0.429556
   8 C :   -0.411962
   9 H :    0.111457
  10 H :    0.107682
  11 H :    0.132361
  12 H :    0.088625
  13 H :    0.097204
  14 H :    0.088630
  15 H :    0.225628
  16 H :    0.225628
  17 H :    0.111457
  18 H :    0.132359
  19 H :    0.107686
Sum of atomic charges:    0.0000000

--------------------------------
MULLIKEN REDUCED ORBITAL CHARGES
--------------------------------
  0 C s       :     3.335994  s :     3.335994
      pz      :     1.030910  p :     3.024578
      px      :     0.946253
      py      :     1.047415
      dz2     :     0.001749  d :     0.047587
      dxz     :     0.012470
      dyz     :     0.013533
      dx2y2   :     0.012837
      dxy     :     0.006999
      f0      :     0.000340  f :     0.003820
      f+1     :    -0.000055
      f-1     :     0.001225
      f+2     :     0.000080
      f-2     :     0.000316
      f+3     :     0.000973
      f-3     :     0.000942

  1 C s       :     3.297030  s :     3.297030
      pz      :     0.975126  p :     2.510556
      px      :     0.798425
      py      :     0.737004
      dz2     :     0.004827  d :     0.128913
      dxz     :     0.020602
      dyz     :     0.027023
      dx2y2   :     0.034694
      dxy     :     0.041768
      f0      :     0.001876  f :     0.011721
      f+1     :     0.000774
      f-1     :     0.000717
      f+2     :     0.001099
      f-2     :     0.001175
      f+3     :     0.003853
      f-3     :     0.002227

  2 C s       :     3.232736  s :     3.232736
      pz      :     0.991222  p :     2.823614
      px      :     0.938841
      py      :     0.893552
      dz2     :     0.003152  d :     0.080317
      dxz     :     0.009351
      dyz     :     0.022442
      dx2y2   :     0.022546
      dxy     :     0.022824
      f0      :     0.001740  f :     0.008860
      f+1     :     0.000663
      f-1     :     0.000629
      f+2     :     0.001057
      f-2     :     0.000494
      f+3     :     0.002500
      f-3     :     0.001777

  3 C s       :     3.227499  s :     3.227499
      pz      :     1.006459  p :     2.837902
      px      :     0.918129
      py      :     0.913314
      dz2     :     0.003651  d :     0.076710
      dxz     :     0.023915
      dyz     :     0.005124
      dx2y2   :     0.022969
      dxy     :     0.021051
      f0      :     0.001762  f :     0.008689
      f+1     :     0.000642
      f-1     :     0.000702
      f+2     :     0.000173
      f-2     :     0.001294
      f+3     :     0.002434
      f-3     :     0.001683

  4 C s       :     3.232742  s :     3.232742
      pz      :     0.991221  p :     2.823633
      px      :     0.938844
      py      :     0.893567
      dz2     :     0.003152  d :     0.080318
      dxz     :     0.009351
      dyz     :     0.022443
      dx2y2   :     0.022547
      dxy     :     0.022825
      f0      :     0.001740  f :     0.008860
      f+1     :     0.000663
      f-1     :     0.000629
      f+2     :     0.001057
      f-2     :     0.000494
      f+3     :     0.002500
      f-3     :     0.001777

  5 C s       :     3.296949  s :     3.296949
      pz      :     0.975125  p :     2.510606
      px      :     0.798461
      py      :     0.737020
      dz2     :     0.004827  d :     0.128914
      dxz     :     0.020602
      dyz     :     0.027023
      dx2y2   :     0.034696
      dxy     :     0.041767
      f0      :     0.001876  f :     0.011721
      f+1     :     0.000774
      f-1     :     0.000717
      f+2     :     0.001099
      f-2     :     0.001175
      f+3     :     0.003853
      f-3     :     0.002227

  6 C s       :     3.005076  s :     3.005076
      pz      :     0.932083  p :     2.667500
      px      :     0.954405
      py      :     0.781012
      dz2     :     0.001968  d :     0.149459
      dxz     :     0.023506
      dyz     :     0.040973
      dx2y2   :     0.041402
      dxy     :     0.041609
      f0      :     0.002275  f :     0.014894
      f+1     :     0.000753
      f-1     :     0.001099
      f+2     :     0.002218
      f-2     :     0.001122
      f+3     :     0.004743
      f-3     :     0.002683

  7 N s       :     3.505494  s :     3.505494
      pz      :     1.658379  p :     3.881598
      px      :     1.118443
      py      :     1.104776
      dz2     :     0.003213  d :     0.039314
      dxz     :     0.004552
      dyz     :     0.011841
      dx2y2   :     0.006603
      dxy     :     0.013106
      f0      :     0.000693  f :     0.003150
      f+1     :     0.000197
      f-1     :     0.000433
      f+2     :     0.000275
      f-2     :     0.000180
      f+3     :     0.000530
      f-3     :     0.000842

  8 C s       :     3.335977  s :     3.335977
      pz      :     1.030909  p :     3.024578
      px      :     0.946258
      py      :     1.047411
      dz2     :     0.001749  d :     0.047587
      dxz     :     0.012469
      dyz     :     0.013534
      dx2y2   :     0.012838
      dxy     :     0.006998
      f0      :     0.000340  f :     0.003820
      f+1     :    -0.000055
      f-1     :     0.001225
      f+2     :     0.000080
      f-2     :     0.000316
      f+3     :     0.000973
      f-3     :     0.000942

  9 H s       :     0.864966  s :     0.864966
      pz      :     0.005292  p :     0.023577
      px      :     0.010280
      py      :     0.008004

 10 H s       :     0.869367  s :     0.869367
      pz      :     0.009922  p :     0.022951
      px      :     0.005351
      py      :     0.007679

 11 H s       :     0.844915  s :     0.844915
      pz      :     0.009630  p :     0.022724
      px      :     0.005182
      py      :     0.007912

 12 H s       :     0.887842  s :     0.887842
      pz      :     0.005741  p :     0.023534
      px      :     0.011183
      py      :     0.006610

 13 H s       :     0.879052  s :     0.879052
      pz      :     0.006073  p :     0.023744
      px      :     0.004400
      py      :     0.013271

 14 H s       :     0.887836  s :     0.887836
      pz      :     0.005741  p :     0.023534
      px      :     0.011183
      py      :     0.006610

 15 H s       :     0.734791  s :     0.734791
      pz      :     0.014013  p :     0.039581
      px      :     0.015648
      py      :     0.009920

 16 H s       :     0.734791  s :     0.734791
      pz      :     0.014014  p :     0.039581
      px      :     0.015647
      py      :     0.009921

 17 H s       :     0.864966  s :     0.864966
      pz      :     0.005293  p :     0.023577
      px      :     0.010281
      py      :     0.008004

 18 H s       :     0.844917  s :     0.844917
      pz      :     0.009630  p :     0.022724
      px      :     0.005182
      py      :     0.007913

 19 H s       :     0.869363  s :     0.869363
      pz      :     0.009922  p :     0.022951
      px      :     0.005351
      py      :     0.007678



                     *******************************
                     * LOEWDIN POPULATION ANALYSIS *
                     *******************************

----------------------
LOEWDIN ATOMIC CHARGES
----------------------
   0 C :   -0.263802
   1 C :   -0.163855
   2 C :   -0.130765
   3 C :   -0.166607
   4 C :   -0.130765
   5 C :   -0.163854
   6 C :   -0.189430
   7 N :   -0.033779
   8 C :   -0.263802
   9 H :    0.128612
  10 H :    0.121917
  11 H :    0.128033
  12 H :    0.142361
  13 H :    0.139352
  14 H :    0.142361
  15 H :    0.162730
  16 H :    0.162730
  17 H :    0.128612
  18 H :    0.128032
  19 H :    0.121919

-------------------------------
LOEWDIN REDUCED ORBITAL CHARGES
-------------------------------
  0 C s       :     2.824236  s :     2.824236
      pz      :     1.061669  p :     3.153949
      px      :     1.033935
      py      :     1.058345
      dz2     :     0.031571  d :     0.260428
      dxz     :     0.035738
      dyz     :     0.072096
      dx2y2   :     0.053096
      dxy     :     0.067928
      f0      :     0.002082  f :     0.025189
      f+1     :     0.002880
      f-1     :     0.003660
      f+2     :     0.004137
      f-2     :     0.002115
      f+3     :     0.005906
      f-3     :     0.004409

  1 C s       :     2.713988  s :     2.713988
      pz      :     0.878065  p :     2.876427
      px      :     0.976751
      py      :     1.021611
      dz2     :     0.033259  d :     0.516229
      dxz     :     0.068932
      dyz     :     0.078867
      dx2y2   :     0.160599
      dxy     :     0.174572
      f0      :     0.004173  f :     0.057211
      f+1     :     0.004204
      f-1     :     0.004332
      f+2     :     0.006847
      f-2     :     0.006756
      f+3     :     0.021434
      f-3     :     0.009463

  2 C s       :     2.763159  s :     2.763159
      pz      :     0.899164  p :     2.926382
      px      :     1.003247
      py      :     1.023971
      dz2     :     0.026061  d :     0.397755
      dxz     :     0.030215
      dyz     :     0.071436
      dx2y2   :     0.121321
      dxy     :     0.148722
      f0      :     0.003116  f :     0.043468
      f+1     :     0.003508
      f-1     :     0.004091
      f+2     :     0.006612
      f-2     :     0.003072
      f+3     :     0.014860
      f-3     :     0.008209

  3 C s       :     2.768218  s :     2.768218
      pz      :     0.921298  p :     2.965636
      px      :     1.061480
      py      :     0.982858
      dz2     :     0.025280  d :     0.389111
      dxz     :     0.081960
      dyz     :     0.013324
      dx2y2   :     0.165340
      dxy     :     0.103206
      f0      :     0.003250  f :     0.043642
      f+1     :     0.004437
      f-1     :     0.003342
      f+2     :     0.001204
      f-2     :     0.008016
      f+3     :     0.015209
      f-3     :     0.008184

  4 C s       :     2.763159  s :     2.763159
      pz      :     0.899164  p :     2.926382
      px      :     1.003244
      py      :     1.023974
      dz2     :     0.026061  d :     0.397755
      dxz     :     0.030213
      dyz     :     0.071439
      dx2y2   :     0.121325
      dxy     :     0.148717
      f0      :     0.003116  f :     0.043468
      f+1     :     0.003508
      f-1     :     0.004091
      f+2     :     0.006611
      f-2     :     0.003073
      f+3     :     0.014861
      f-3     :     0.008209

  5 C s       :     2.713988  s :     2.713988
      pz      :     0.878065  p :     2.876427
      px      :     0.976752
      py      :     1.021610
      dz2     :     0.033259  d :     0.516229
      dxz     :     0.068932
      dyz     :     0.078867
      dx2y2   :     0.160599
      dxy     :     0.174572
      f0      :     0.004173  f :     0.057211
      f+1     :     0.004204
      f-1     :     0.004332
      f+2     :     0.006848
      f-2     :     0.006756
      f+3     :     0.021435
      f-3     :     0.009463

  6 C s       :     2.705722  s :     2.705722
      pz      :     0.859619  p :     2.785014
      px      :     1.026977
      py      :     0.898418
      dz2     :     0.039926  d :     0.622390
      dxz     :     0.071048
      dyz     :     0.139914
      dx2y2   :     0.200968
      dxy     :     0.170534
      f0      :     0.005361  f :     0.076304
      f+1     :     0.004288
      f-1     :     0.006507
      f+2     :     0.014414
      f-2     :     0.007025
      f+3     :     0.026235
      f-3     :     0.012474

  7 N s       :     3.020837  s :     3.020837
      pz      :     1.537176  p :     3.858215
      px      :     1.137315
      py      :     1.183724
      dz2     :     0.006864  d :     0.144125
      dxz     :     0.013100
      dyz     :     0.032873
      dx2y2   :     0.033525
      dxy     :     0.057762
      f0      :     0.001201  f :     0.010602
      f+1     :     0.000264
      f-1     :     0.001222
      f+2     :     0.002012
      f-2     :     0.001431
      f+3     :     0.002525
      f-3     :     0.001947

  8 C s       :     2.824236  s :     2.824236
      pz      :     1.061669  p :     3.153949
      px      :     1.033936
      py      :     1.058345
      dz2     :     0.031571  d :     0.260428
      dxz     :     0.035735
      dyz     :     0.072098
      dx2y2   :     0.053098
      dxy     :     0.067925
      f0      :     0.002082  f :     0.025189
      f+1     :     0.002880
      f-1     :     0.003660
      f+2     :     0.004137
      f-2     :     0.002115
      f+3     :     0.005906
      f-3     :     0.004409

  9 H s       :     0.809209  s :     0.809209
      pz      :     0.013917  p :     0.062179
      px      :     0.025436
      py      :     0.022826

 10 H s       :     0.815692  s :     0.815692
      pz      :     0.028368  p :     0.062391
      px      :     0.013497
      py      :     0.020525

 11 H s       :     0.809230  s :     0.809230
      pz      :     0.028141  p :     0.062737
      px      :     0.013199
      py      :     0.021397

 12 H s       :     0.797658  s :     0.797658
      pz      :     0.014809  p :     0.059981
      px      :     0.028505
      py      :     0.016668

 13 H s       :     0.799876  s :     0.799876
      pz      :     0.015480  p :     0.060772
      px      :     0.011297
      py      :     0.033994

 14 H s       :     0.797658  s :     0.797658
      pz      :     0.014809  p :     0.059981
      px      :     0.028505
      py      :     0.016667

 15 H s       :     0.724132  s :     0.724132
      pz      :     0.041384  p :     0.113139
      px      :     0.047119
      py      :     0.024635

 16 H s       :     0.724131  s :     0.724131
      pz      :     0.041385  p :     0.113139
      px      :     0.047117
      py      :     0.024636

 17 H s       :     0.809209  s :     0.809209
      pz      :     0.013917  p :     0.062179
      px      :     0.025437
      py      :     0.022825

 18 H s       :     0.809231  s :     0.809231
      pz      :     0.028140  p :     0.062737
      px      :     0.013199
      py      :     0.021399

 19 H s       :     0.815691  s :     0.815691
      pz      :     0.028370  p :     0.062391
      px      :     0.013497
      py      :     0.020524



                      *****************************
                      * MAYER POPULATION ANALYSIS *
                      *****************************

  NA   - Mulliken gross atomic population
  ZA   - Total nuclear charge
  QA   - Mulliken gross atomic charge
  VA   - Mayer's total valence
  BVA  - Mayer's bonded valence
  FA   - Mayer's free valence

  ATOM       NA         ZA         QA         VA         BVA        FA
  0 C      6.4120     6.0000    -0.4120     3.8695     3.8695     0.0000
  1 C      5.9482     6.0000     0.0518     3.6574     3.6574     0.0000
  2 C      6.1455     6.0000    -0.1455     3.8963     3.8963     0.0000
  3 C      6.1508     6.0000    -0.1508     3.9115     3.9115     0.0000
  4 C      6.1456     6.0000    -0.1456     3.8963     3.8963     0.0000
  5 C      5.9482     6.0000     0.0518     3.6575     3.6575    -0.0000
  6 C      5.8369     6.0000     0.1631     3.8120     3.8120    -0.0000
  7 N      7.4296     7.0000    -0.4296     3.0182     3.0182    -0.0000
  8 C      6.4120     6.0000    -0.4120     3.8695     3.8695    -0.0000
  9 H      0.8885     1.0000     0.1115     0.9898     0.9898    -0.0000
 10 H      0.8923     1.0000     0.1077     0.9689     0.9689    -0.0000
 11 H      0.8676     1.0000     0.1324     0.9658     0.9658     0.0000
 12 H      0.9114     1.0000     0.0886     0.9784     0.9784     0.0000
 13 H      0.9028     1.0000     0.0972     0.9779     0.9779     0.0000
 14 H      0.9114     1.0000     0.0886     0.9784     0.9784     0.0000
 15 H      0.7744     1.0000     0.2256     0.9535     0.9535     0.0000
 16 H      0.7744     1.0000     0.2256     0.9535     0.9535    -0.0000
 17 H      0.8885     1.0000     0.1115     0.9898     0.9898     0.0000
 18 H      0.8676     1.0000     0.1324     0.9658     0.9658     0.0000
 19 H      0.8923     1.0000     0.1077     0.9689     0.9689    -0.0000

  Mayer bond orders larger than 0.100000
B(  0-C ,  1-C ) :   0.8915 B(  0-C ,  9-H ) :   0.9765 B(  0-C , 10-H ) :   0.9690 
B(  0-C , 11-H ) :   0.9740 B(  1-C ,  2-C ) :   1.3781 B(  1-C ,  6-C ) :   1.3192 
B(  2-C ,  3-C ) :   1.3969 B(  2-C , 12-H ) :   0.9774 B(  3-C ,  4-C ) :   1.3969 
B(  3-C , 13-H ) :   0.9857 B(  4-C ,  5-C ) :   1.3781 B(  4-C , 14-H ) :   0.9774 
B(  5-C ,  6-C ) :   1.3193 B(  5-C ,  8-C ) :   0.8915 B(  6-C ,  7-N ) :   1.0574 
B(  7-N , 15-H ) :   0.9179 B(  7-N , 16-H ) :   0.9179 B(  8-C , 17-H ) :   0.9765 
B(  8-C , 18-H ) :   0.9740 B(  8-C , 19-H ) :   0.9690 

-------
TIMINGS
-------

Total SCF time: 0 days 0 hours 0 min 44 sec 

Total time                  ....      44.669 sec
Sum of individual times     ....      44.158 sec  ( 98.9%)

SCF preparation             ....       0.238 sec  (  0.5%)
Fock matrix formation       ....      42.650 sec  ( 95.5%)
  Startup                   ....       0.080 sec  (  0.2% of F)
  Split-RI-J                ....       5.902 sec  ( 13.8% of F)
  XC integration            ....      35.937 sec  ( 84.3% of F)
    Basis function eval.    ....       5.338 sec  ( 14.9% of XC)
    Density eval.           ....      11.435 sec  ( 31.8% of XC)
    XC-Functional eval.     ....       2.558 sec  (  7.1% of XC)
    XC-Potential eval.      ....      15.500 sec  ( 43.1% of XC)
Diagonalization             ....       0.000 sec  (  0.0%)
Density matrix formation    ....       0.274 sec  (  0.6%)
Total Energy calculation    ....       0.040 sec  (  0.1%)
Population analysis         ....       0.042 sec  (  0.1%)
Orbital Transformation      ....       0.108 sec  (  0.2%)
Orbital Orthonormalization  ....       0.000 sec  (  0.0%)
DIIS solution               ....       0.545 sec  (  1.2%)
SOSCF solution              ....       0.260 sec  (  0.6%)
Finished LeanSCF after  44.7 sec

Maximum memory used throughout the entire LEANSCF-calculation: 41.8 MB

------------------------------------------------------------------------------
                         ORCA PROPERTY INTEGRAL CALCULATIONS
------------------------------------------------------------------------------

GBWName                                   ... censo.gbw
Number of atoms                           ...     20
Number of basis functions                 ...    345
Max core memory                           ...   1024 MB

Dipole integrals                          ... YES
Quadrupole integrals                      ...  NO
Linear momentum integrals                 ...  NO
Angular momentum integrals                ...  NO
Higher moments length integrals           ...  NO
Higher moments velocity integrals         ...  NO
Kinetic energy integrals                  ...  NO
GIAO right hand sides                     ...  NO
GIAO dipole derivative integrals          ...  NO
SOC integrals                             ...  NO
EPR diamagnetic integrals (GIAO)          ...  NO
EPR gauge integrals                       ...  NO
Field gradient integrals                  ...  NO (   0 nuclei)
Spin-dipole/Fermi contact integrals       ...  NO (   0 nuclei)
Contact density integrals                 ...  NO (   0 nuclei)
Nucleus-orbit integrals                   ...  NO (   0 nuclei)
Geometric perturbations                   ... YES (  20 nuclei)

Choice of electric origin   ... Center of mass
Position of electric origin ... (  0.0000, -0.0097, -0.0094) 
Choice of magnetic origin   ... GIAO
Position of magnetic origin ... (  0.0000,  0.0000,  0.0000) 

Calculating integrals                     ... Electric Dipole (Length)     done (  0.1 sec)
Calculating integrals                     ... Geometrical perturbation right hand sides

-----------------------
GEOMETRIC PERTURBATIONS (20 nuclei)
-----------------------

MaxCore                            ...   1024 MB
Number of batches                  ...      1

BATCH   0: Atoms    0 -   19 ( 60 perturbations)
   => H(core) and overlap derivative integrals     ... done (     0.8 sec)
   => Making and storing internal U-coefficients   ... done (     0.5 sec)
   => RI-J derivative integrals                    ... done (     8.7 sec)
   => RI-J response operators                      ... done (     2.3 sec)
   => XC derivative integrals                      ... done (   521.1 sec)
   => XC response operators                        ... done (   148.4 sec)
   => Completing and storing right hand sides      ... done (     0.2 sec)
   => Total time for right hand sides = 685.8 sec

  geometrical perturbations done (685.8 sec)

Property integrals calculated in 685.9 sec

Maximum memory used throughout the entire PROPINT-calculation: 242.4 MB


-------------------------------------------------------------------------------
                          DFT DISPERSION CORRECTION                            
                                                                               
                                DFTD4 V3.4.0                                   
-------------------------------------------------------------------------------
The R2SCAN3C composite method is recognized
Using three-body term ABC
Active option DFTDOPT                   ...         5   

-------------------------   ----------------
Dispersion correction           -0.006755799
-------------------------   ----------------

------------------   -----------------
gCP correction             0.009276464
------------------   -----------------

-------------------------   --------------------
FINAL SINGLE POINT ENERGY      -366.163695918767
-------------------------   --------------------

------------------------------------------------------------------------------
                            ORCA SCF RESPONSE CALCULATION
------------------------------------------------------------------------------

GBWName                                 ... censo.gbw
Number of atoms                         ...     20
Number of basis functions               ...    345
Max core memory                         ...   1024 MB

Electric field perturbation             ...  NO
Quadrupolar field perturbation          ...  NO
Magnetic field perturbation (no GIAO)   ...  NO
Magnetic field perturbation (with GIAO) ...  NO
Linear momentum (velocity) perturbation ...  NO
Spin-orbit coupling perturbation        ...  NO
Choice of electric origin               ... Center of mass
Position of electric origin             ...     0.000002    -0.009716    -0.009352
Choice of magnetic origin               ... GIAO
Position of magnetic origin             ...     0.000000     0.000000     0.000000
Nuclear geometric perturbations         ... YES (  60 perturbations)
Nucleus-orbit perturbations             ...  NO (   0 perturbations)
Spin-dipole/Fermi contact perturbations ...  NO (   0 perturbations)

Total number of real perturbations      ...     60
Total number of imaginary perturbations ...      0
Total number of triplet perturbations   ...      0
Total number of SOC perturbations       ...      0


                                **********************
                                * REAL PERTURBATIONS *
                                **********************



-------------------
SHARK CP-SCF DRIVER
-------------------

Dimension of the orbital basis          ...    345
Dimension of the CPSCF-problem          ...  10296
Number of operators                     ...      1
Max. number of iterations               ...    128
Convergence Tolerance                   ... 1.0e-03
Number of perturbations                 ...     60
Perturbation type                       ... REAL

----------------------------
POPLE LINEAR EQUATION SOLVER
----------------------------

  ITERATION   0:   ||err||_max =   4.4750e-01 (  45.4 sec   0/ 60 done)
  ITERATION   1:   ||err||_max =   4.9923e-02 (  49.2 sec   0/ 60 done)
  ITERATION   2:   ||err||_max =   2.0358e-02 (  50.2 sec   2/ 60 done)
  ITERATION   3:   ||err||_max =   3.7152e-03 (  50.1 sec  15/ 60 done)
  ITERATION   4:   ||err||_max =   1.4057e-03 (  39.7 sec  44/ 60 done)
  ITERATION   5:   ||err||_max =   5.2615e-04 (  14.8 sec  60/ 60 done)

CP-SCF equations solved in 252.0 sec
Response densities calculated in   0.2 sec

Maximum memory used throughout the entire SCFRESP-calculation: 161.0 MB

------------------------------------------------------------------------------
                              ORCA PROPERTY CALCULATIONS
------------------------------------------------------------------------------

GBWName                                 ... censo.gbw
Number of atoms                         ...     20
Number of basis functions               ...    345
Max core memory                         ...   1024 MB

Electric properties:
Dipole moment                           ... YES
Quadrupole moment                       ...  NO
Static polarizability (Dipole/Dipole)   ...  NO
Static polarizability (Dipole/Quad.)    ...  NO
Static polarizability (Quad./Quad.)     ...  NO
Static polarizability (Velocity)        ...  NO

Atomic electric properties:
Dipole moment                           ...  NO
Quadrupole moment                       ...  NO
Static polarizability                   ...  NO

Choice of electric origin               ... Center of mass
Position of electric origin             ...     0.000002    -0.009716    -0.009352

General magnetic properties:
Magnetizability                         ...  NO

EPR properties:
g-Tensor (aka g-matrix)                 ...  NO
Zero-Field splitting spin-orbit         ...  NO
Zero-field splitting spin-spin          ...  NO
Hyperfine couplings                     ...  NO (   0 nuclei)
Quadrupole couplings                    ...  NO (   0 nuclei)
Contact density                         ...  NO (   0 nuclei)

NMR properties:
Chemical shifts                         ...  NO (   0 nuclei)
Spin-rotation constants                 ...  NO (   0 nuclei)
Spin-spin couplings                     ...  NO (   0 nuclei,    0 pairs)

Choice of magnetic origin               ... GIAO
Position of magnetic origin             ...     0.000000     0.000000     0.000000

Properties with geometric perturbations:
SCF Hessian                             ... YES
IR spectrum                             ... YES
VCD spectrum                            ...  NO
X-ray spectroscopy properties:
SCF XES/XAS/RIXS spectra                ...  NO


-------------
DIPOLE MOMENT
-------------

Method             : SCF
Type of density    : Electron Density
Multiplicity       :   1
Irrep              :   0
Energy             :  -366.1662165846023527 Eh
Relativity type    : 
Basis              : AO
                                X                 Y                 Z
Electronic contribution:      0.000058930      -2.785872163      -0.226462964
Nuclear contribution   :     -0.000075424       3.435354848       0.569408062
                        -----------------------------------------
Total Dipole Moment    :     -0.000016494       0.649482685       0.342945098
                        -----------------------------------------
Magnitude (a.u.)       :      0.734465179
Magnitude (Debye)      :      1.866862122



--------------------
Rotational spectrum 
--------------------
 
Rotational constants in cm-1:             0.075725             0.058446             0.033426 
Rotational constants in MHz :          2270.171041          1752.173596          1002.092159 

Dipole components along the rotational axes: 
x,y,z [a.u.] :     0.000000     0.649165     0.343546 
x,y,z [Debye]:     0.000000     1.650047     0.873224 

 

Dipole moment calculation done in   0.0 sec 

-----------
SCF HESSIAN
-----------

Occupied/Occupied contributions to the Hessian:
   => Occupied/Occupied contributions              ... done (  0.0 sec)
Perturbed density contributions to the Hessian:
   => Perturbed density contributions              ... done (  0.1 sec)
Explicit contributions to the Hessian:
   => Nuclear repulsion Hessian                    ... done (  0.0 sec)
   => HCore and overlap Hessian                    ... done ( 30.1 sec)
   => RI-J Hessian                                 ... done ( 19.8 sec)
   => XC-Hessian                                   ... done (144.6 sec)
   => Van der Waals-Hessian                        ... done (  4.0 sec)
   => GCP-Hessian                                  ... done (  0.1 sec)
   => Explicit contributions done
Dipole derivatives                                 ... done (  0.2 sec)
Mass weighting the Hessian           ... done
Calculating normal modes             ... done
Scaling frequencies                  ... done

-----------------------
VIBRATIONAL FREQUENCIES
-----------------------

Scaling factor for frequencies =  1.000000000  (already applied!)

     0:       0.00 cm**-1
     1:       0.00 cm**-1
     2:       0.00 cm**-1
     3:       0.00 cm**-1
     4:       0.00 cm**-1
     5:       0.00 cm**-1
     6:     131.41 cm**-1
     7:     207.70 cm**-1
     8:     218.12 cm**-1
     9:     234.25 cm**-1
    10:     282.00 cm**-1
    11:     305.00 cm**-1
    12:     339.36 cm**-1
    13:     399.59 cm**-1
    14:     484.65 cm**-1
    15:     497.79 cm**-1
    16:     508.73 cm**-1
    17:     551.78 cm**-1
    18:     554.33 cm**-1
    19:     636.89 cm**-1
    20:     683.18 cm**-1
    21:     748.80 cm**-1
    22:     759.30 cm**-1
    23:     852.59 cm**-1
    24:     884.69 cm**-1
    25:     903.74 cm**-1
    26:     919.38 cm**-1
    27:    1005.37 cm**-1
    28:    1026.36 cm**-1
    29:    1045.32 cm**-1
    30:    1049.95 cm**-1
    31:    1113.46 cm**-1
    32:    1165.34 cm**-1
    33:    1185.37 cm**-1
    34:    1257.27 cm**-1
    35:    1298.44 cm**-1
    36:    1301.47 cm**-1
    37:    1355.59 cm**-1
    38:    1399.09 cm**-1
    39:    1399.28 cm**-1
    40:    1460.40 cm**-1
    41:    1476.74 cm**-1
    42:    1477.92 cm**-1
    43:    1481.92 cm**-1
    44:    1509.84 cm**-1
    45:    1513.53 cm**-1
    46:    1621.43 cm**-1
    47:    1626.02 cm**-1
    48:    1665.02 cm**-1
    49:    2985.27 cm**-1
    50:    2986.28 cm**-1
    51:    3038.57 cm**-1
    52:    3038.64 cm**-1
    53:    3100.34 cm**-1
    54:    3100.62 cm**-1
    55:    3144.04 cm**-1
    56:    3148.91 cm**-1
    57:    3173.96 cm**-1
    58:    3534.90 cm**-1
    59:    3636.65 cm**-1


------------
NORMAL MODES
------------

These modes are the Cartesian displacements weighted by the diagonal matrix
M(i,i)=1/sqrt(m[i]) where m[i] is the mass of the displaced atom
Thus, these vectors are normalized but *not* orthogonal

                  0          1          2          3          4          5    
      0       0.000000   0.000000   0.000000   0.000000   0.000000   0.000000
      1       0.000000   0.000000   0.000000   0.000000   0.000000   0.000000
      2       0.000000   0.000000   0.000000   0.000000   0.000000   0.000000
      3       0.000000   0.000000   0.000000   0.000000   0.000000   0.000000
      4       0.000000   0.000000   0.000000   0.000000   0.000000   0.000000
      5       0.000000   0.000000   0.000000   0.000000   0.000000   0.000000
      6       0.000000   0.000000   0.000000   0.000000   0.000000   0.000000
      7       0.000000   0.000000   0.000000   0.000000   0.000000   0.000000
      8       0.000000   0.000000   0.000000   0.000000   0.000000   0.000000
      9       0.000000   0.000000   0.000000   0.000000   0.000000   0.000000
     10       0.000000   0.000000   0.000000   0.000000   0.000000   0.000000
     11       0.000000   0.000000   0.000000   0.000000   0.000000   0.000000
     12       0.000000   0.000000   0.000000   0.000000   0.000000   0.000000
     13       0.000000   0.000000   0.000000   0.000000   0.000000   0.000000
     14       0.000000   0.000000   0.000000   0.000000   0.000000   0.000000
     15       0.000000   0.000000   0.000000   0.000000   0.000000   0.000000
     16       0.000000   0.000000   0.000000   0.000000   0.000000   0.000000
     17       0.000000   0.000000   0.000000   0.000000   0.000000   0.000000
     18       0.000000   0.000000   0.000000   0.000000   0.000000   0.000000
     19       0.000000   0.000000   0.000000   0.000000   0.000000   0.000000
     20       0.000000   0.000000   0.000000   0.000000   0.000000   0.000000
     21       0.000000   0.000000   0.000000   0.000000   0.000000   0.000000
     22       0.000000   0.000000   0.000000   0.000000   0.000000   0.000000
     23       0.000000   0.000000   0.000000   0.000000   0.000000   0.000000
     24       0.000000   0.000000   0.000000   0.000000   0.000000   0.000000
     25       0.000000   0.000000   0.000000   0.000000   0.000000   0.000000
     26       0.000000   0.000000   0.000000   0.000000   0.000000   0.000000
     27       0.000000   0.000000   0.000000   0.000000   0.000000   0.000000
     28       0.000000   0.000000   0.000000   0.000000   0.000000   0.000000
     29       0.000000   0.000000   0.000000   0.000000   0.000000   0.000000
     30       0.000000   0.000000   0.000000   0.000000   0.000000   0.000000
     31       0.000000   0.000000   0.000000   0.000000   0.000000   0.000000
     32       0.000000   0.000000   0.000000   0.000000   0.000000   0.000000
     33       0.000000   0.000000   0.000000   0.000000   0.000000   0.000000
     34       0.000000   0.000000   0.000000   0.000000   0.000000   0.000000
     35       0.000000   0.000000   0.000000   0.000000   0.000000   0.000000
     36       0.000000   0.000000   0.000000   0.000000   0.000000   0.000000
     37       0.000000   0.000000   0.000000   0.000000   0.000000   0.000000
     38       0.000000   0.000000   0.000000   0.000000   0.000000   0.000000
     39       0.000000   0.000000   0.000000   0.000000   0.000000   0.000000
     40       0.000000   0.000000   0.000000   0.000000   0.000000   0.000000
     41       0.000000   0.000000   0.000000   0.000000   0.000000   0.000000
     42       0.000000   0.000000   0.000000   0.000000   0.000000   0.000000
     43       0.000000   0.000000   0.000000   0.000000   0.000000   0.000000
     44       0.000000   0.000000   0.000000   0.000000   0.000000   0.000000
     45       0.000000   0.000000   0.000000   0.000000   0.000000   0.000000
     46       0.000000   0.000000   0.000000   0.000000   0.000000   0.000000
     47       0.000000   0.000000   0.000000   0.000000   0.000000   0.000000
     48       0.000000   0.000000   0.000000   0.000000   0.000000   0.000000
     49       0.000000   0.000000   0.000000   0.000000   0.000000   0.000000
     50       0.000000   0.000000   0.000000   0.000000   0.000000   0.000000
     51       0.000000   0.000000   0.000000   0.000000   0.000000   0.000000
     52       0.000000   0.000000   0.000000   0.000000   0.000000   0.000000
     53       0.000000   0.000000   0.000000   0.000000   0.000000   0.000000
     54       0.000000   0.000000   0.000000   0.000000   0.000000   0.000000
     55       0.000000   0.000000   0.000000   0.000000   0.000000   0.000000
     56       0.000000   0.000000   0.000000   0.000000   0.000000   0.000000
     57       0.000000   0.000000   0.000000   0.000000   0.000000   0.000000
     58       0.000000   0.000000   0.000000   0.000000   0.000000   0.000000
     59       0.000000   0.000000   0.000000   0.000000   0.000000   0.000000
                  6          7          8          9         10         11    
      0       0.002388   0.004451   0.002050   0.011525   0.022990   0.142554
      1       0.002482   0.004789   0.003268   0.010290   0.028919   0.180431
      2      -0.207800   0.041900   0.034539  -0.098046  -0.039740   0.007262
      3      -0.000056   0.000821   0.000561   0.001971   0.000143  -0.000802
      4      -0.000873  -0.001844  -0.000936  -0.003683  -0.008349  -0.051410
      5      -0.002730  -0.024728  -0.042141   0.079475   0.194543  -0.026724
      6      -0.000231   0.000079  -0.000251   0.000442  -0.003521  -0.021879
      7      -0.001019  -0.000905  -0.001099  -0.002742  -0.008283  -0.053792
      8       0.031448  -0.057674   0.008767   0.196098   0.009393  -0.002410
      9      -0.000001   0.001203   0.000001   0.002519   0.000002  -0.000001
     10      -0.000917  -0.000002  -0.000978  -0.000001  -0.005633  -0.041725
     11       0.096926   0.000007   0.044564  -0.000002  -0.155666   0.019631
     12       0.000230   0.000080   0.000251   0.000446   0.003520   0.021881
     13      -0.001019   0.000900  -0.001096   0.002740  -0.008280  -0.053795
     14       0.031448   0.057678   0.008745  -0.196098   0.009398  -0.002416
     15       0.000056   0.000820  -0.000560   0.001973  -0.000144   0.000803
     16      -0.000873   0.001839  -0.000932   0.003680  -0.008345  -0.051415
     17      -0.002730   0.024715  -0.042150  -0.079471   0.194546  -0.026725
     18      -0.000001  -0.000242   0.000000  -0.000373  -0.000002   0.000003
     19      -0.002090  -0.000004  -0.002153  -0.000002  -0.015495  -0.092791
     20       0.086985  -0.000009  -0.054809   0.000002   0.181504  -0.025715
     21      -0.000003  -0.015661  -0.000009  -0.040536  -0.000013   0.000020
     22       0.005117  -0.000005   0.002040  -0.000004  -0.028052  -0.100553
     23       0.218690  -0.000005  -0.031058  -0.000001  -0.164793   0.024232
     24      -0.002382   0.004439  -0.002043   0.011514  -0.022975  -0.142574
     25       0.002482  -0.004772   0.003260  -0.010282   0.028907   0.180438
     26      -0.207800  -0.041889   0.034555   0.098045  -0.039742   0.007262
     27       0.004549   0.003676   0.003279   0.006194   0.002455  -0.020577
     28       0.006214   0.016262   0.012423   0.025106   0.062374   0.377464
     29      -0.430645  -0.325186  -0.336293  -0.387863  -0.333513   0.066650
     30      -0.190387  -0.112148  -0.112942  -0.200791  -0.192063   0.332713
     31      -0.049257  -0.318771  -0.328685  -0.085277  -0.032714   0.227299
     32      -0.194566   0.257324   0.256347  -0.055533  -0.023989  -0.000903
     33       0.195979   0.129722   0.119889   0.245250   0.285722   0.261301
     34       0.055672   0.316912   0.321208   0.109691   0.093910   0.183411
     35      -0.185656   0.268397   0.266521  -0.044016  -0.017603  -0.002643
     36      -0.000326   0.000158  -0.000337   0.000611  -0.002876  -0.018224
     37      -0.000815  -0.001096  -0.001025  -0.003150  -0.009465  -0.061232
     38      -0.012315  -0.105670   0.033061   0.336638  -0.120943   0.015368
     39      -0.000001   0.002649   0.000002   0.005554   0.000007  -0.000004
     40      -0.001021  -0.000002  -0.001105  -0.000001  -0.005188  -0.042268
     41       0.138540   0.000016   0.091024  -0.000005  -0.403820   0.053435
     42       0.000326   0.000157   0.000337   0.000618   0.002878   0.018225
     43      -0.000815   0.001090  -0.001021   0.003147  -0.009462  -0.061236
     44      -0.012317   0.105680   0.033021  -0.336641  -0.120936   0.015352
     45       0.001047   0.016694   0.003560   0.048779   0.003835   0.001969
     46      -0.035963  -0.005951  -0.013560  -0.014074   0.062903  -0.102157
     47       0.272644   0.084219  -0.002133   0.229563  -0.267554   0.023299
     48      -0.001051   0.016695  -0.003595   0.048785  -0.003877  -0.001966
     49      -0.035963   0.005940  -0.013548   0.014074   0.062925  -0.102173
     50       0.272642  -0.084224  -0.002107  -0.229570  -0.267545   0.023404
     51      -0.004555   0.003680  -0.003283   0.006204  -0.002468   0.020563
     52       0.006219  -0.016252   0.012436  -0.025099   0.062358   0.377491
     53      -0.430651   0.325064  -0.336410   0.387867  -0.333551   0.066582
     54      -0.195970   0.129661  -0.119926   0.245228  -0.285707  -0.261381
     55       0.055667  -0.316757   0.321289  -0.109674   0.093904   0.183466
     56      -0.185646  -0.268327   0.266643   0.044000  -0.017583  -0.002607
     57       0.190405  -0.112148   0.113017  -0.200821   0.192121  -0.332707
     58      -0.049258   0.318685  -0.328824   0.085292  -0.032745   0.227251
     59      -0.194568  -0.257210   0.256415   0.055535  -0.023985  -0.000866
                 12         13         14         15         16         17    
      0      -0.113983   0.031738   0.060700  -0.245589  -0.009653  -0.003368
      1      -0.104905   0.029221  -0.120383   0.105594   0.016810   0.002540
      2      -0.005357   0.002102  -0.000531   0.000194   0.003002  -0.010215
      3      -0.018200   0.010970   0.123448  -0.181817  -0.010685  -0.001956
      4       0.040494  -0.007539   0.059322   0.016385  -0.000420  -0.000955
      5       0.003793  -0.009483   0.024187  -0.001528   0.287232   0.017946
      6       0.001252  -0.003095  -0.075198  -0.107988   0.012386  -0.003632
[...]
     29       0.012545  -0.000459  -0.000439  -0.000126   0.000449   0.000622
     30      -0.020920  -0.000127  -0.000631  -0.000755  -0.001534  -0.001591
     31       0.074609  -0.001519  -0.001552   0.000870   0.004643   0.002422
     32       0.125365  -0.002855  -0.002841   0.000566   0.007915   0.005180
     33      -0.021518  -0.000161  -0.000666  -0.000748  -0.000920  -0.000398
     34       0.110066  -0.002042  -0.002354   0.000634  -0.001627  -0.001696
     35      -0.162736   0.003232   0.003547  -0.000259   0.000897   0.001267
     36      -0.023057  -0.548240  -0.611438  -0.271595  -0.000328   0.000686
     37      -0.010931  -0.312485  -0.348846  -0.150214  -0.000086   0.000014
     38      -0.000045  -0.000272  -0.000287  -0.000120  -0.000035   0.000098
     39      -0.000000  -0.000008   0.004833   0.000017  -0.000000  -0.000017
     40       0.009201   0.441936  -0.000045  -0.894044   0.000854  -0.000000
     41       0.000003   0.000991  -0.000000  -0.001948   0.000233  -0.000000
     42       0.023101   0.548146  -0.611543   0.271610   0.000329   0.000686
     43      -0.010952  -0.312403   0.348876  -0.150209  -0.000086  -0.000014
     44      -0.000045  -0.000261   0.000275  -0.000115  -0.000035  -0.000098
     45       0.000396  -0.000303   0.000431   0.000347   0.595840   0.582666
     46       0.003325   0.000761  -0.000892  -0.000108  -0.306224  -0.311676
     47       0.002109   0.000663  -0.000103  -0.000323  -0.222761  -0.244619
     48      -0.000397   0.000303   0.000431  -0.000347  -0.595798   0.582675
     49       0.003328   0.000761   0.000892  -0.000108  -0.306234   0.311712
     50       0.002111   0.000663   0.000103  -0.000323  -0.222765   0.244643
     51      -0.506526   0.021110  -0.020440   0.005512  -0.000125   0.000066
     52       0.422400  -0.014808   0.013988  -0.003689  -0.000226  -0.000143
     53       0.012606  -0.000460   0.000441  -0.000126   0.000449  -0.000622
     54       0.021555   0.000161  -0.000666   0.000748   0.000920  -0.000398
     55       0.110307  -0.002043   0.002354   0.000634  -0.001628   0.001696
     56      -0.163064   0.003232  -0.003548  -0.000259   0.000897  -0.001267
     57       0.020959   0.000127  -0.000631   0.000755   0.001534  -0.001591
     58       0.074738  -0.001518   0.001552   0.000870   0.004642  -0.002422
     59       0.125605  -0.002855   0.002842   0.000566   0.007915  -0.005180


-----------
IR SPECTRUM
-----------

 Mode   freq       eps      Int      T**2         TX        TY        TZ
       cm**-1   L/(mol*cm) km/mol    a.u.
----------------------------------------------------------------------------
  6:    131.41   0.000063    0.32  0.000149  ( 0.000001 -0.007595 -0.009550)
  7:    207.70   0.000064    0.32  0.000096  ( 0.009822  0.000002  0.000004)
  8:    218.12   0.000525    2.65  0.000751  (-0.000001 -0.005366  0.026870)
  9:    234.25   0.000268    1.35  0.000357  ( 0.018895  0.000002 -0.000001)
 10:    282.00   0.001978   10.00  0.002189  (-0.000000  0.016198 -0.043897)
 11:    305.00   0.000034    0.17  0.000035  (-0.000003  0.005494  0.002100)
 12:    339.36   0.000342    1.73  0.000315  (-0.017738 -0.000001 -0.000000)
 13:    399.59   0.004159   21.02  0.003248  (-0.056989 -0.000001 -0.000000)
 14:    484.65   0.000001    0.00  0.000001  ( 0.000740 -0.000000  0.000000)
 15:    497.79   0.000451    2.28  0.000282  ( 0.000000  0.015169 -0.007237)
 16:    508.73   0.000092    0.46  0.000056  (-0.007503  0.000001 -0.000000)
 17:    551.78   0.004289   21.67  0.002426  ( 0.000001 -0.039776  0.029042)
 18:    554.33   0.000390    1.97  0.000219  ( 0.014814  0.000001 -0.000000)
 19:    636.89   0.041487  209.66  0.020328  ( 0.000001 -0.120100  0.076837)
 20:    683.18   0.001129    5.70  0.000515  (-0.000000  0.019582 -0.011491)
 21:    748.80   0.008785   44.40  0.003661  (-0.000000 -0.022851  0.056028)
 22:    759.30   0.004826   24.39  0.001984  ( 0.000000 -0.008017 -0.043810)
 23:    852.59   0.000278    1.41  0.000102  (-0.000000  0.002781  0.009701)
 24:    884.69   0.000002    0.01  0.000001  ( 0.000907  0.000000 -0.000000)
 25:    903.74   0.000491    2.48  0.000169  ( 0.013015  0.000000  0.000000)
 26:    919.38   0.000330    1.67  0.000112  (-0.000000 -0.001410  0.010485)
 27:   1005.37   0.000590    2.98  0.000183  (-0.000000  0.013537  0.000140)
 28:   1026.36   0.001605    8.11  0.000488  ( 0.022092  0.000001 -0.000000)
 29:   1045.32   0.000297    1.50  0.000089  ( 0.000003 -0.000561  0.009394)
 30:   1049.95   0.000010    0.05  0.000003  ( 0.001737  0.000001  0.000001)
 31:   1113.46   0.003480   17.59  0.000975  (-0.000001  0.031229  0.000414)
 32:   1165.34   0.000753    3.80  0.000202  ( 0.014199  0.000001  0.000000)
 33:   1185.37   0.000222    1.12  0.000058  ( 0.007646  0.000000  0.000000)
 34:   1257.27   0.000181    0.91  0.000045  (-0.000000  0.006651 -0.000798)
 35:   1298.44   0.000262    1.32  0.000063  ( 0.007938  0.000002 -0.000000)
 36:   1301.47   0.006798   34.35  0.001630  (-0.000001  0.040372 -0.000162)
 37:   1355.59   0.000833    4.21  0.000192  (-0.013844  0.000000 -0.000000)
 38:   1399.09   0.000454    2.30  0.000101  ( 0.010065  0.000010 -0.000000)
 39:   1399.28   0.000226    1.14  0.000050  (-0.000015  0.007076 -0.000591)
 40:   1460.40   0.004917   24.85  0.001051  (-0.000001  0.032412  0.000297)
 41:   1476.74   0.003431   17.34  0.000725  (-0.000002 -0.000809 -0.026915)
 42:   1477.92   0.000010    0.05  0.000002  (-0.001429  0.000003  0.000005)
 43:   1481.92   0.000427    2.16  0.000090  (-0.009481 -0.000002  0.000006)
 44:   1509.84   0.011789   59.58  0.002437  (-0.000000  0.049357 -0.000686)
 45:   1513.53   0.002238   11.31  0.000462  ( 0.021483 -0.000002 -0.000000)
 46:   1621.43   0.000025    0.13  0.000005  (-0.002207  0.000000 -0.000000)
 47:   1626.02   0.001211    6.12  0.000233  (-0.000000  0.014170 -0.005631)
 48:   1665.02   0.018271   92.33  0.003424  ( 0.000001 -0.055840 -0.017499)
 49:   2985.27   0.010507   53.10  0.001098  ( 0.033141  0.000017  0.000006)
 50:   2986.28   0.007017   35.46  0.000733  ( 0.000021 -0.026123 -0.007131)
 51:   3038.57   0.000225    1.14  0.000023  (-0.004805 -0.000009 -0.000238)
 52:   3038.64   0.008307   41.98  0.000853  ( 0.000041 -0.000845 -0.029195)
 53:   3100.34   0.002952   14.92  0.000297  (-0.017238 -0.000016  0.000000)
 54:   3100.62   0.002434   12.30  0.000245  ( 0.000017 -0.015652  0.000059)
 55:   3144.04   0.000222    1.12  0.000022  ( 0.000002  0.004691  0.000065)
 56:   3148.91   0.005319   26.88  0.000527  ( 0.022960  0.000000  0.000000)
 57:   3173.96   0.003691   18.65  0.000363  (-0.000000  0.019049  0.000090)
 58:   3534.90   0.001395    7.05  0.000123  ( 0.000001 -0.010415 -0.003827)
 59:   3636.65   0.003253   16.44  0.000279  ( 0.016708  0.000001  0.000000)

* The epsilon (eps) is given for a Dirac delta lineshape.
** The dipole moment derivative (T) already includes vibrational overlap.

The first frequency considered to be a vibration is 6
The total number of vibrations considered is 54


--------------------------
THERMOCHEMISTRY AT 298.15K
--------------------------

Temperature         ...   298.15 K
Pressure            ...     1.00 atm
Total Mass          ...   121.18 AMU
Quasi RRHO          ...     True
Cut-Off Frequency   ...     1.00 cm^-1

Throughout the following assumptions are being made:
  (1) The electronic state is orbitally nondegenerate
  (2) There are no thermally accessible electronically excited states
  (3) Hindered rotations indicated by low frequency modes are not
      treated as such but are treated as vibrations and this may
      cause some error
  (4) All equations used are the standard statistical mechanics
      equations for an ideal gas
  (5) All vibrations are strictly harmonic

freq.     131.41  E(vib)   ...       0.42 
freq.     207.70  E(vib)   ...       0.34 
freq.     218.12  E(vib)   ...       0.33 
freq.     234.25  E(vib)   ...       0.32 
freq.     282.00  E(vib)   ...       0.28 
freq.     305.00  E(vib)   ...       0.26 
freq.     339.36  E(vib)   ...       0.23 
freq.     399.59  E(vib)   ...       0.19 
freq.     484.65  E(vib)   ...       0.15 
freq.     497.79  E(vib)   ...       0.14 
freq.     508.73  E(vib)   ...       0.14 
freq.     551.78  E(vib)   ...       0.12 
freq.     554.33  E(vib)   ...       0.12 
freq.     636.89  E(vib)   ...       0.09 
freq.     683.18  E(vib)   ...       0.08 
freq.     748.80  E(vib)   ...       0.06 
freq.     759.30  E(vib)   ...       0.06 
freq.     852.59  E(vib)   ...       0.04 
freq.     884.69  E(vib)   ...       0.04 
freq.     903.74  E(vib)   ...       0.03 
freq.     919.38  E(vib)   ...       0.03 
freq.    1005.37  E(vib)   ...       0.02 
freq.    1026.36  E(vib)   ...       0.02 
freq.    1045.32  E(vib)   ...       0.02 
freq.    1049.95  E(vib)   ...       0.02 
freq.    1113.46  E(vib)   ...       0.01 
freq.    1165.34  E(vib)   ...       0.01 
freq.    1185.37  E(vib)   ...       0.01 
freq.    1257.27  E(vib)   ...       0.01 
freq.    1298.44  E(vib)   ...       0.01 
freq.    1301.47  E(vib)   ...       0.01 
freq.    1355.59  E(vib)   ...       0.01 
freq.    1399.09  E(vib)   ...       0.00 
freq.    1399.28  E(vib)   ...       0.00 
freq.    1460.40  E(vib)   ...       0.00 
freq.    1476.74  E(vib)   ...       0.00 
freq.    1477.92  E(vib)   ...       0.00 
freq.    1481.92  E(vib)   ...       0.00 
freq.    1509.84  E(vib)   ...       0.00 
freq.    1513.53  E(vib)   ...       0.00 
freq.    1621.43  E(vib)   ...       0.00 
freq.    1626.02  E(vib)   ...       0.00 
freq.    1665.02  E(vib)   ...       0.00 
freq.    2985.27  E(vib)   ...       0.00 
freq.    2986.28  E(vib)   ...       0.00 
freq.    3038.57  E(vib)   ...       0.00 
freq.    3038.64  E(vib)   ...       0.00 
freq.    3100.34  E(vib)   ...       0.00 
freq.    3100.62  E(vib)   ...       0.00 
freq.    3144.04  E(vib)   ...       0.00 
freq.    3148.91  E(vib)   ...       0.00 
freq.    3173.96  E(vib)   ...       0.00 
freq.    3534.90  E(vib)   ...       0.00 
freq.    3636.65  E(vib)   ...       0.00 

------------
INNER ENERGY
------------

The inner energy is: U= E(el) + E(ZPE) + E(vib) + E(rot) + E(trans)
    E(el)   - is the total energy from the electronic structure calculation
              = E(kin-el) + E(nuc-el) + E(el-el) + E(nuc-nuc)
    E(ZPE)  - the the zero temperature vibrational energy from the frequency calculation
    E(vib)  - the the finite temperature correction to E(ZPE) due to population
              of excited vibrational states
    E(rot)  - is the rotational thermal energy
    E(trans)- is the translational thermal energy

Summary of contributions to the inner energy U:
Electronic energy                ...   -366.16369592 Eh
Zero point energy                ...      0.17183439 Eh     107.83 kcal/mol
Thermal vibrational correction   ...      0.00582330 Eh       3.65 kcal/mol
Thermal rotational correction    ...      0.00141627 Eh       0.89 kcal/mol
Thermal translational correction ...      0.00141627 Eh       0.89 kcal/mol
-----------------------------------------------------------------------
Total thermal energy                   -365.98320569 Eh


Summary of corrections to the electronic energy:
(perhaps to be used in another calculation)
Total thermal correction                  0.00865584 Eh       5.43 kcal/mol
Non-thermal (ZPE) correction              0.17183439 Eh     107.83 kcal/mol
-----------------------------------------------------------------------
Total correction                          0.18049023 Eh     113.26 kcal/mol


--------
ENTHALPY
--------

The enthalpy is H = U + kB*T
                kB is Boltzmann's constant
Total thermal energy              ...   -365.98320569 Eh 
Thermal Enthalpy correction       ...      0.00094421 Eh       0.59 kcal/mol
-----------------------------------------------------------------------
Total Enthalpy                    ...   -365.98226148 Eh


Note: Rotational entropy computed according to Herzberg 
Infrared and Raman Spectra, Chapter V,1, Van Nostrand Reinhold, 1945 
Point Group:  Cs, Symmetry Number:   1  
Rotational constants in cm-1:     0.075725     0.058446     0.033426 

Vibrational entropy computed according to the QRRHO of S. Grimme
Chem.Eur.J. 2012 18 9955 using a reference frequency of 100.0 cm-1


-------
ENTROPY
-------

The entropy contributions are T*S = T*(S(el)+S(vib)+S(rot)+S(trans))
     S(el)   - electronic entropy
     S(vib)  - vibrational entropy
     S(rot)  - rotational entropy
     S(trans)- translational entropy
The entropies will be listed as multiplied by the temperature to get
units of energy

Electronic entropy                ...      0.00000000 Eh      0.00 kcal/mol
Vibrational entropy               ...      0.00923603 Eh      5.80 kcal/mol
Rotational entropy                ...      0.01367404 Eh      8.58 kcal/mol
Translational entropy             ...      0.01914335 Eh     12.01 kcal/mol
-----------------------------------------------------------------------
Final entropy term                ...      0.04205342 Eh     26.39 kcal/mol

In case the symmetry of your molecule has not been determined correctly
or in case you have a reason to use a different symmetry number we print 
out the resulting rotational entropy values for sn=1,12:

 non-linear molecules -----------------------------------
|  sn= 1 | S(rot)=       0.01367404 Eh      8.58 kcal/mol|
|  sn= 2 | S(rot)=       0.01301958 Eh      8.17 kcal/mol|
|  sn= 3 | S(rot)=       0.01263675 Eh      7.93 kcal/mol|
|  sn= 4 | S(rot)=       0.01236513 Eh      7.76 kcal/mol|
|  sn= 5 | S(rot)=       0.01215444 Eh      7.63 kcal/mol|
|  sn= 6 | S(rot)=       0.01198230 Eh      7.52 kcal/mol|
|  sn= 7 | S(rot)=       0.01183675 Eh      7.43 kcal/mol|
|  sn= 8 | S(rot)=       0.01171067 Eh      7.35 kcal/mol|
|  sn= 9 | S(rot)=       0.01159946 Eh      7.28 kcal/mol|
|  sn=10 | S(rot)=       0.01149998 Eh      7.22 kcal/mol|
|  sn=11 | S(rot)=       0.01140999 Eh      7.16 kcal/mol|
|  sn=12 | S(rot)=       0.01132784 Eh      7.11 kcal/mol|
 linear molecules ---------------------------------------
|  Dinfh | S(rot)=       0.00853453 Eh      5.36 kcal/mol|
|  Cinfv | S(rot)=       0.00918898 Eh      5.77 kcal/mol|
 --------------------------------------------------------


-------------------
GIBBS FREE ENERGY
-------------------

The Gibbs free energy is G = H - T*S

Total enthalpy                    ...   -365.98226148 Eh 
Total entropy correction          ...     -0.04205342 Eh    -26.39 kcal/mol
-----------------------------------------------------------------------
Final Gibbs free energy         ...   -366.02431490 Eh

For completeness - the Gibbs free energy minus the electronic energy
G-E(el)                           ...      0.13938102 Eh     87.46 kcal/mol


Maximum memory used throughout the entire PROP-calculation: 74.1 MB

--------------------------------
SUGGESTED CITATIONS FOR THIS RUN
--------------------------------

Below you find a list of papers that are relevant to this ORCA run
We neither can nor want to force you to cite these papers, but we appreciate if you do
You receive ORCA, which is the product of decades of hard work by many enthusiastic individuals, for free
The only thing we kindly ask in return is that you cite our papers,
We deeply appreciate it, if you show your appreciation for ORCA by not just citing the generic ORCA reference.

Please note that relegating all ORCA citations to the supporting information does *not* help us.
SI sections are not indexed - citations you put there will not count into any citation statistics
But we need these citations in order to attract the funding resources that allow us to do what we are doing

Therefore, if you are a happy ORCA user, please consider citing a few of the papers listed below in the main body of your paper

In addition to the list printed below, the program has created the file censo.bibtex that contains the list in bibtex format
You can import this file easily into all common literature databanks and citation aid programs


List of essential papers. We consider these as the minimum necessary citations

  1. Neese,F.
     Software update: the ORCA program system, version 5.0
     WIRES Comput. Molec. Sci., 2022 12(1)e1606
     doi.org/10.1002/wcms.1606
  2. Grimme,S.; Hansen,A.; Ehlert,S.; Mewes,J.
     r2SCAN-3c: A 'Swiss army knife' composite electronic-structure method
     J. Chem. Phys., 2021 154 064103
     doi.org/10.1063/5.0040021

List of papers to cite with high priority. The work reported in these papers was absolutely
necessary for this run to complete.
Our perspective: the developers of density functionals and basis sets usually get cited in chemistry papers
Good! But without the algorithms to do something with them, the functionals or basis sets would not do anything.
Hence, in our opinion, the algorithm design and method developments papers are equally worthy of getting cited

  1. Neese,F.
     An improvement of the resolution of the identity approximation for the formation of the Coulomb matrix
     J. Comp. Chem., 2003 24(14)1740-1747
     doi.org/10.1002/jcc.10318
  2. Bykov,D.; Petrenko,T.; Izsak,R.; Kossmann,S.; Becker,U.; Valeev,E.; Neese,F.
     Efficient implementation of the analytic second derivatives of Hartree-Fock and hybrid DFT energies: a detailed analysis of different approximations
     Molec. Phys., 2015 113 1961-1977
     doi.org/10.1080/00268976.2015.1025114
  3. Neese,F.
     The SHARK Integral Generation and Digestion System
     J. Comp. Chem., 2022  1-16
     doi.org/10.1002/jcc.26942
  4. Lehtola,S.; Steigemann,C.; Oliveira,M.; Marques,M.
     Recent developments in Libxc - A comprehensive library of functionals for density functional theory
     Software X, 2018 7 
     doi.org/10.1016/j.softx.2017.11.002
  5. Caldeweyher,E.; Bannwarth,C.; Grimme,S.
     Extension of the D3 dispersion coefficient model
     J. Chem. Phys., 2017 147 034112-XXXX
     doi.org/10.1063/1.4993215
  6. Caldeweyher,E.; Ehlert,S.; Hansen,A.; Neugebauer,H.; Spicher,S.; Bannwarth,C.; Grimme,S.
     A generally applicable atomic-charge dependent London dispersion correction
     J. Chem. Phys., 2019 150 154122-XXXX
     doi.org/10.1063/1.5090222
  7. Caldeweyher,E.; Mewes,J.; Ehlert,S.; Grimme,S.
     Extension and evaluation of the D4 London-dispersion model for periodic systems
     Phys. Chem. Chem. Phys., 2020 22(16)8499-8512
     doi.org/10.1039/D0CP00502A

List of suggested additional citations. These are papers that are important in the 'surrounding' of 
of this run, or papers that preceded the highly important papers. If you like your results we are grateful for a citation.

  1. Neese,F.
     The ORCA program system
     WIRES Comput. Molec. Sci., 2012 2(1)73-78
     doi.org/10.1002/wcms.81
  2. Neese,F.
     Software update: the ORCA program system, version 4.0
     WIRES Comput. Molec. Sci., 2018 8(1)1-6
     doi.org/10.1002/wcms.1327
  3. Neese,F.; Wennmohs,F.; Becker,U.; Riplinger,C.
     The ORCA quantum chemistry program package
     J. Chem. Phys., 2020 152 Art. No. L224108
     doi.org/10.1063/5.0004608

List of optional additional citations

  1. Neese,F.
     Approximate second-order SCF convergence for spin unrestricted wavefunctions
     Chem. Phys. Lett., 2000 325(1-3)93-98
     doi.org/10.1016/s0009-2614(00)00662-x

Timings for individual modules:

Sum of individual times          ...     1186.736 sec (=  19.779 min)
Startup calculation              ...        1.584 sec (=   0.026 min)   0.1 %
SCF iterations                   ...       46.536 sec (=   0.776 min)   3.9 %
Property integrals               ...      685.999 sec (=  11.433 min)  57.8 %
SCF Response                     ...      253.575 sec (=   4.226 min)  21.4 %
Property calculations            ...      199.042 sec (=   3.317 min)  16.8 %
                             ****ORCA TERMINATED NORMALLY****
TOTAL RUN TIME: 0 days 0 hours 19 minutes 47 seconds 493 msec
