 Entering Gaussian System
 *********************************************
 Gaussian 98:
 frequency output generated by the xtb code
 *********************************************
                         Standard orientation:
 --------------------------------------------------------------------
  Center     Atomic     Atomic              Coordinates (Angstroms)
  Number     Number      Type              X           Y           Z
 --------------------------------------------------------------------
    1          6             0        2.720986    0.114935   -0.715629
    2          6             0        1.933249   -0.130589    0.572478
    3          6             0        0.458485   -0.041057    0.308589
    4          6             0       -0.189239    1.189984    0.231493
    5          6             0       -1.543351    1.217491   -0.049339
    6          6             0       -2.209422    0.017106   -0.245225
    7          6             0       -1.476971   -1.154774   -0.146896
    8          7             0       -0.183769   -1.186066    0.121305
    9          1             0        2.449116   -0.624352   -1.465037
   10          1             0        3.789055    0.041532   -0.525261
   11          1             0        2.506283    1.104509   -1.113865
   12          1             0        2.220307    0.608737    1.323062
   13          1             0        2.158379   -1.127887    0.950489
   14          1             0        0.362060    2.104399    0.393380
   15          1             0       -2.072629    2.157930   -0.113291
   16          1             0       -3.265391   -0.007381   -0.465366
   17          1             0       -1.944846   -2.121054   -0.287857
 --------------------------------------------------------------------
     1 basis functions        1 primitive gaussians
     1 alpha electrons        1 beta electrons
 
 Harmonic frequencies (cm**-1), IR intensities (km*mol⁻¹),
 Raman scattering activities (A**4/amu), Raman depolarization ratios,
 reduced masses (AMU), force constants (mDyne/A) and normal coordinates:
                      1                      2                      3
                        a                      a                      a 
 Frequencies --    40.7676               123.8765               202.1761
 Red. masses --     8.3591                 9.6093                 2.0056
 Frc consts  --     0.0000                 0.0000                 0.0000
 IR Inten    --     0.4385                 1.2010                 0.3486
 Raman Activ --     0.0000                 0.0000                 0.0000
 Depolar     --     0.0000                 0.0000                 0.0000
 Atom AN      X      Y      Z        X      Y      Z        X      Y      Z
   1   6     0.07   0.50   0.11     0.44  -0.10   0.25     0.03  -0.09   0.00
   2   6    -0.01  -0.27  -0.08    -0.05   0.04  -0.03    -0.00  -0.03  -0.01
   3   6    -0.00  -0.16  -0.07    -0.01   0.06  -0.32     0.00   0.14   0.02
   4   6     0.14  -0.10  -0.23    -0.05   0.04  -0.27    -0.08   0.09  -0.01
   5   6     0.13   0.02  -0.17    -0.14  -0.01   0.14    -0.09  -0.04  -0.02
   6   6    -0.02   0.06   0.05    -0.17  -0.04   0.38    -0.01  -0.09  -0.01
   7   6    -0.16  -0.01   0.21    -0.07  -0.00   0.03     0.08  -0.03   0.02
   8   7    -0.16  -0.12   0.16    -0.00   0.05  -0.30     0.08   0.10   0.03
   9   1     0.04   0.27  -0.10     0.21  -0.05   0.06    -0.39   0.29  -0.17
  10   1     0.02   0.12   0.04     0.10  -0.03   0.20    -0.01  -0.57  -0.10
  11   1     0.02   0.21   0.19     0.18  -0.04   0.02     0.43   0.18   0.27
  12   1    -0.02  -0.20   0.10    -0.07   0.02   0.00     0.05  -0.06   0.02
  13   1    -0.00  -0.14  -0.18    -0.06   0.02   0.04    -0.06  -0.04  -0.05
  14   1     0.07  -0.04  -0.11    -0.01   0.02  -0.13    -0.05   0.04  -0.01
  15   1     0.07   0.02  -0.09    -0.06  -0.01   0.09    -0.05  -0.02  -0.01
  16   1    -0.01   0.04   0.03    -0.07  -0.02   0.23    -0.00  -0.05  -0.01
  17   1    -0.08   0.01   0.12    -0.01  -0.01   0.02     0.05  -0.02   0.01
                      4                      5                      6
                        a                      a                      a 
 Frequencies --   271.0169               341.5850               372.1494
 Red. masses --     9.3566                 7.7698                10.2097
 Frc consts  --     0.0000                 0.0000                 0.0000
 IR Inten    --     0.1700                 1.1225                 3.2685
 Raman Activ --     0.0000                 0.0000                 0.0000
 Depolar     --     0.0000                 0.0000                 0.0000
 Atom AN      X      Y      Z        X      Y      Z        X      Y      Z
   1   6     0.46  -0.03  -0.10     0.10   0.09  -0.03    -0.05  -0.02   0.03
   2   6     0.05  -0.04  -0.32     0.02   0.45   0.01    -0.01  -0.05   0.03
   3   6    -0.03   0.06  -0.05    -0.03  -0.31  -0.07     0.01   0.04  -0.00
   4   6    -0.18   0.01   0.34     0.08  -0.26   0.11    -0.08   0.02   0.38
   5   6    -0.14  -0.02   0.04     0.14   0.04   0.01     0.08   0.02  -0.43
   6   6    -0.05  -0.01  -0.34    -0.01   0.13  -0.04    -0.01  -0.02   0.14
   7   6    -0.10   0.00   0.18    -0.19   0.01   0.05    -0.04  -0.02   0.34
   8   7    -0.12   0.06   0.25    -0.15  -0.29  -0.07     0.14   0.06  -0.52
   9   1     0.25  -0.03  -0.05    -0.10   0.08  -0.01    -0.01  -0.01   0.01
  10   1     0.11   0.03   0.11     0.02  -0.16  -0.01    -0.01   0.02  -0.00
  11   1     0.15  -0.02  -0.07     0.20   0.07   0.01    -0.04  -0.01   0.01
  12   1     0.03  -0.05  -0.06    -0.14   0.32  -0.13     0.00  -0.03   0.02
  13   1    -0.02  -0.03  -0.11     0.17   0.24   0.20    -0.02  -0.03  -0.01
  14   1    -0.09   0.01   0.19     0.07  -0.11   0.08    -0.05   0.00   0.23
  15   1    -0.05  -0.01   0.02     0.09   0.04   0.00     0.05   0.01  -0.31
  16   1     0.01  -0.01  -0.23     0.00   0.08  -0.03    -0.01  -0.01   0.07
  17   1    -0.03  -0.01   0.13    -0.12   0.03   0.04    -0.03  -0.02   0.23
                      7                      8                      9
                        a                      a                      a 
 Frequencies --   484.4849               547.2552               602.1098
 Red. masses --     9.6773                10.0534                11.6032
 Frc consts  --     0.0000                 0.0000                 0.0000
 IR Inten    --     1.1860                 1.0403                 2.0894
 Raman Activ --     0.0000                 0.0000                 0.0000
 Depolar     --     0.0000                 0.0000                 0.0000
 Atom AN      X      Y      Z        X      Y      Z        X      Y      Z
   1   6    -0.21  -0.03   0.14     0.05  -0.00  -0.04     0.00  -0.02   0.00
   2   6    -0.28  -0.01   0.01    -0.39   0.06  -0.27     0.07  -0.07   0.04
   3   6    -0.05   0.05  -0.51    -0.34  -0.01   0.17     0.04  -0.14  -0.01
   4   6     0.08   0.13  -0.05    -0.02   0.16   0.12    -0.34  -0.28  -0.10
   5   6     0.06   0.08   0.24     0.09   0.22  -0.11    -0.38   0.35  -0.05
   6   6     0.33  -0.00  -0.25     0.33  -0.00   0.27     0.01   0.20  -0.01
   7   6     0.07  -0.11   0.27     0.14  -0.16  -0.15     0.29   0.30   0.09
   8   7     0.12  -0.09  -0.04     0.07  -0.24   0.12     0.31  -0.31   0.03
   9   1    -0.07  -0.00   0.04     0.12  -0.00  -0.05    -0.01  -0.00   0.00
  10   1    -0.06  -0.01   0.03    -0.02  -0.04   0.18     0.01   0.01  -0.03
  11   1    -0.07  -0.01   0.04     0.12   0.00  -0.05    -0.03  -0.00   0.01
  12   1    -0.14  -0.00   0.02    -0.08  -0.01  -0.06     0.03  -0.05   0.03
  13   1    -0.13  -0.01   0.02    -0.11   0.01  -0.10     0.01  -0.04  -0.02
  14   1     0.03   0.00   0.13     0.09  -0.00  -0.05    -0.05  -0.11  -0.01
  15   1    -0.06  -0.01   0.23    -0.01   0.03  -0.17    -0.05   0.13   0.01
  16   1     0.10  -0.00  -0.09     0.10  -0.01   0.06     0.01  -0.11  -0.01
  17   1    -0.05  -0.03   0.26     0.01  -0.00  -0.19    -0.00   0.13   0.03
                     10                     11                     12
                        a                      a                      a 
 Frequencies --   714.2947               766.8710               805.1781
 Red. masses --    10.3299                 4.5230                 9.5966
 Frc consts  --     0.0000                 0.0000                 0.0000
 IR Inten    --     1.1081                17.7877                 3.7007
 Raman Activ --     0.0000                 0.0000                 0.0000
 Depolar     --     0.0000                 0.0000                 0.0000
 Atom AN      X      Y      Z        X      Y      Z        X      Y      Z
   1   6     0.04   0.01  -0.04    -0.06  -0.02   0.08     0.16  -0.01  -0.05
   2   6    -0.02   0.03  -0.02    -0.02  -0.02  -0.02     0.37  -0.12   0.21
   3   6    -0.14  -0.02   0.49     0.12   0.02  -0.37    -0.08   0.00  -0.11
   4   6     0.04   0.04  -0.23    -0.03  -0.07   0.23    -0.13   0.27   0.02
   5   6    -0.07   0.01   0.34    -0.00  -0.07   0.14    -0.18   0.32  -0.01
   6   6     0.09   0.01  -0.23    -0.11  -0.01   0.19     0.28  -0.03   0.10
   7   6    -0.10  -0.06   0.35     0.03   0.08   0.09    -0.21  -0.36  -0.06
   8   7     0.06  -0.01  -0.42     0.03   0.05   0.08    -0.17  -0.12  -0.02
   9   1     0.04  -0.01  -0.01    -0.05   0.00   0.02    -0.07   0.04  -0.01
  10   1    -0.00  -0.01   0.05    -0.01   0.01  -0.03     0.09   0.08  -0.26
  11   1     0.05  -0.00  -0.04    -0.05  -0.00   0.04    -0.12   0.01   0.09
  12   1     0.05  -0.02  -0.00    -0.08   0.02   0.00     0.07   0.04   0.00
  13   1     0.03  -0.00  -0.04    -0.04   0.01   0.04     0.12   0.01   0.15
  14   1     0.07   0.02  -0.29     0.07   0.01  -0.35    -0.00   0.06  -0.03
  15   1     0.01   0.01  -0.11     0.12   0.02  -0.40    -0.17   0.02  -0.08
  16   1     0.06   0.02  -0.25     0.09   0.02  -0.50     0.09   0.01  -0.06
  17   1    -0.01  -0.01  -0.02     0.10   0.03  -0.31    -0.11  -0.07  -0.06
                     13                     14                     15
                        a                      a                      a 
 Frequencies --   823.4531               891.7951               916.6524
 Red. masses --     2.8457                 3.6004                 4.0290
 Frc consts  --     0.0000                 0.0000                 0.0000
 IR Inten    --     4.5420                 0.1867                 0.1446
 Raman Activ --     0.0000                 0.0000                 0.0000
 Depolar     --     0.0000                 0.0000                 0.0000
 Atom AN      X      Y      Z        X      Y      Z        X      Y      Z
   1   6    -0.04  -0.12  -0.02     0.00   0.00  -0.01    -0.01  -0.00  -0.01
   2   6    -0.09  -0.31  -0.11    -0.01   0.01  -0.00    -0.00   0.00   0.00
   3   6     0.00  -0.00   0.08    -0.01  -0.00   0.05    -0.02  -0.00   0.09
   4   6     0.01   0.03  -0.03     0.07   0.02  -0.35     0.02   0.00  -0.08
   5   6    -0.01  -0.02   0.00     0.02   0.00  -0.08    -0.02  -0.00   0.10
   6   6    -0.02  -0.01  -0.02    -0.06  -0.01   0.26    -0.05  -0.01   0.26
   7   6     0.08   0.08   0.03    -0.03  -0.01   0.14     0.08   0.02  -0.41
   8   7     0.05   0.10  -0.01     0.00  -0.00  -0.01    -0.00  -0.00  -0.00
   9   1     0.21   0.22  -0.32     0.01  -0.00  -0.00     0.02   0.00  -0.02
  10   1    -0.02   0.14   0.10    -0.00  -0.01   0.02    -0.01  -0.00   0.03
  11   1    -0.14   0.09   0.36     0.01   0.00  -0.01     0.01   0.00  -0.00
  12   1    -0.05   0.30  -0.39     0.02  -0.01   0.00     0.02   0.00  -0.01
  13   1     0.05   0.12   0.43     0.00  -0.00  -0.01     0.01   0.00  -0.00
  14   1    -0.03   0.03   0.01    -0.14  -0.03   0.64    -0.01  -0.00   0.02
  15   1    -0.01  -0.01   0.01    -0.02  -0.01   0.12     0.02   0.01  -0.12
  16   1    -0.01  -0.03   0.02     0.09   0.02  -0.45     0.09   0.02  -0.42
  17   1     0.05   0.01   0.01     0.07   0.01  -0.32    -0.15  -0.03   0.71
                     16                     17                     18
                        a                      a                      a 
 Frequencies --   935.6143              1000.3171              1027.9487
 Red. masses --     3.5282                10.3912                 6.9994
 Frc consts  --     0.0000                 0.0000                 0.0000
 IR Inten    --     0.0916                18.1068                 4.9350
 Raman Activ --     0.0000                 0.0000                 0.0000
 Depolar     --     0.0000                 0.0000                 0.0000
 Atom AN      X      Y      Z        X      Y      Z        X      Y      Z
   1   6    -0.01   0.00  -0.00    -0.23  -0.00   0.10     0.36  -0.00  -0.18
   2   6     0.00  -0.00   0.00     0.08   0.01  -0.12    -0.28   0.03   0.14
   3   6    -0.01  -0.00   0.06     0.20  -0.01  -0.00    -0.10   0.04   0.08
   4   6    -0.04  -0.01   0.19    -0.16  -0.42  -0.05    -0.09  -0.34  -0.05
   5   6     0.08   0.02  -0.38    -0.08   0.21  -0.00     0.06  -0.03   0.00
   6   6    -0.03  -0.01   0.15     0.34  -0.01   0.07     0.18   0.01   0.04
   7   6    -0.02  -0.00   0.07    -0.07  -0.22  -0.02     0.07   0.01   0.01
   8   7     0.02   0.01  -0.08    -0.19   0.47  -0.01    -0.09   0.28  -0.02
   9   1     0.01   0.00  -0.01     0.08  -0.02   0.00    -0.11   0.04  -0.02
  10   1    -0.01  -0.00   0.02    -0.11  -0.06   0.28     0.16   0.10  -0.42
  11   1     0.01   0.00  -0.00     0.10   0.01  -0.03    -0.16  -0.01   0.05
  12   1     0.01   0.00  -0.01     0.07   0.02  -0.06    -0.18  -0.02   0.11
  13   1     0.01   0.00  -0.00     0.11   0.01  -0.07    -0.33  -0.02   0.12
  14   1     0.08   0.02  -0.38     0.01  -0.15  -0.01     0.04  -0.14   0.01
  15   1    -0.15  -0.03   0.70     0.03   0.08  -0.00     0.10   0.04   0.04
  16   1     0.07   0.01  -0.32     0.09   0.00   0.03     0.05   0.01   0.01
  17   1     0.00  -0.00  -0.01     0.09  -0.11   0.00     0.08  -0.03   0.03
                     19                     20                     21
                        a                      a                      a 
 Frequencies --  1052.7575              1079.3774              1096.0598
 Red. masses --     4.4494                 8.3542                 6.6521
 Frc consts  --     0.0000                 0.0000                 0.0000
 IR Inten    --     2.3643                 9.2175                 1.2498
 Raman Activ --     0.0000                 0.0000                 0.0000
 Depolar     --     0.0000                 0.0000                 0.0000
 Atom AN      X      Y      Z        X      Y      Z        X      Y      Z
   1   6    -0.07  -0.19  -0.01    -0.02   0.10  -0.51    -0.02  -0.01   0.00
   2   6     0.07   0.35   0.06    -0.15  -0.11   0.58     0.05   0.02   0.02
   3   6     0.04   0.17  -0.05     0.05  -0.01  -0.13     0.00   0.01  -0.01
   4   6    -0.01  -0.12   0.00     0.00   0.02   0.03    -0.18  -0.07  -0.04
   5   6     0.03  -0.03   0.00    -0.01   0.02   0.01     0.09  -0.37   0.00
   6   6    -0.06   0.09  -0.01    -0.00  -0.01  -0.00     0.44   0.07   0.09
   7   6    -0.08  -0.16  -0.01    -0.01   0.00   0.02    -0.01   0.31   0.01
   8   7     0.04  -0.19  -0.00    -0.01   0.01   0.01    -0.13  -0.03  -0.03
   9   1     0.15   0.12  -0.22     0.26   0.02  -0.22     0.02   0.00  -0.01
  10   1    -0.02   0.11   0.09    -0.07  -0.05   0.25    -0.01  -0.00   0.03
  11   1    -0.11   0.04   0.25     0.26   0.05  -0.21     0.01   0.00   0.01
  12   1     0.51  -0.08  -0.00     0.03  -0.02   0.12     0.05  -0.01   0.00
  13   1    -0.43  -0.05  -0.08     0.01  -0.03   0.11     0.00  -0.01  -0.02
  14   1     0.01  -0.04  -0.01     0.02  -0.00  -0.02    -0.39   0.19  -0.08
  15   1     0.11   0.05   0.02    -0.01  -0.00  -0.03    -0.18  -0.23  -0.05
  16   1    -0.02   0.19   0.00     0.00  -0.02  -0.01     0.13   0.10   0.03
  17   1    -0.07  -0.02  -0.03     0.01  -0.00  -0.02    -0.32   0.25  -0.06
                     22                     23                     24
                        a                      a                      a 
 Frequencies --  1131.0458              1166.5929              1225.2076
 Red. masses --     3.8703                 1.4394                 4.1941
 Frc consts  --     0.0000                 0.0000                 0.0000
 IR Inten    --     0.2279                 0.1276                 2.3523
 Raman Activ --     0.0000                 0.0000                 0.0000
 Depolar     --     0.0000                 0.0000                 0.0000
 Atom AN      X      Y      Z        X      Y      Z        X      Y      Z
   1   6     0.02   0.07  -0.02    -0.00  -0.00   0.01     0.00   0.33   0.07
   2   6    -0.06  -0.14  -0.01     0.01  -0.01  -0.00     0.02  -0.28  -0.04
   3   6     0.08   0.06   0.04    -0.04  -0.05  -0.01    -0.06   0.24  -0.02
   4   6    -0.20  -0.03  -0.04    -0.00  -0.02  -0.00     0.00  -0.07   0.00
   5   6     0.06   0.00   0.01    -0.09  -0.08  -0.02    -0.06  -0.11  -0.02
   6   6    -0.08   0.15  -0.01    -0.01   0.04   0.00     0.01   0.04   0.00
   7   6    -0.02  -0.26  -0.02     0.05   0.09   0.01     0.06  -0.06   0.01
   8   7     0.24  -0.07   0.05     0.06   0.05   0.02    -0.02  -0.06  -0.01
   9   1    -0.03  -0.03   0.06     0.00   0.00  -0.00    -0.12  -0.12   0.26
  10   1     0.00  -0.04  -0.01    -0.00   0.00  -0.00    -0.01  -0.12  -0.02
  11   1     0.03  -0.01  -0.08     0.00  -0.00  -0.00     0.13  -0.02  -0.29
  12   1    -0.17   0.04  -0.01     0.01  -0.00   0.00     0.34   0.11  -0.31
  13   1     0.07   0.00   0.05     0.02   0.00   0.01    -0.26  -0.01   0.31
  14   1    -0.37   0.19  -0.07     0.39  -0.25   0.07     0.16  -0.12   0.03
  15   1     0.22   0.12   0.05    -0.54  -0.32  -0.13     0.10   0.03   0.02
  16   1    -0.04   0.65   0.02    -0.02   0.55   0.02     0.00   0.01   0.00
  17   1     0.10  -0.13   0.02     0.16  -0.05   0.03    -0.20   0.10  -0.04
                     25                     26                     27
                        a                      a                      a 
 Frequencies --  1241.8681              1261.1900              1290.8270
 Red. masses --     7.1409                 3.6386                11.1652
 Frc consts  --     0.0000                 0.0000                 0.0000
 IR Inten    --     5.0813                 0.6203                 5.1202
 Raman Activ --     0.0000                 0.0000                 0.0000
 Depolar     --     0.0000                 0.0000                 0.0000
 Atom AN      X      Y      Z        X      Y      Z        X      Y      Z
   1   6    -0.00  -0.06   0.04     0.02   0.08   0.04    -0.01  -0.07  -0.02
   2   6     0.13  -0.02   0.11    -0.02  -0.00   0.03     0.01  -0.01   0.01
   3   6    -0.56   0.06  -0.16    -0.11  -0.16  -0.06    -0.01   0.41   0.02
   4   6    -0.26   0.04  -0.05     0.09  -0.01   0.02     0.30  -0.14   0.05
   5   6     0.14  -0.19   0.02     0.04   0.04   0.01    -0.32  -0.18  -0.08
   6   6     0.07  -0.08   0.01     0.04   0.14   0.02     0.00   0.35   0.02
   7   6     0.13   0.15   0.04     0.12   0.12   0.03     0.38  -0.20   0.07
   8   7    -0.02   0.07   0.00    -0.29  -0.12  -0.07    -0.34  -0.18  -0.08
   9   1     0.04   0.02  -0.04    -0.04  -0.03   0.07     0.03   0.02  -0.05
  10   1     0.01   0.02  -0.02     0.01  -0.03  -0.03    -0.00   0.02   0.01
  11   1     0.00  -0.00   0.04     0.02  -0.01  -0.07    -0.01   0.00   0.05
  12   1     0.20  -0.02  -0.02     0.30   0.02  -0.13    -0.19  -0.01   0.08
  13   1     0.39   0.02  -0.11    -0.10  -0.01   0.04     0.22   0.03  -0.06
  14   1     0.17  -0.16   0.03    -0.29   0.19  -0.05     0.02   0.00   0.00
  15   1     0.35   0.13   0.08    -0.12  -0.07  -0.03     0.03   0.02   0.01
  16   1     0.02   0.11   0.01     0.02  -0.09  -0.00     0.00   0.01   0.00
  17   1     0.12   0.00   0.02     0.64  -0.28   0.12    -0.03   0.00  -0.01
                     28                     29                     30
                        a                      a                      a 
 Frequencies --  1317.5335              1405.2606              1416.1591
 Red. masses --     5.5785                 3.3178                 9.0348
 Frc consts  --     0.0000                 0.0000                 0.0000
 IR Inten    --     2.4293                 1.9066                17.7113
 Raman Activ --     0.0000                 0.0000                 0.0000
 Depolar     --     0.0000                 0.0000                 0.0000
 Atom AN      X      Y      Z        X      Y      Z        X      Y      Z
   1   6    -0.16   0.03  -0.09    -0.23  -0.06   0.34    -0.03  -0.01   0.08
   2   6     0.53   0.01  -0.15     0.06  -0.01   0.00    -0.07   0.06  -0.00
   3   6    -0.19   0.01   0.03    -0.07   0.04   0.00     0.25  -0.27   0.04
   4   6    -0.08   0.06  -0.02     0.01  -0.07  -0.00     0.09   0.25   0.03
   5   6     0.04  -0.07   0.00     0.06   0.02   0.01    -0.34   0.01  -0.07
   6   6     0.05  -0.01   0.01    -0.04   0.08  -0.00     0.12  -0.41   0.01
   7   6     0.03   0.09   0.01    -0.03  -0.05  -0.01     0.23   0.18   0.06
   8   7    -0.08  -0.06  -0.02     0.08   0.02   0.01    -0.32  -0.01  -0.07
   9   1     0.07  -0.05  -0.00     0.36   0.20  -0.31     0.06   0.06  -0.07
  10   1    -0.08  -0.03   0.19     0.08   0.08  -0.49     0.02   0.01  -0.10
  11   1     0.08   0.04   0.01     0.33  -0.09  -0.37     0.05  -0.03  -0.09
  12   1    -0.40  -0.07   0.25    -0.07   0.04  -0.01     0.03   0.02  -0.03
  13   1    -0.43  -0.01   0.28    -0.05  -0.02  -0.02    -0.12  -0.02  -0.04
  14   1     0.05  -0.03   0.02    -0.04   0.01  -0.00     0.07   0.05   0.02
  15   1     0.10   0.03   0.03    -0.07  -0.04  -0.02     0.24   0.20   0.06
  16   1     0.01   0.01   0.01    -0.01  -0.06  -0.00     0.02   0.34   0.02
  17   1     0.15  -0.05   0.03    -0.01  -0.01  -0.00    -0.02   0.09  -0.00
                     31                     32                     33
                        a                      a                      a 
 Frequencies --  1450.6020              1470.2234              1497.6172
 Red. masses --     8.6687                 2.9092                 1.5448
 Frc consts  --     0.0000                 0.0000                 0.0000
 IR Inten    --    13.6414                 1.6455                 2.9016
 Raman Activ --     0.0000                 0.0000                 0.0000
 Depolar     --     0.0000                 0.0000                 0.0000
 Atom AN      X      Y      Z        X      Y      Z        X      Y      Z
   1   6     0.01  -0.02   0.03    -0.00   0.00  -0.04    -0.05  -0.20  -0.06
   2   6    -0.07  -0.05   0.06     0.20  -0.05   0.24    -0.03  -0.03  -0.02
   3   6     0.38   0.24   0.10    -0.17  -0.04  -0.02     0.01   0.00   0.00
   4   6    -0.30   0.18  -0.05     0.07  -0.06   0.01     0.00   0.00  -0.00
   5   6    -0.01  -0.23  -0.01     0.04   0.07   0.01    -0.01   0.00  -0.00
   6   6     0.19   0.13   0.05    -0.07  -0.03  -0.02     0.00  -0.01   0.00
   7   6    -0.33   0.15  -0.06     0.11  -0.04   0.02    -0.00   0.01  -0.00
   8   7    -0.03  -0.29  -0.02    -0.00   0.07   0.00    -0.00  -0.01  -0.00
   9   1    -0.02   0.04  -0.03     0.00  -0.08   0.07    -0.36  -0.02   0.13
  10   1     0.01   0.02  -0.01    -0.00   0.01   0.03     0.04   0.70   0.05
  11   1    -0.01  -0.02  -0.03     0.02   0.04   0.10     0.54   0.13   0.06
  12   1    -0.14   0.16  -0.12    -0.21   0.47  -0.36     0.03  -0.02  -0.01
  13   1    -0.01  -0.07  -0.19    -0.24  -0.27  -0.52     0.00   0.01   0.04
  14   1     0.24  -0.15   0.04    -0.05   0.03  -0.01    -0.00   0.00   0.00
  15   1     0.14   0.01   0.03    -0.05  -0.01  -0.01     0.00   0.00   0.00
  16   1     0.06  -0.12   0.01    -0.02   0.03  -0.00     0.00   0.00   0.00
  17   1     0.26  -0.14   0.05    -0.07   0.04  -0.01     0.00  -0.00   0.00
                     34                     35                     36
                        a                      a                      a 
 Frequencies --  1503.9689              1569.7421              1587.1124
 Red. masses --     1.6942                11.7846                11.6221
 Frc consts  --     0.0000                 0.0000                 0.0000
 IR Inten    --     3.6556                23.6349                60.9922
 Raman Activ --     0.0000                 0.0000                 0.0000
 Depolar     --     0.0000                 0.0000                 0.0000
 Atom AN      X      Y      Z        X      Y      Z        X      Y      Z
   1   6     0.17  -0.08   0.10     0.00   0.00  -0.00    -0.01  -0.00   0.01
   2   6     0.09  -0.02   0.03     0.00   0.04   0.01    -0.03   0.02  -0.01
   3   6    -0.06  -0.01  -0.01    -0.08  -0.47  -0.04     0.22  -0.21   0.03
   4   6     0.01  -0.02   0.00     0.08   0.21   0.03    -0.45   0.24  -0.08
   5   6     0.02   0.01   0.01    -0.36  -0.36  -0.09     0.36  -0.01   0.08
   6   6    -0.02   0.01  -0.00     0.10   0.48   0.04    -0.19   0.23  -0.03
   7   6     0.04  -0.02   0.01    -0.07  -0.17  -0.02     0.44  -0.26   0.08
   8   7     0.00   0.02   0.00     0.24   0.27   0.06    -0.28   0.04  -0.06
   9   1    -0.42   0.46  -0.29    -0.01  -0.00   0.01     0.01  -0.01   0.00
  10   1    -0.04   0.09   0.35     0.00   0.00   0.00     0.00   0.00  -0.02
  11   1    -0.24  -0.25  -0.46     0.00   0.00   0.00     0.01   0.00   0.01
  12   1    -0.04   0.04  -0.02     0.05   0.00  -0.02     0.02  -0.01   0.00
  13   1    -0.05  -0.03  -0.02    -0.08  -0.02  -0.01    -0.03   0.00   0.01
  14   1    -0.02   0.01  -0.00     0.07   0.02   0.02     0.09  -0.07   0.01
  15   1    -0.01  -0.01  -0.00     0.12   0.03   0.03    -0.05  -0.08  -0.01
  16   1    -0.01  -0.00  -0.00     0.04  -0.09   0.00    -0.05  -0.08  -0.01
  17   1    -0.02   0.01  -0.00    -0.02  -0.04  -0.01    -0.12   0.04  -0.02
                     37                     38                     39
                        a                      a                      a 
 Frequencies --  2975.9792              3007.7767              3032.0822
 Red. masses --     1.7601                 1.7029                 1.8725
 Frc consts  --     0.0000                 0.0000                 0.0000
 IR Inten    --    30.3150                 7.2812                48.2115
 Raman Activ --     0.0000                 0.0000                 0.0000
 Depolar     --     0.0000                 0.0000                 0.0000
 Atom AN      X      Y      Z        X      Y      Z        X      Y      Z
   1   6     0.01   0.02   0.01     0.03  -0.07   0.02    -0.10   0.24  -0.08
   2   6    -0.06  -0.19  -0.17    -0.06   0.21  -0.09    -0.02   0.07  -0.02
   3   6    -0.00  -0.01  -0.00    -0.00   0.01  -0.00    -0.00   0.00  -0.00
   4   6     0.00   0.00   0.00    -0.00  -0.00  -0.00    -0.00  -0.01  -0.00
   5   6    -0.00  -0.00  -0.00     0.00   0.00   0.00    -0.00   0.00  -0.00
   6   6     0.00   0.00   0.00     0.00  -0.00   0.00    -0.00  -0.00  -0.00
   7   6     0.00  -0.00   0.00    -0.00  -0.00  -0.00    -0.00  -0.00  -0.00
   8   7    -0.00   0.00  -0.00     0.00  -0.00   0.00     0.00  -0.00   0.00
   9   1    -0.02  -0.06  -0.06     0.02   0.02   0.03    -0.04  -0.03  -0.07
  10   1    -0.03   0.01  -0.00    -0.08  -0.01  -0.01     0.22   0.02   0.04
  11   1     0.01  -0.03   0.01    -0.05   0.23  -0.09     0.18  -0.81   0.31
  12   1     0.25   0.66   0.65     0.01   0.07   0.03    -0.01  -0.00  -0.01
  13   1    -0.02   0.03  -0.04     0.19  -0.85   0.31     0.06  -0.25   0.09
  14   1    -0.01  -0.02  -0.00     0.00   0.00   0.00     0.02   0.02   0.00
  15   1    -0.00   0.00  -0.00     0.00  -0.00  -0.00     0.00  -0.01   0.00
  16   1     0.00   0.00  -0.00     0.00  -0.00  -0.00     0.00  -0.00   0.00
  17   1    -0.00  -0.00   0.00     0.00   0.00   0.00     0.00   0.01   0.00
                     40                     41                     42
                        a                      a                      a 
 Frequencies --  3036.0732              3044.4579              3049.4479
 Red. masses --     1.7189                 1.5703                 1.7920
 Frc consts  --     0.0000                 0.0000                 0.0000
 IR Inten    --    42.0158                24.9412                34.9974
 Raman Activ --     0.0000                 0.0000                 0.0000
 Depolar     --     0.0000                 0.0000                 0.0000
 Atom AN      X      Y      Z        X      Y      Z        X      Y      Z
   1   6    -0.24  -0.07  -0.06     0.03   0.14   0.17    -0.00   0.00  -0.00
   2   6    -0.01  -0.01  -0.01     0.00   0.02   0.02    -0.00   0.00  -0.00
   3   6     0.00  -0.00   0.00     0.00   0.00   0.00    -0.00  -0.00  -0.00
   4   6     0.00   0.00   0.00    -0.00  -0.00  -0.00     0.00   0.00   0.00
   5   6    -0.00   0.00  -0.00     0.00  -0.00   0.00    -0.01   0.01  -0.00
   6   6    -0.00  -0.00  -0.00    -0.00  -0.00   0.00    -0.02   0.00  -0.00
   7   6    -0.00  -0.00  -0.00    -0.00  -0.00  -0.00     0.11   0.24   0.03
   8   7    -0.00  -0.00   0.00    -0.00  -0.00  -0.00     0.01   0.01   0.00
   9   1     0.02   0.12   0.12    -0.25  -0.65  -0.64    -0.00  -0.00  -0.00
  10   1     0.90  -0.08   0.17     0.16   0.01   0.05     0.02  -0.00   0.00
  11   1    -0.08   0.20  -0.09    -0.02   0.15  -0.03    -0.00  -0.00   0.00
  12   1     0.01   0.04   0.04    -0.02  -0.05  -0.05     0.00   0.00  -0.00
  13   1     0.00  -0.01   0.00     0.00  -0.02   0.01     0.00  -0.00   0.00
  14   1    -0.00  -0.00  -0.00     0.00   0.01   0.00    -0.00  -0.01  -0.00
  15   1     0.00  -0.00   0.00     0.00  -0.00   0.00     0.01  -0.02   0.00
  16   1     0.00   0.00   0.00     0.00  -0.00  -0.00     0.11   0.00   0.02
  17   1     0.01   0.01   0.00     0.00   0.01   0.00    -0.41  -0.85  -0.12
                     43                     44                     45
                        a                      a                      a 
 Frequencies --  3064.9497              3082.2950              3093.5499
 Red. masses --     1.7826                 1.8599                 1.8828
 Frc consts  --     0.0000                 0.0000                 0.0000
 IR Inten    --    21.8002                52.5904                44.6042
 Raman Activ --     0.0000                 0.0000                 0.0000
 Depolar     --     0.0000                 0.0000                 0.0000
 Atom AN      X      Y      Z        X      Y      Z        X      Y      Z
   1   6    -0.00   0.00  -0.00    -0.00   0.01  -0.00     0.00   0.00   0.00
   2   6     0.00   0.00   0.00     0.00   0.01   0.00     0.00   0.00   0.00
   3   6     0.00   0.00   0.00     0.01  -0.00   0.00     0.00  -0.00   0.00
   4   6     0.05   0.08   0.01     0.13   0.22   0.04     0.02   0.03   0.01
   5   6     0.12  -0.21   0.01    -0.05   0.08  -0.01    -0.04   0.07  -0.00
   6   6    -0.05  -0.00  -0.01     0.05  -0.00   0.01    -0.26  -0.01  -0.05
   7   6    -0.00  -0.00  -0.00     0.00   0.00   0.00    -0.02  -0.04  -0.00
   8   7    -0.00   0.00  -0.00    -0.00  -0.00  -0.00     0.00   0.00   0.00
   9   1    -0.00  -0.00  -0.00    -0.00  -0.00  -0.01     0.00  -0.00  -0.00
  10   1     0.01   0.00   0.00     0.00   0.00   0.00    -0.00   0.00  -0.00
  11   1     0.00  -0.01   0.00     0.00  -0.02   0.01     0.00  -0.00   0.00
  12   1    -0.00  -0.01  -0.01    -0.01  -0.01  -0.01    -0.00  -0.00  -0.00
  13   1     0.00  -0.01   0.00     0.00  -0.01   0.00     0.00  -0.00   0.00
  14   1    -0.18  -0.30  -0.05    -0.45  -0.75  -0.13    -0.05  -0.09  -0.02
  15   1    -0.43   0.76  -0.05     0.15  -0.27   0.02     0.12  -0.21   0.01
  16   1     0.19   0.01   0.04    -0.18  -0.00  -0.04     0.90   0.02   0.19
  17   1     0.00   0.00   0.00    -0.00  -0.01  -0.00     0.05   0.10   0.01
