      -----------------------------------------------------------      
     |                   =====================                   |     
     |                           x T B                           |     
     |                   =====================                   |     
     |                         S. Grimme                         |     
     |          Mulliken Center for Theoretical Chemistry        |     
     |                    University of Bonn                     |     
      -----------------------------------------------------------      

   * xtb version 6.7.1 (edcfbbe) compiled by 'albert@albert-system' on 2024-07-22

   xtb is free software: you can redistribute it and/or modify it under
   the terms of the GNU Lesser General Public License as published by
   the Free Software Foundation, either version 3 of the License, or
   (at your option) any later version.
   
   xtb is distributed in the hope that it will be useful,
   but WITHOUT ANY WARRANTY; without even the implied warranty of
   MERCHANTABILITY or FITNESS FOR A PARTICULAR PURPOSE.  See the
   GNU Lesser General Public License for more details.
   
   Cite this work as:
   * C. Bannwarth, E. Caldeweyher, S. Ehlert, A. Hansen, P. Pracht,
     J. Seibert, S. Spicher, S. Grimme, WIREs Comput. Mol. Sci., 2020, 11,
     e01493. DOI: 10.1002/wcms.1493
   
   for GFN2-xTB:
   * C. Bannwarth, S. Ehlert and S. Grimme., J. Chem. Theory Comput., 2019,
     15, 1652-1671. DOI: 10.1021/acs.jctc.8b01176
   for GFN1-xTB:
   * S. Grimme, C. Bannwarth, P. Shushkov, J. Chem. Theory Comput., 2017,
     13, 1989-2009. DOI: 10.1021/acs.jctc.7b00118
   for GFN0-xTB:
   * P. Pracht, E. Caldeweyher, S. Ehlert, S. Grimme, ChemRxiv, 2019, preprint.
     DOI: 10.26434/chemrxiv.8326202.v1
   for GFN-FF:
   * S. Spicher and S. Grimme, Angew. Chem. Int. Ed., 2020, 59, 15665-15673.
     DOI: 10.1002/anie.202004239
   
   for ALPB and GBSA implicit solvation:
   * S. Ehlert, M. Stahn, S. Spicher, S. Grimme, J. Chem. Theory Comput.,
     2021, 17, 4250-4261. DOI: 10.1021/acs.jctc.1c00471
   
   for ddCOSMO and CPCM-X implicit solvation:
   * M. Stahn, S. Ehlert, S. Grimme, J. Phys. Chem. A,
     2023, XX, XXXX-XXXX. DOI: 10.1021/acs.jpca.3c04382
   
   for DFT-D4:
   * E. Caldeweyher, C. Bannwarth and S. Grimme, J. Chem. Phys., 2017,
     147, 034112. DOI: 10.1063/1.4993215
   * E. Caldeweyher, S. Ehlert, A. Hansen, H. Neugebauer, S. Spicher,
     C. Bannwarth and S. Grimme, J. Chem. Phys., 2019, 150, 154122.
     DOI: 10.1063/1.5090222
   * E. Caldeweyher, J.-M. Mewes, S. Ehlert and S. Grimme, Phys. Chem. Chem. Phys.
     2020, 22, 8499-8512. DOI: 10.1039/D0CP00502A
   
   for sTDA-xTB:
   * S. Grimme and C. Bannwarth, J. Chem. Phys., 2016, 145, 054103.
     DOI: 10.1063/1.4959605
   
   in the mass-spec context:
   * V. Asgeirsson, C. Bauer and S. Grimme, Chem. Sci., 2017, 8, 4879.
     DOI: 10.1039/c7sc00601b
   * J. Koopman and S. Grimme, ACS Omega 2019, 4, 12, 15120-15133.
     DOI: 10.1021/acsomega.9b02011
   
   for metadynamics refer to:
   * S. Grimme, J. Chem. Theory Comput., 2019, 155, 2847-2862
     DOI: 10.1021/acs.jctc.9b00143
   
   for SPH calculations refer to:
   * S. Spicher and S. Grimme, J. Chem. Theory Comput., 2021, 17, 1701-1714
     DOI: 10.1021/acs.jctc.0c01306
   
   for ONIOM refer to:
   * C. Plett, A. Katbashev, S. Ehlert, S. Grimme, M. Bursch,
     Phys. Chem. Chem. Phys., 2023, 25, 17860-17868. DOI: 10.1039/D3CP02178E
   
   for DIPRO refer to:
   * J. Kohn, N. Gildemeister, S. Grimme, D. Fazzi, A. Hansen,
     J. Chem. Phys., 2023, just accepted.
   
   for PTB refer to:
   * S. Grimme, M. Mueller, A. Hansen, J. Chem. Phys., 2023, 158, 124111.
     DOI: 10.1063/5.0137838
   
   with help from (in alphabetical order)
   P. Atkinson, C. Bannwarth, F. Bohle, G. Brandenburg, E. Caldeweyher
   M. Checinski, S. Dohm, S. Ehlert, S. Ehrlich, I. Gerasimov, C. Hölzer
   A. Katbashev, J. Kohn, J. Koopman, C. Lavigne, S. Lehtola, F. März, M. Müller,
   F. Musil, H. Neugebauer, J. Pisarek, C. Plett, P. Pracht, F. Pultar,
   J. Seibert, P. Shushkov, S. Spicher, M. Stahn, M. Steiner, T. Strunk,
   J. Stückrath, T. Rose, and J. Unsleber
   
 * started run on 2025/04/15 at 20:17:10.956     
   ID    Z sym.   atoms
    1    6 C      1, 3, 4, 6-11
    2    7 N      2
    3    8 O      5
    4    1 H      12-22

           -------------------------------------------------
          |                Calculation Setup                |
           -------------------------------------------------

          program call               : /software/projects/pawsey0265/mwang1/xtb/bin/xtb xtb_rrho.coord --gfn2 --ohess vtight --chrg 0 --enso --norestart -I rrho-xcontrol-inp --parallel 1
          hostname                   : nid002793
          coordinate file            : xtb_rrho.coord
          omp threads                :                     1


           -------------------------------------------------
          |                 G F N 2 - x T B                 |
           -------------------------------------------------

        Reference                      10.1021/acs.jctc.8b01176
      * Hamiltonian:
        H0-scaling (s, p, d)           1.850000    2.230000    2.230000
        zeta-weighting                 0.500000
      * Dispersion:
        s8                             2.700000
        a1                             0.520000
        a2                             5.000000
        s9                             5.000000
      * Repulsion:
        kExp                           1.500000    1.000000
        rExp                           1.000000
      * Coulomb:
        alpha                          2.000000
        third order                    shell-resolved
        anisotropic                    true
        a3                             3.000000
        a5                             4.000000
        cn-shift                       1.200000
        cn-exp                         4.000000
        max-rad                        5.000000


          ...................................................
          :                      SETUP                      :
          :.................................................:
          :  # basis functions                  55          :
          :  # atomic orbitals                  55          :
          :  # shells                           33          :
          :  # electrons                        58          :
          :  max. iterations                   250          :
          :  Hamiltonian                  GFN2-xTB          :
          :  restarted?                      false          :
          :  GBSA solvation                  false          :
          :  PC potential                    false          :
          :  electronic temp.          300.0000000     K    :
          :  accuracy                    1.0000000          :
          :  -> integral cutoff          0.2500000E+02      :
          :  -> integral neglect         0.1000000E-07      :
          :  -> SCF convergence          0.1000000E-05 Eh   :
          :  -> wf. convergence          0.1000000E-03 e    :
          :  Broyden damping             0.4000000          :
          :  net charge                          0          :
          :  unpaired electrons                  0          :
          ...................................................

 iter      E             dE          RMSdq      gap      omega  full diag
   1    -32.2689941 -0.322690E+02  0.415E+00    3.44       0.0  T
   2    -32.3307209 -0.617268E-01  0.241E+00    3.42       1.0  T
   3    -32.3326113 -0.189036E-02  0.116E+00    3.61       1.0  T
   4    -32.3347821 -0.217085E-02  0.252E-01    3.61       1.0  T
   5    -32.3360439 -0.126172E-02  0.928E-02    3.65       1.0  T
   6    -32.3361553 -0.111482E-03  0.381E-02    3.65       1.0  T
   7    -32.3361569 -0.153655E-05  0.187E-02    3.64       1.1  T
   8    -32.3361600 -0.315971E-05  0.512E-03    3.64       4.2  T
   9    -32.3361601 -0.680429E-07  0.238E-03    3.64       9.0  T
  10    -32.3361602 -0.630856E-07  0.114E-03    3.64      18.6  T
  11    -32.3361602 -0.580972E-08  0.461E-04    3.64      46.3  T
  12    -32.3361602 -0.719396E-09  0.141E-04    3.64     151.3  T

   *** convergence criteria satisfied after 12 iterations ***

         #    Occupation            Energy/Eh            Energy/eV
      -------------------------------------------------------------
         1        2.0000           -0.6861217             -18.6703
       ...           ...                  ...                  ...
        23        2.0000           -0.4693745             -12.7723
        24        2.0000           -0.4397117             -11.9652
        25        2.0000           -0.4277435             -11.6395
        26        2.0000           -0.4095114             -11.1434
        27        2.0000           -0.4087062             -11.1215
        28        2.0000           -0.3888974             -10.5824
        29        2.0000           -0.3825324             -10.4092 (HOMO)
        30                         -0.2486621              -6.7664 (LUMO)
        31                         -0.2304667              -6.2713
        32                         -0.1901327              -5.1738
        33                         -0.0989419              -2.6923
        34                         -0.0111173              -0.3025
       ...                                ...                  ...
        55                          0.6401995              17.4207
      -------------------------------------------------------------
                  HL-Gap            0.1338704 Eh            3.6428 eV
             Fermi-level           -0.3155973 Eh           -8.5878 eV

 SCC (total)                   0 d,  0 h,  0 min,  0.058 sec
 SCC setup                      ...        0 min,  0.000 sec (  0.469%)
 Dispersion                     ...        0 min,  0.000 sec (  0.355%)
 classical contributions        ...        0 min,  0.000 sec (  0.088%)
 integral evaluation            ...        0 min,  0.004 sec (  6.289%)
 iterations                     ...        0 min,  0.048 sec ( 82.683%)
 molecular gradient             ...        0 min,  0.006 sec (  9.894%)
 printout                       ...        0 min,  0.000 sec (  0.187%)

         :::::::::::::::::::::::::::::::::::::::::::::::::::::
         ::                     SUMMARY                     ::
         :::::::::::::::::::::::::::::::::::::::::::::::::::::
         :: total energy             -31.864212348988 Eh    ::
         :: gradient norm              0.023144529636 Eh/a0 ::
         :: HOMO-LUMO gap              3.642797939638 eV    ::
         ::.................................................::
         :: SCC energy               -32.336102018242 Eh    ::
         :: -> isotropic ES            0.038358425469 Eh    ::
         :: -> anisotropic ES          0.003690200434 Eh    ::
         :: -> anisotropic XC          0.016812055552 Eh    ::
         :: -> dispersion             -0.018634607967 Eh    ::
         :: repulsion energy           0.471889669255 Eh    ::
         :: add. restraining           0.000000000000 Eh    ::
         :: total charge              -0.000000000000 e     ::
         :::::::::::::::::::::::::::::::::::::::::::::::::::::

      ----------------------------------------------------------- 
     |                   =====================                   |
     |                        A N C O P T                        |
     |                   =====================                   |
     |               Approximate Normal Coordinate               |
     |                Rational Function Optimizer                |
      ----------------------------------------------------------- 
      ----------------------------------------------------------- 
     |                   =====================                   |
     |                        A N C O P T                        |
     |                   =====================                   |
     |               Approximate Normal Coordinate               |
     |                Rational Function Optimizer                |
      ----------------------------------------------------------- 

          ...................................................
          :                      SETUP                      :
          :.................................................:
          :   optimization level         verytight          :
          :   max. optcycles                   440          :
          :   ANC micro-cycles                  20          :
          :   degrees of freedom                60          :
          :.................................................:
          :   RF solver                   davidson          :
          :   write xtbopt.log                true          :
          :   linear?                        false          :
          :   energy convergence         0.1000000E-06 Eh   :
          :   grad. convergence          0.2000000E-03 Eh/α :
          :   maxmium RF displ.          1.0000000          :
          :   Hlow (freq-cutoff)         0.1000000E-01      :
          :   Hmax (freq-cutoff)         5.0000000          :
          :   S6 in model hess.         20.0000000          :
          ...................................................

generating ANC from exact Hessian ...
Using Lindh-Hessian (1995)
 Shifting diagonal of input Hessian by   8.517548518447708E-003
 Lowest  eigenvalues of input Hessian
    0.000000    0.000000    0.000000    0.000000    0.000000    0.000000
    0.010000    0.010417    0.011263    0.017137    0.018617    0.018959
    0.022969    0.024415    0.029004    0.030154    0.033636    0.037388
 Highest eigenvalues
    1.546270    1.789671    1.854084    1.946618    1.993925    2.244974
 

........................................................................
.............................. CYCLE    1 ..............................
........................................................................

 iter      E             dE          RMSdq      gap      omega  full diag
   1    -32.3361602 -0.323362E+02  0.415E-05    3.64       0.0  T
   2    -32.3361602 -0.130740E-11  0.241E-05    3.64     884.9  T
   3    -32.3361602  0.426326E-12  0.867E-06    3.64    2460.3  T
     SCC iter.                  ...        0 min,  0.002 sec
     gradient                   ...        0 min,  0.006 sec
 * total energy  :   -31.8642123 Eh     change       -0.2701128E-09 Eh
   gradient norm :     0.0231456 Eh/α   predicted     0.0000000E+00 (-100.00%)
   displ. norm   :     0.1394003 α      lambda       -0.1895891E-02
   maximum displ.:     0.0605456 α      in ANC's #13, #15, #10, ...

........................................................................
.............................. CYCLE    2 ..............................
........................................................................

 iter      E             dE          RMSdq      gap      omega  full diag
   1    -32.3550927 -0.323551E+02  0.103E-01    3.68       0.0  T
   2    -32.3551203 -0.276159E-04  0.650E-02    3.68       1.0  T
   3    -32.3551203 -0.441545E-07  0.288E-02    3.69       1.0  T
   4    -32.3551239 -0.352273E-05  0.571E-03    3.68       3.7  T
   5    -32.3551244 -0.531564E-06  0.240E-03    3.68       8.9  T
   6    -32.3551244 -0.518078E-07  0.112E-03    3.68      19.0  T
   7    -32.3551244 -0.436324E-08  0.411E-04    3.68      51.8  T
   8    -32.3551244 -0.637250E-09  0.167E-04    3.68     128.0  T
     SCC iter.                  ...        0 min,  0.006 sec
     gradient                   ...        0 min,  0.010 sec
 * total energy  :   -31.8653918 Eh     change       -0.1179498E-02 Eh
   gradient norm :     0.0057194 Eh/α   predicted    -0.9663745E-03 ( -18.07%)
   displ. norm   :     0.0969908 α      lambda       -0.2803307E-03
   maximum displ.:     0.0349421 α      in ANC's #13, #10, #1, ...

........................................................................
.............................. CYCLE    3 ..............................
........................................................................

 iter      E             dE          RMSdq      gap      omega  full diag
   1    -32.3609756 -0.323610E+02  0.563E-02    3.71       0.0  T
   2    -32.3609863 -0.107349E-04  0.343E-02    3.70       1.0  T
   3    -32.3609869 -0.587780E-06  0.166E-02    3.71       1.3  T
   4    -32.3609875 -0.625187E-06  0.389E-03    3.71       5.5  T
   5    -32.3609878 -0.339391E-06  0.101E-03    3.70      21.0  T
   6    -32.3609878 -0.504482E-08  0.534E-04    3.70      39.9  T
   7    -32.3609878 -0.739973E-09  0.183E-04    3.70     116.3  T
     SCC iter.                  ...        0 min,  0.005 sec
     gradient                   ...        0 min,  0.010 sec
 * total energy  :   -31.8655828 Eh     change       -0.1909972E-03 Eh
   gradient norm :     0.0030453 Eh/α   predicted    -0.1414844E-03 ( -25.92%)
   displ. norm   :     0.1321208 α      lambda       -0.1873140E-03
   maximum displ.:     0.0586835 α      in ANC's #2, #12, #6, ...

........................................................................
.............................. CYCLE    4 ..............................
........................................................................

 iter      E             dE          RMSdq      gap      omega  full diag
   1    -32.3631141 -0.323631E+02  0.699E-02    3.73       0.0  T
   2    -32.3631229 -0.877677E-05  0.407E-02    3.73       1.0  T
   3    -32.3631222  0.753363E-06  0.178E-02    3.73       1.2  T
   4    -32.3631242 -0.203567E-05  0.406E-03    3.73       5.2  T
   5    -32.3631246 -0.359120E-06  0.121E-03    3.73      17.6  T
   6    -32.3631246 -0.294651E-08  0.527E-04    3.73      40.4  T
   7    -32.3631246 -0.144142E-08  0.205E-04    3.73     104.2  T
     SCC iter.                  ...        0 min,  0.005 sec
     gradient                   ...        0 min,  0.010 sec
 * total energy  :   -31.8657342 Eh     change       -0.1513834E-03 Eh
   gradient norm :     0.0032685 Eh/α   predicted    -0.9544469E-04 ( -36.95%)
   displ. norm   :     0.3032949 α      lambda       -0.3459897E-03
   maximum displ.:     0.1506749 α      in ANC's #2, #12, #6, ...

........................................................................
.............................. CYCLE    5 ..............................
........................................................................

 iter      E             dE          RMSdq      gap      omega  full diag
   1    -32.3627545 -0.323628E+02  0.150E-01    3.79       0.0  T
   2    -32.3627709 -0.163738E-04  0.873E-02    3.78       1.0  T
   3    -32.3627615  0.942305E-05  0.310E-02    3.78       1.0  T
   4    -32.3627750 -0.135482E-04  0.631E-03    3.78       3.4  T
   5    -32.3627757 -0.643587E-06  0.266E-03    3.78       8.0  T
   6    -32.3627757 -0.130647E-07  0.877E-04    3.78      24.3  T
   7    -32.3627757 -0.549841E-08  0.427E-04    3.78      49.9  T
     SCC iter.                  ...        0 min,  0.005 sec
     gradient                   ...        0 min,  0.008 sec
 * total energy  :   -31.8659787 Eh     change       -0.2444940E-03 Eh
   gradient norm :     0.0068868 Eh/α   predicted    -0.1889091E-03 ( -22.73%)
   displ. norm   :     0.2571569 α      lambda       -0.2231629E-03
   maximum displ.:     0.1437907 α      in ANC's #2, #12, #6, ...

........................................................................
.............................. CYCLE    6 ..............................
........................................................................

 iter      E             dE          RMSdq      gap      omega  full diag
   1    -32.3604561 -0.323605E+02  0.118E-01    3.82       0.0  T
   2    -32.3604588 -0.272989E-05  0.698E-02    3.82       1.0  T
   3    -32.3604529  0.593492E-05  0.184E-02    3.82       1.2  T
   4    -32.3604605 -0.756765E-05  0.310E-03    3.82       6.9  T
   5    -32.3604605 -0.143124E-07  0.145E-03    3.82      14.8  T
   6    -32.3604605 -0.120314E-07  0.520E-04    3.82      41.0  T
   7    -32.3604605 -0.106408E-08  0.256E-04    3.82      83.4  T
     SCC iter.                  ...        0 min,  0.003 sec
     gradient                   ...        0 min,  0.006 sec
 * total energy  :   -31.8661337 Eh     change       -0.1549913E-03 Eh
   gradient norm :     0.0077511 Eh/α   predicted    -0.1189740E-03 ( -23.24%)
   displ. norm   :     0.1775147 α      lambda       -0.1810697E-03
   maximum displ.:     0.1089738 α      in ANC's #2, #6, #12, ...

........................................................................
.............................. CYCLE    7 ..............................
........................................................................

 iter      E             dE          RMSdq      gap      omega  full diag
   1    -32.3593134 -0.323593E+02  0.797E-02    3.84       0.0  T
   2    -32.3593182 -0.477458E-05  0.478E-02    3.85       1.0  T
   3    -32.3593169  0.133299E-05  0.127E-02    3.85       1.7  T
   4    -32.3593188 -0.190547E-05  0.299E-03    3.85       7.1  T
   5    -32.3593189 -0.169105E-06  0.108E-03    3.85      19.7  T
   6    -32.3593189 -0.358187E-08  0.411E-04    3.85      51.9  T
   7    -32.3593189 -0.437190E-09  0.167E-04    3.85     127.5  T
     SCC iter.                  ...        0 min,  0.003 sec
     gradient                   ...        0 min,  0.006 sec
 * total energy  :   -31.8662568 Eh     change       -0.1230413E-03 Eh
   gradient norm :     0.0040530 Eh/α   predicted    -0.9340899E-04 ( -24.08%)
   displ. norm   :     0.1737626 α      lambda       -0.1056400E-03
   maximum displ.:     0.1043776 α      in ANC's #2, #6, #12, ...

........................................................................
.............................. CYCLE    8 ..............................
........................................................................

 iter      E             dE          RMSdq      gap      omega  full diag
   1    -32.3589498 -0.323589E+02  0.794E-02    3.87       0.0  T
   2    -32.3589506 -0.803810E-06  0.465E-02    3.87       1.0  T
   3    -32.3589479  0.270230E-05  0.113E-02    3.87       1.9  T
   4    -32.3589511 -0.323655E-05  0.126E-03    3.87      16.9  T
   5    -32.3589511 -0.497723E-08  0.715E-04    3.87      29.8  T
   6    -32.3589511 -0.117757E-08  0.217E-04    3.87      98.3  T
     SCC iter.                  ...        0 min,  0.003 sec
     gradient                   ...        0 min,  0.006 sec
 * total energy  :   -31.8663296 Eh     change       -0.7282828E-04 Eh
   gradient norm :     0.0029365 Eh/α   predicted    -0.5442703E-04 ( -25.27%)
   displ. norm   :     0.1475837 α      lambda       -0.7785171E-04
   maximum displ.:     0.0874625 α      in ANC's #2, #6, #3, ...

........................................................................
.............................. CYCLE    9 ..............................
........................................................................

 iter      E             dE          RMSdq      gap      omega  full diag
   1    -32.3606135 -0.323606E+02  0.620E-02    3.89       0.0  T
   2    -32.3606143 -0.715569E-06  0.364E-02    3.89       1.0  T
   3    -32.3606132  0.108665E-05  0.745E-03    3.89       2.9  T
   4    -32.3606145 -0.132523E-05  0.113E-03    3.89      18.9  T
   5    -32.3606145 -0.124745E-07  0.587E-04    3.89      36.3  T
   6    -32.3606145 -0.156211E-08  0.263E-04    3.89      81.0  T
     SCC iter.                  ...        0 min,  0.003 sec
     gradient                   ...        0 min,  0.006 sec
 * total energy  :   -31.8663786 Eh     change       -0.4900082E-04 Eh
   gradient norm :     0.0027552 Eh/α   predicted    -0.3979140E-04 ( -18.79%)
   displ. norm   :     0.1807805 α      lambda       -0.5040175E-04
   maximum displ.:     0.1097414 α      in ANC's #6, #2, #3, ...

........................................................................
.............................. CYCLE   10 ..............................
........................................................................

 iter      E             dE          RMSdq      gap      omega  full diag
   1    -32.3605544 -0.323606E+02  0.770E-02    3.91       0.0  T
   2    -32.3605563 -0.186627E-05  0.451E-02    3.91       1.0  T
   3    -32.3605534  0.285838E-05  0.131E-02    3.91       1.6  T
   4    -32.3605570 -0.353725E-05  0.187E-03    3.91      11.4  T
   5    -32.3605570 -0.564987E-07  0.860E-04    3.91      24.8  T
   6    -32.3605570 -0.644668E-09  0.303E-04    3.91      70.3  T
     SCC iter.                  ...        0 min,  0.003 sec
     gradient                   ...        0 min,  0.006 sec
 * total energy  :   -31.8664065 Eh     change       -0.2796347E-04 Eh
   gradient norm :     0.0023497 Eh/α   predicted    -0.2602552E-04 (  -6.93%)
   displ. norm   :     0.0604910 α      lambda       -0.2547322E-04
   maximum displ.:     0.0332185 α      in ANC's #2, #6, #3, ...

........................................................................
.............................. CYCLE   11 ..............................
........................................................................

 iter      E             dE          RMSdq      gap      omega  full diag
   1    -32.3620313 -0.323620E+02  0.294E-02    3.92       0.0  T
   2    -32.3620318 -0.493830E-06  0.172E-02    3.91       1.2  T
   3    -32.3620315  0.283523E-06  0.494E-03    3.92       4.3  T
   4    -32.3620319 -0.384197E-06  0.102E-03    3.92      20.9  T
   5    -32.3620319 -0.168178E-07  0.402E-04    3.92      53.0  T
   6    -32.3620319 -0.371998E-09  0.162E-04    3.92     131.3  T
     SCC iter.                  ...        0 min,  0.003 sec
     gradient                   ...        0 min,  0.006 sec
 * total energy  :   -31.8664212 Eh     change       -0.1461428E-04 Eh
   gradient norm :     0.0016174 Eh/α   predicted    -0.1279413E-04 ( -12.45%)
   displ. norm   :     0.0699317 α      lambda       -0.7522285E-05
   maximum displ.:     0.0451950 α      in ANC's #2, #6, #3, ...

........................................................................
.............................. CYCLE   12 ..............................
........................................................................

 iter      E             dE          RMSdq      gap      omega  full diag
   1    -32.3618830 -0.323619E+02  0.334E-02    3.92       0.0  T
   2    -32.3618834 -0.431672E-06  0.197E-02    3.93       1.1  T
   3    -32.3618831  0.336968E-06  0.490E-03    3.93       4.3  T
   4    -32.3618835 -0.418030E-06  0.102E-03    3.93      21.0  T
   5    -32.3618835 -0.173556E-07  0.337E-04    3.93      63.2  T
   6    -32.3618835 -0.313342E-09  0.140E-04    3.93     152.3  T
     SCC iter.                  ...        0 min,  0.003 sec
     gradient                   ...        0 min,  0.006 sec
 * total energy  :   -31.8664261 Eh     change       -0.4960468E-05 Eh
   gradient norm :     0.0008470 Eh/α   predicted    -0.3770886E-05 ( -23.98%)
   displ. norm   :     0.0167910 α      lambda       -0.2722664E-05
   maximum displ.:     0.0107651 α      in ANC's #1, #6, #4, ...

........................................................................
.............................. CYCLE   13 ..............................
........................................................................

 iter      E             dE          RMSdq      gap      omega  full diag
   1    -32.3617341 -0.323617E+02  0.742E-03    3.93       0.0  T
   2    -32.3617341 -0.303856E-07  0.432E-03    3.92       4.9  T
   3    -32.3617341  0.152991E-07  0.118E-03    3.92      18.0  T
   4    -32.3617342 -0.212657E-07  0.265E-04    3.92      80.6  T
   5    -32.3617342 -0.871573E-09  0.121E-04    3.92     176.4  T
     SCC iter.                  ...        0 min,  0.002 sec
     gradient                   ...        0 min,  0.006 sec
 * total energy  :   -31.8664289 Eh     change       -0.2730475E-05 Eh
   gradient norm :     0.0006775 Eh/α   predicted    -0.1362519E-05 ( -50.10%)
   displ. norm   :     0.0261533 α      lambda       -0.2545563E-05
   maximum displ.:     0.0161370 α      in ANC's #1, #6, #2, ...

........................................................................
.............................. CYCLE   14 ..............................
........................................................................

 iter      E             dE          RMSdq      gap      omega  full diag
   1    -32.3615698 -0.323616E+02  0.993E-03    3.92       0.0  T
   2    -32.3615699 -0.864790E-07  0.588E-03    3.93       3.6  T
   3    -32.3615699  0.114556E-07  0.155E-03    3.93      13.8  T
   4    -32.3615699 -0.196942E-07  0.305E-04    3.93      69.9  T
   5    -32.3615699 -0.192011E-08  0.124E-04    3.93     171.2  T
     SCC iter.                  ...        0 min,  0.002 sec
     gradient                   ...        0 min,  0.006 sec
 * total energy  :   -31.8664316 Eh     change       -0.2785709E-05 Eh
   gradient norm :     0.0004791 Eh/α   predicted    -0.1275274E-05 ( -54.22%)
   displ. norm   :     0.0422449 α      lambda       -0.2616723E-05
   maximum displ.:     0.0249072 α      in ANC's #1, #2, #6, ...

........................................................................
.............................. CYCLE   15 ..............................
........................................................................

 iter      E             dE          RMSdq      gap      omega  full diag
   1    -32.3615833 -0.323616E+02  0.170E-02    3.93       0.0  T
   2    -32.3615834 -0.100885E-06  0.998E-03    3.93       2.1  T
   3    -32.3615834  0.353423E-07  0.181E-03    3.93      11.8  T
   4    -32.3615834 -0.481030E-07  0.415E-04    3.93      51.4  T
   5    -32.3615834 -0.301428E-08  0.175E-04    3.93     122.1  T
     SCC iter.                  ...        0 min,  0.002 sec
     gradient                   ...        0 min,  0.006 sec
 * total energy  :   -31.8664346 Eh     change       -0.2918942E-05 Eh
   gradient norm :     0.0007178 Eh/α   predicted    -0.1311148E-05 ( -55.08%)
   displ. norm   :     0.0496937 α      lambda       -0.2468475E-05
   maximum displ.:     0.0293254 α      in ANC's #2, #1, #6, ...

........................................................................
.............................. CYCLE   16 ..............................
........................................................................

 iter      E             dE          RMSdq      gap      omega  full diag
   1    -32.3616026 -0.323616E+02  0.213E-02    3.93       0.0  T
   2    -32.3616026 -0.483192E-07  0.125E-02    3.93       1.7  T
   3    -32.3616025  0.796518E-07  0.198E-03    3.93      10.8  T
   4    -32.3616026 -0.976966E-07  0.361E-04    3.93      59.0  T
   5    -32.3616026 -0.937789E-09  0.169E-04    3.93     125.9  T
     SCC iter.                  ...        0 min,  0.002 sec
     gradient                   ...        0 min,  0.006 sec
 * total energy  :   -31.8664373 Eh     change       -0.2697357E-05 Eh
   gradient norm :     0.0006452 Eh/α   predicted    -0.1237884E-05 ( -54.11%)
   displ. norm   :     0.0527382 α      lambda       -0.2272357E-05
   maximum displ.:     0.0355191 α      in ANC's #2, #1, #3, ...

........................................................................
.............................. CYCLE   17 ..............................
........................................................................

 iter      E             dE          RMSdq      gap      omega  full diag
   1    -32.3616043 -0.323616E+02  0.239E-02    3.93       0.0  T
   2    -32.3616044 -0.440499E-07  0.140E-02    3.93       1.5  T
   3    -32.3616043  0.999274E-07  0.217E-03    3.93       9.8  T
   4    -32.3616044 -0.119672E-06  0.317E-04    3.93      67.3  T
   5    -32.3616044 -0.799204E-09  0.162E-04    3.93     131.5  T
     SCC iter.                  ...        0 min,  0.002 sec
     gradient                   ...        0 min,  0.006 sec
 * total energy  :   -31.8664397 Eh     change       -0.2447548E-05 Eh
   gradient norm :     0.0005463 Eh/α   predicted    -0.1140536E-05 ( -53.40%)
   displ. norm   :     0.0393426 α      lambda       -0.1530144E-05
   maximum displ.:     0.0295645 α      in ANC's #2, #3, #5, ...

........................................................................
.............................. CYCLE   18 ..............................
........................................................................

 iter      E             dE          RMSdq      gap      omega  full diag
   1    -32.3616858 -0.323617E+02  0.187E-02    3.94       0.0  T
   2    -32.3616859 -0.502034E-07  0.110E-02    3.94       1.9  T
   3    -32.3616858  0.101219E-06  0.227E-03    3.94       9.4  T
   4    -32.3616859 -0.120135E-06  0.305E-04    3.94      70.0  T
   5    -32.3616859 -0.139504E-08  0.130E-04    3.94     163.5  T
     SCC iter.                  ...        0 min,  0.002 sec
     gradient                   ...        0 min,  0.006 sec
 * total energy  :   -31.8664415 Eh     change       -0.1806124E-05 Eh
   gradient norm :     0.0002671 Eh/α   predicted    -0.7689389E-06 ( -57.43%)
   displ. norm   :     0.0396923 α      lambda       -0.1252488E-05
   maximum displ.:     0.0311075 α      in ANC's #2, #3, #5, ...

........................................................................
.............................. CYCLE   19 ..............................
........................................................................

 iter      E             dE          RMSdq      gap      omega  full diag
   1    -32.3616951 -0.323617E+02  0.190E-02    3.94       0.0  T
   2    -32.3616951 -0.463515E-07  0.111E-02    3.94       1.9  T
   3    -32.3616950  0.118404E-06  0.242E-03    3.94       8.8  T
   4    -32.3616952 -0.141223E-06  0.295E-04    3.94      72.2  T
   5    -32.3616952 -0.826489E-09  0.155E-04    3.94     137.3  T
     SCC iter.                  ...        0 min,  0.002 sec
     gradient                   ...        0 min,  0.006 sec
 * total energy  :   -31.8664430 Eh     change       -0.1445317E-05 Eh
   gradient norm :     0.0003378 Eh/α   predicted    -0.6306354E-06 ( -56.37%)
   displ. norm   :     0.0342739 α      lambda       -0.8693465E-06
   maximum displ.:     0.0272577 α      in ANC's #2, #3, #5, ...

........................................................................
.............................. CYCLE   20 ..............................
........................................................................

 iter      E             dE          RMSdq      gap      omega  full diag
   1    -32.3617277 -0.323617E+02  0.163E-02    3.95       0.0  T
   2    -32.3617278 -0.301530E-07  0.959E-03    3.95       2.2  T
   3    -32.3617277  0.965609E-07  0.219E-03    3.95       9.7  T
   4    -32.3617278 -0.114637E-06  0.227E-04    3.95      94.0  T
   5    -32.3617278 -0.290953E-09  0.130E-04    3.95     164.5  T
     SCC iter.                  ...        0 min,  0.002 sec
     gradient                   ...        0 min,  0.006 sec
 * total energy  :   -31.8664440 Eh     change       -0.1006110E-05 Eh
   gradient norm :     0.0003674 Eh/α   predicted    -0.4359697E-06 ( -56.67%)
   displ. norm   :     0.0421309 α      lambda       -0.9643396E-06
   maximum displ.:     0.0332398 α      in ANC's #2, #3, #5, ...
 * RMSD in coord.:     0.3518629 α      energy gain  -0.2231611E-02 Eh

generating ANC from exact Hessian ...
Using Lindh-Hessian (1995)
 Shifting diagonal of input Hessian by   8.390944121670140E-003
 Lowest  eigenvalues of input Hessian
    0.000000    0.000000    0.000000    0.000000    0.000000    0.000000
    0.010000    0.010398    0.010875    0.017574    0.019466    0.019568
    0.023759    0.025415    0.030122    0.032173    0.034950    0.040454
 Highest eigenvalues
    1.602330    1.871620    1.891459    1.998153    2.047316    2.316245
 

........................................................................
.............................. CYCLE   21 ..............................
........................................................................

 iter      E             dE          RMSdq      gap      omega  full diag
   1    -32.3617788 -0.323618E+02  0.198E-02    3.95       0.0  T
   2    -32.3617788 -0.399035E-07  0.116E-02    3.95       1.8  T
   3    -32.3617787  0.146739E-06  0.264E-03    3.95       8.1  T
   4    -32.3617788 -0.174548E-06  0.272E-04    3.95      78.5  T
   5    -32.3617788 -0.141874E-09  0.157E-04    3.95     135.9  T
     SCC iter.                  ...        0 min,  0.002 sec
     gradient                   ...        0 min,  0.006 sec
 * total energy  :   -31.8664451 Eh     change       -0.1146856E-05 Eh
   gradient norm :     0.0004330 Eh/α   predicted     0.0000000E+00 (-100.00%)
   displ. norm   :     0.0066944 α      lambda       -0.3074844E-06
   maximum displ.:     0.0033541 α      in ANC's #1, #2, #10, ...

........................................................................
.............................. CYCLE   22 ..............................
........................................................................

 iter      E             dE          RMSdq      gap      omega  full diag
   1    -32.3617759 -0.323618E+02  0.342E-03    3.95       0.0  T
   2    -32.3617759 -0.233554E-07  0.201E-03    3.95      10.6  T
   3    -32.3617759  0.399098E-09  0.762E-04    3.95      28.0  T
   4    -32.3617759 -0.245131E-08  0.148E-04    3.95     143.6  T
     SCC iter.                  ...        0 min,  0.002 sec
     gradient                   ...        0 min,  0.006 sec
 * total energy  :   -31.8664457 Eh     change       -0.5788989E-06 Eh
   gradient norm :     0.0001211 Eh/α   predicted    -0.2719937E-06 ( -53.02%)
   displ. norm   :     0.0140740 α      lambda       -0.5619572E-06
   maximum displ.:     0.0075352 α      in ANC's #2, #1, #5, ...

........................................................................
.............................. CYCLE   23 ..............................
........................................................................

 iter      E             dE          RMSdq      gap      omega  full diag
   1    -32.3617638 -0.323618E+02  0.527E-03    3.95       0.0  T
   2    -32.3617638 -0.124426E-07  0.308E-03    3.95       6.9  T
   3    -32.3617638  0.526656E-08  0.676E-04    3.95      31.5  T
   4    -32.3617638 -0.726593E-08  0.169E-04    3.95     126.3  T
     SCC iter.                  ...        0 min,  0.002 sec
     gradient                   ...        0 min,  0.006 sec
 * total energy  :   -31.8664463 Eh     change       -0.5707825E-06 Eh
   gradient norm :     0.0002442 Eh/α   predicted    -0.2811402E-06 ( -50.74%)
   displ. norm   :     0.0140740 α      lambda        0.0000000E+00
   maximum displ.:     0.0075352 α      in ANC's #2, #1, #5, ...

........................................................................
.............................. CYCLE   24 ..............................
........................................................................

 iter      E             dE          RMSdq      gap      omega  full diag
   1    -32.3617472 -0.323617E+02  0.528E-03    3.95       0.0  T
   2    -32.3617472 -0.124628E-07  0.308E-03    3.95       6.9  T
   3    -32.3617472  0.486100E-08  0.663E-04    3.95      32.2  T
   4    -32.3617472 -0.681872E-08  0.168E-04    3.95     127.2  T
     SCC iter.                  ...        0 min,  0.002 sec
     gradient                   ...        0 min,  0.006 sec
 * total energy  :   -31.8664463 Eh     change       -0.2131405E-07 Eh
   gradient norm :     0.0004782 Eh/α   predicted     0.1189405E-08 (-105.58%)
   displ. norm   :     0.0043564 α      lambda       -0.3635094E-06
   maximum displ.:     0.0022310 α      in ANC's #3, #2, #10, ...

........................................................................
.............................. CYCLE   25 ..............................
........................................................................

 iter      E             dE          RMSdq      gap      omega  full diag
   1    -32.3617673 -0.323618E+02  0.264E-03    3.95       0.0  T
   2    -32.3617673 -0.123513E-07  0.155E-03    3.95      13.8  T
   3    -32.3617673  0.272031E-09  0.579E-04    3.95      36.8  T
   4    -32.3617673 -0.125313E-08  0.970E-05    3.95     219.9  T
     SCC iter.                  ...        0 min,  0.002 sec
     gradient                   ...        0 min,  0.006 sec
 * total energy  :   -31.8664467 Eh     change       -0.4091483E-06 Eh
   gradient norm :     0.0002293 Eh/α   predicted    -0.1872948E-06 ( -54.22%)
   displ. norm   :     0.0120061 α      lambda       -0.4016613E-06
   maximum displ.:     0.0070911 α      in ANC's #3, #2, #5, ...

........................................................................
.............................. CYCLE   26 ..............................
........................................................................

 iter      E             dE          RMSdq      gap      omega  full diag
   1    -32.3617889 -0.323618E+02  0.480E-03    3.95       0.0  T
   2    -32.3617889 -0.195786E-07  0.283E-03    3.95       7.5  T
   3    -32.3617889  0.277520E-08  0.775E-04    3.95      27.5  T
   4    -32.3617889 -0.450412E-08  0.143E-04    3.95     149.3  T
     SCC iter.                  ...        0 min,  0.002 sec
     gradient                   ...        0 min,  0.006 sec
 * total energy  :   -31.8664471 Eh     change       -0.4168524E-06 Eh
   gradient norm :     0.0001179 Eh/α   predicted    -0.2039794E-06 ( -51.07%)
   displ. norm   :     0.0120061 α      lambda        0.0000000E+00
   maximum displ.:     0.0070911 α      in ANC's #3, #2, #5, ...

........................................................................
.............................. CYCLE   27 ..............................
........................................................................

 iter      E             dE          RMSdq      gap      omega  full diag
   1    -32.3618070 -0.323618E+02  0.480E-03    3.95       0.0  T
   2    -32.3618070 -0.194481E-07  0.283E-03    3.95       7.5  T
   3    -32.3618070  0.274155E-08  0.772E-04    3.95      27.6  T
   4    -32.3618070 -0.445890E-08  0.142E-04    3.95     150.3  T
     SCC iter.                  ...        0 min,  0.002 sec
     gradient                   ...        0 min,  0.006 sec
 * total energy  :   -31.8664471 Eh     change       -0.2831738E-07 Eh
   gradient norm :     0.0003796 Eh/α   predicted    -0.1823895E-08 ( -93.56%)
   displ. norm   :     0.0064249 α      lambda       -0.2137135E-06
   maximum displ.:     0.0033687 α      in ANC's #2, #3, #6, ...

........................................................................
.............................. CYCLE   28 ..............................
........................................................................

 iter      E             dE          RMSdq      gap      omega  full diag
   1    -32.3617887 -0.323618E+02  0.285E-03    3.95       0.0  T
   2    -32.3617888 -0.967052E-08  0.167E-03    3.95      12.7  T
   3    -32.3617888  0.636071E-09  0.508E-04    3.95      41.9  T
   4    -32.3617888 -0.148719E-08  0.869E-05    3.95     245.3  T
     SCC iter.                  ...        0 min,  0.002 sec
     gradient                   ...        0 min,  0.006 sec
 * total energy  :   -31.8664474 Eh     change       -0.2366099E-06 Eh
   gradient norm :     0.0001924 Eh/α   predicted    -0.1075030E-06 ( -54.57%)
   displ. norm   :     0.0102748 α      lambda       -0.1550547E-06
   maximum displ.:     0.0060879 α      in ANC's #3, #2, #6, ...

........................................................................
.............................. CYCLE   29 ..............................
........................................................................

 iter      E             dE          RMSdq      gap      omega  full diag
   1    -32.3617865 -0.323618E+02  0.427E-03    3.95       0.0  T
   2    -32.3617865 -0.940508E-08  0.251E-03    3.96       8.5  T
   3    -32.3617865  0.328019E-08  0.569E-04    3.96      37.5  T
   4    -32.3617865 -0.434931E-08  0.127E-04    3.96     167.3  T
     SCC iter.                  ...        0 min,  0.002 sec
     gradient                   ...        0 min,  0.006 sec
 * total energy  :   -31.8664475 Eh     change       -0.1579647E-06 Eh
   gradient norm :     0.0000508 Eh/α   predicted    -0.8162793E-07 ( -48.33%)
   displ. norm   :     0.0085754 α      lambda       -0.6472840E-07
   maximum displ.:     0.0057374 α      in ANC's #3, #2, #6, ...

........................................................................
.............................. CYCLE   30 ..............................
........................................................................

 iter      E             dE          RMSdq      gap      omega  full diag
   1    -32.3617831 -0.323618E+02  0.360E-03    3.96       0.0  T
   2    -32.3617831 -0.126497E-08  0.212E-03    3.96      10.0  T
   3    -32.3617831  0.345823E-08  0.410E-04    3.96      51.9  T
   4    -32.3617831 -0.414936E-08  0.560E-05    3.96     380.9  T
     SCC iter.                  ...        0 min,  0.002 sec
     gradient                   ...        0 min,  0.006 sec
 * total energy  :   -31.8664476 Eh     change       -0.8084992E-07 Eh
   gradient norm :     0.0000830 Eh/α   predicted    -0.3426356E-07 ( -57.62%)
   displ. norm   :     0.0077465 α      lambda       -0.6430410E-07
   maximum displ.:     0.0052749 α      in ANC's #3, #2, #6, ...

   *** GEOMETRY OPTIMIZATION CONVERGED AFTER 30 ITERATIONS ***

------------------------------------------------------------------------
 total energy gain   :        -0.0022353 Eh       -1.4026 kcal/mol
 total RMSD          :         0.3585917 a0        0.1898 Å
 total power (kW/mol):        -0.1956223 (step)  -16.2748 (real)
------------------------------------------------------------------------

 ANCopt (total)                0 d,  0 h,  0 min,  0.361 sec
 optimizer setup                ...        0 min,  0.000 sec (  0.112%)
 model hessian                  ...        0 min,  0.009 sec (  2.616%)
 ANC generation                 ...        0 min,  0.001 sec (  0.235%)
 coordinate transformation      ...        0 min,  0.000 sec (  0.056%)
 single point calculation       ...        0 min,  0.343 sec ( 95.116%)
 optimization log               ...        0 min,  0.004 sec (  1.161%)
 hessian update                 ...        0 min,  0.000 sec (  0.053%)
 rational function              ...        0 min,  0.001 sec (  0.365%)

================
 final structure:
================
$coord
        6.34925063842637        0.22836448173720        0.00992088338508      C
        3.67796999989166        0.68535752297810        0.32845465196137      N
        3.03417166004219        3.01960425293516        1.56903290776657      C
        1.99986250954042       -1.09248156627425       -0.43064239303728      C
        2.65855948794344       -3.11414324884472       -1.31205675599746      O
       -0.74269282313574       -0.44279921229509       -0.16805117604532      C
       -2.26446926067701       -1.88259535129664        1.41446827941380      C
       -4.82855940371509       -1.39435908910319        1.57084971569346      C
       -5.89341266940343        0.50740472665819        0.12257607681719      C
       -4.39054804479834        1.91934972324531       -1.48951005257871      C
       -1.82248374363017        1.45126856070045       -1.63573549170619      C
        6.57652981862672       -1.57735759241081       -0.94751799476389      H
        7.29749172928480        0.15689153652758        1.84309151993678      H
        7.19821830771095        1.72795809668869       -1.12672627576766      H
        4.12028870924491        3.19392209525503        3.31841565087757      H
        1.03201167124880        3.06879813664557        2.02581395761442      H
        3.48964192764715        4.63603709164798        0.36170868577165      H
       -1.42403073927725       -3.38092033433956        2.51566773419274      H
       -6.00029362981594       -2.50869315318355        2.81611054617958      H
       -7.89661852758760        0.88076909120326        0.23844176245478      H
       -5.22153488632458        3.38809040709874       -2.63802135717505      H
       -0.65067921118794        2.54129814651389       -2.90409044251548      H
$end
 
 Bond Distances (Angstroems)
 ---------------------------
C1-N2=1.4440         C1-H12=1.0882        C1-H13=1.0928        C1-H14=1.0924        N2-C1=1.4440         N2-C3=1.4397         
N2-C4=1.3546         C3-N2=1.4397         C3-H15=1.0935        C3-H16=1.0870        C3-H17=1.0945        C4-N2=1.3546         
C4-O5=1.2180         C4-C6=1.4979         O5-C4=1.2180         C6-C4=1.4979         C6-C7=1.3893         C6-C11=1.3908        
C7-C6=1.3893         C7-C8=1.3837         C7-H18=1.0798        C8-C7=1.3837         C8-C9=1.3848         C8-H19=1.0800        
C9-C8=1.3848         C9-C10=1.3851        C9-H20=1.0800        C10-C9=1.3851        C10-C11=1.3835       C10-H21=1.0802       
C11-C6=1.3908        C11-C10=1.3835       C11-H22=1.0806       H12-C1=1.0882        H13-C1=1.0928        H14-C1=1.0924        
H15-C3=1.0935        H16-C3=1.0870        H17-C3=1.0945        H18-C7=1.0798        H19-C8=1.0800        H20-C9=1.0800        
H21-C10=1.0802       H22-C11=1.0806       
 C  H  Rav=1.0863 sigma=0.0060  Rmin=1.0798  Rmax=1.0945    11
 C  C  Rav=1.4022 sigma=0.0392  Rmin=1.3835  Rmax=1.4979     7
 N  C  Rav=1.4128 sigma=0.0412  Rmin=1.3546  Rmax=1.4440     3
 O  C  Rav=1.2180 sigma=0.0000  Rmin=1.2180  Rmax=1.2180     1
 
 selected bond angles (degree)
 --------------------
H12-C1-N2=108.03               H13-C1-N2=110.59               H13-C1-H12=109.40              H14-C1-N2=110.19               
H14-C1-H12=109.64              H14-C1-H13=108.97              C3-N2-C1=115.38                C4-N2-C1=119.39                
C4-N2-C3=125.17                H15-C3-N2=109.51               H16-C3-N2=110.64               H16-C3-H15=108.78              
H17-C3-N2=110.62               H17-C3-H15=108.21              H17-C3-H16=109.01              O5-C4-N2=122.41                
C6-C4-N2=116.63                C6-C4-O5=120.96                C7-C6-C4=119.45                C11-C6-C4=120.77               
C11-C6-C7=119.58               C8-C7-C6=120.13                H18-C7-C6=119.29               H18-C7-C8=120.58               
C9-C8-C7=120.11                H19-C8-C7=119.84               H19-C8-C9=120.06               C10-C9-C8=119.95               
H20-C9-C8=120.06               H20-C9-C10=119.99              C11-C10-C9=120.12              H21-C10-C9=120.06              
H21-C10-C11=119.82             
 
 selected dihedral angles (degree)
 ---------------------------------
C3-N2-C1-H12=180.15           C3-N2-C1-H13= 60.45           C3-N2-C1-H14=299.91           C4-N2-C1-H12=  2.91           
C4-N2-C1-H13=243.21           C4-N2-C1-H14=122.67           H15-C3-N2-C1=309.76           H15-C3-N2-C4=126.82           
H16-C3-N2-C1=189.86           H16-C3-N2-C4=  6.91           H17-C3-N2-C1= 68.95           H17-C3-N2-C4=246.00           
O5-C4-N2-C1=  2.24            O5-C4-N2-C3=185.29            C6-C4-N2-C1=183.04            C6-C4-N2-C3=  6.10            
C7-C6-C4-N2=242.31            C7-C6-C4-O5= 63.10            C11-C6-C4-N2= 67.42           C11-C6-C4-O5=248.21           
C8-C7-C6-C4=183.56            C8-C7-C6-C11=358.52           H18-C7-C6-C4=  3.56           H18-C7-C6-C11=178.51          
C9-C8-C7-C6=  0.94            C9-C8-C7-H18=180.95           H19-C8-C7-C6=180.53           H19-C8-C7-H18=  0.53          
C10-C9-C8-C7=  0.15           C10-C9-C8-H19=180.56          H20-C9-C8-C7=179.68           H20-C9-C8-H19=  0.09          
C11-C10-C9-C8=359.31          C11-C10-C9-H20=179.78         H21-C10-C9-C8=179.24          H21-C10-C9-H20=359.71         
           -------------------------------------------------
          |                Final Singlepoint                |
           -------------------------------------------------

          ...................................................
          :                      SETUP                      :
          :.................................................:
          :  # basis functions                  55          :
          :  # atomic orbitals                  55          :
          :  # shells                           33          :
          :  # electrons                        58          :
          :  max. iterations                   250          :
          :  Hamiltonian                  GFN2-xTB          :
          :  restarted?                      false          :
          :  GBSA solvation                  false          :
          :  PC potential                    false          :
          :  electronic temp.          300.0000000     K    :
          :  accuracy                    1.0000000          :
          :  -> integral cutoff          0.2500000E+02      :
          :  -> integral neglect         0.1000000E-07      :
          :  -> SCF convergence          0.1000000E-05 Eh   :
          :  -> wf. convergence          0.1000000E-03 e    :
          :  Broyden damping             0.4000000          :
          :  net charge                          0          :
          :  unpaired electrons                  0          :
          ...................................................

 iter      E             dE          RMSdq      gap      omega  full diag
   1    -32.3617831 -0.323618E+02  0.316E-05    3.96       0.0  T
   2    -32.3617831 -0.175504E-11  0.198E-05    3.96    1076.3  T
   3    -32.3617831  0.213163E-12  0.114E-05    3.96    1863.0  T

   *** convergence criteria satisfied after 3 iterations ***

         #    Occupation            Energy/Eh            Energy/eV
      -------------------------------------------------------------
         1        2.0000           -0.6896751             -18.7670
       ...           ...                  ...                  ...
        23        2.0000           -0.4693679             -12.7722
        24        2.0000           -0.4411264             -12.0037
        25        2.0000           -0.4284413             -11.6585
        26        2.0000           -0.4110616             -11.1856
        27        2.0000           -0.4092559             -11.1364
        28        2.0000           -0.3882965             -10.5661
        29        2.0000           -0.3833323             -10.4310 (HOMO)
        30                         -0.2379556              -6.4751 (LUMO)
        31                         -0.2293965              -6.2422
        32                         -0.1940156              -5.2794
        33                         -0.0988533              -2.6899
        34                          0.0039676               0.1080
       ...                                ...                  ...
        55                          0.6626880              18.0327
      -------------------------------------------------------------
                  HL-Gap            0.1453768 Eh            3.9559 eV
             Fermi-level           -0.3106440 Eh           -8.4531 eV

 SCC (total)                   0 d,  0 h,  0 min,  0.010 sec
 SCC setup                      ...        0 min,  0.000 sec (  1.580%)
 Dispersion                     ...        0 min,  0.000 sec (  0.716%)
 classical contributions        ...        0 min,  0.000 sec (  0.292%)
 integral evaluation            ...        0 min,  0.002 sec ( 22.245%)
 iterations                     ...        0 min,  0.002 sec ( 15.869%)
 molecular gradient             ...        0 min,  0.006 sec ( 58.219%)
 printout                       ...        0 min,  0.000 sec (  0.881%)

         :::::::::::::::::::::::::::::::::::::::::::::::::::::
         ::                     SUMMARY                     ::
         :::::::::::::::::::::::::::::::::::::::::::::::::::::
         :: total energy             -31.866447607361 Eh    ::
         :: gradient norm              0.000083631257 Eh/a0 ::
         :: HOMO-LUMO gap              3.955903313923 eV    ::
         ::.................................................::
         :: SCC energy               -32.361714033957 Eh    ::
         :: -> isotropic ES            0.038607776216 Eh    ::
         :: -> anisotropic ES          0.003261211670 Eh    ::
         :: -> anisotropic XC          0.016097952763 Eh    ::
         :: -> dispersion             -0.018827622940 Eh    ::
         :: repulsion energy           0.495266426596 Eh    ::
         :: add. restraining           0.000000000000 Eh    ::
         :: total charge              -0.000000000000 e     ::
         :::::::::::::::::::::::::::::::::::::::::::::::::::::

           ------------------------------------------------- 
          |                Numerical Hessian                |
           ------------------------------------------------- 
step length          :   0.00500
SCC accuracy         :   0.30000
Hessian scale factor :   1.00000
frozen atoms in %    :   0.00000    0
RMS gradient         :   0.00008
estimated CPU  time      0.02 min
estimated wall time      0.02 min

writing file <hessian>.

 projected vibrational frequencies (cm⁻¹)
eigval :       -0.00    -0.00    -0.00    -0.00     0.00     0.00
eigval :       31.63    79.84    91.47   120.95   155.06   196.22
eigval :      238.56   269.86   327.62   349.18   364.78   406.17
eigval :      542.24   585.40   614.87   662.53   684.04   730.56
eigval :      773.08   879.16   903.20   927.06   928.37   932.95
eigval :      989.57  1045.00  1080.05  1092.83  1094.27  1117.65
eigval :     1127.06  1181.99  1192.49  1224.06  1265.74  1278.44
eigval :     1314.36  1391.22  1395.95  1423.66  1429.09  1461.87
eigval :     1469.50  1471.03  1479.86  1499.60  1584.13  1597.06
eigval :     1705.20  2938.15  2956.56  2966.08  2976.83  3038.44
eigval :     3047.81  3073.01  3077.35  3083.46  3090.24  3095.65
           -------------------------------------------------
          |                Property Printout                |
           -------------------------------------------------

    * Orbital Energies and Occupations

         #    Occupation            Energy/Eh            Energy/eV
      -------------------------------------------------------------
         1        2.0000           -0.6896752             -18.7670
       ...           ...                  ...                  ...
        17        2.0000           -0.4921961             -13.3933
        18        2.0000           -0.4891834             -13.3114
        19        2.0000           -0.4864030             -13.2357
        20        2.0000           -0.4837875             -13.1645
        21        2.0000           -0.4830535             -13.1446
        22        2.0000           -0.4798136             -13.0564
        23        2.0000           -0.4693679             -12.7722
        24        2.0000           -0.4411263             -12.0037
        25        2.0000           -0.4284414             -11.6585
        26        2.0000           -0.4110616             -11.1856
        27        2.0000           -0.4092559             -11.1364
        28        2.0000           -0.3882965             -10.5661
        29        2.0000           -0.3833324             -10.4310 (HOMO)
        30                         -0.2379556              -6.4751 (LUMO)
        31                         -0.2293965              -6.2422
        32                         -0.1940157              -5.2794
        33                         -0.0988533              -2.6899
        34                          0.0039676               0.1080
        35                          0.0777131               2.1147
        36                          0.1151192               3.1326
        37                          0.1199039               3.2628
        38                          0.1359321               3.6989
        39                          0.1511918               4.1141
        40                          0.1649340               4.4881
       ...                                ...                  ...
        55                          0.6626880              18.0327
      -------------------------------------------------------------
                  HL-Gap            0.1453768 Eh            3.9559 eV
             Fermi-level           -0.3106440 Eh           -8.4531 eV

     #   Z          covCN         q      C6AA      α(0)
     1   6 C        3.704    -0.048    21.589     6.643
     2   7 N        2.732    -0.091    23.011     7.125
     3   6 C        3.696    -0.048    21.608     6.649
     4   6 C        2.769     0.263    22.565     7.780
     5   8 O        0.859    -0.443    22.555     6.367
     6   6 C        2.974    -0.013    28.338     8.732
     7   6 C        2.924    -0.023    28.582     8.767
     8   6 C        2.919    -0.027    28.686     8.783
     9   6 C        2.920    -0.029    28.713     8.787
    10   6 C        2.919    -0.029    28.718     8.788
    11   6 C        2.922    -0.030    28.748     8.793
    12   1 H        0.925     0.087     1.905     2.158
    13   1 H        0.924     0.045     2.383     2.414
    14   1 H        0.924     0.046     2.370     2.408
    15   1 H        0.924     0.052     2.294     2.368
    16   1 H        0.925     0.058     2.218     2.329
    17   1 H        0.924     0.049     2.333     2.389
    18   1 H        0.926     0.042     2.426     2.436
    19   1 H        0.926     0.036     2.498     2.472
    20   1 H        0.926     0.034     2.526     2.485
    21   1 H        0.926     0.034     2.524     2.485
    22   1 H        0.926     0.033     2.548     2.496

 Mol. C6AA /au·bohr⁶  :       5252.666811
 Mol. C8AA /au·bohr⁸  :     122674.761201
 Mol. α(0) /au        :        113.653958


Wiberg/Mayer (AO) data.
largest (>0.10) Wiberg bond orders for each atom

 ---------------------------------------------------------------------------
     #   Z sym  total        # sym  WBO       # sym  WBO       # sym  WBO
 ---------------------------------------------------------------------------
     1   6 C    3.966 --     2 N    0.998    14 H    0.977    13 H    0.976
                            12 H    0.973
     2   7 N    3.496 --     4 C    1.241     3 C    1.007     1 C    0.998
                             5 O    0.200
     3   6 C    3.974 --     2 N    1.007    15 H    0.976    16 H    0.975
                            17 H    0.975
     4   6 C    3.952 --     5 O    1.662     2 N    1.241     6 C    0.963
     5   8 O    2.003 --     4 C    1.662     2 N    0.200
     6   6 C    3.988 --     7 C    1.408    11 C    1.400     4 C    0.963
                             9 C    0.110
     7   6 C    3.991 --     8 C    1.443     6 C    1.408    18 H    0.970
                            10 C    0.111
     8   6 C    3.992 --     7 C    1.443     9 C    1.440    19 H    0.970
                            11 C    0.111
     9   6 C    3.992 --     8 C    1.440    10 C    1.437    20 H    0.971
                             6 C    0.110
    10   6 C    3.992 --    11 C    1.446     9 C    1.437    21 H    0.970
                             7 C    0.111
    11   6 C    3.992 --    10 C    1.446     6 C    1.400    22 H    0.970
                             8 C    0.111
    12   1 H    0.992 --     1 C    0.973
    13   1 H    0.998 --     1 C    0.976
    14   1 H    0.997 --     1 C    0.977
    15   1 H    0.997 --     3 C    0.976
    16   1 H    0.997 --     3 C    0.975
    17   1 H    0.998 --     3 C    0.975
    18   1 H    0.998 --     7 C    0.970
    19   1 H    0.998 --     8 C    0.970
    20   1 H    0.998 --     9 C    0.971
    21   1 H    0.998 --    10 C    0.970
    22   1 H    0.999 --    11 C    0.970
 ---------------------------------------------------------------------------

Topologies differ in total number of bonds
Writing topology from bond orders to xtbtopo.mol

molecular dipole:
                 x           y           z       tot (Debye)
 q only:        0.039       1.367       0.664
   full:       -0.017       1.553       0.733       4.365
molecular quadrupole (traceless):
                xx          xy          yy          xz          yz          zz
 q only:        6.432       5.549      -4.737       1.940      -2.644      -1.695
  q+dip:        7.765       6.635      -6.057       2.172      -6.641      -1.708
   full:        6.551       6.822      -5.800       2.514      -4.743      -0.752

           -------------------------------------------------
          |                Geometry Summary                 |
           -------------------------------------------------

      molecular mass/u    :      149.1900795
   center of mass at/Å    :       -0.0005610      -0.0007514       0.0025548
  moments of inertia/u·Å² :        0.2059785E+03   0.7045407E+03   0.7846636E+03
rotational constants/cm⁻¹ :        0.8184170E-01   0.2392712E-01   0.2148390E-01

 * 21 selected distances

     #   Z          #   Z                                           value/Å
     1   6 C        2   7 N                                       1.4439895 (max)
     2   7 N        3   6 C                                       1.4397335
     2   7 N        4   6 C                                       1.3546302
     4   6 C        5   8 O                                       1.2180149
     6   6 C        7   6 C                                       1.3893482
     7   6 C        8   6 C                                       1.3837139
     8   6 C        9   6 C                                       1.3847988
     9   6 C       10   6 C                                       1.3850918
     6   6 C       11   6 C                                       1.3907941
    10   6 C       11   6 C                                       1.3835163
     1   6 C       12   1 H                                       1.0882254
     1   6 C       13   1 H                                       1.0928227
     1   6 C       14   1 H                                       1.0924010
     3   6 C       15   1 H                                       1.0935390
     3   6 C       16   1 H                                       1.0870328
     3   6 C       17   1 H                                       1.0945069
     7   6 C       18   1 H                                       1.0798270 (min)
     8   6 C       19   1 H                                       1.0800113
     9   6 C       20   1 H                                       1.0800480
    10   6 C       21   1 H                                       1.0801980
    11   6 C       22   1 H                                       1.0806124

 * 4 distinct bonds (by element types)

   Z      Z             #   av. dist./Å        max./Å        min./Å
   1 H    6 C          11     1.0862931     1.0945069     1.0798270
   6 C    6 C           6     1.3862105     1.3907941     1.3835163
   6 C    7 N           3     1.4127844     1.4439895     1.3546302
   6 C    8 O           1     1.2180149     1.2180149     1.2180149

           -------------------------------------------------
          |               Frequency Printout                |
           -------------------------------------------------
 projected vibrational frequencies (cm⁻¹)
eigval :       -0.00    -0.00    -0.00    -0.00     0.00     0.00
eigval :       31.63    79.84    91.47   120.95   155.06   196.22
eigval :      238.56   269.86   327.62   349.18   364.78   406.17
eigval :      542.24   585.40   614.87   662.53   684.04   730.56
eigval :      773.08   879.16   903.20   927.06   928.37   932.95
eigval :      989.57  1045.00  1080.05  1092.83  1094.27  1117.65
eigval :     1127.06  1181.99  1192.49  1224.06  1265.74  1278.44
eigval :     1314.36  1391.22  1395.95  1423.66  1429.09  1461.87
eigval :     1469.50  1471.03  1479.86  1499.60  1584.13  1597.06
eigval :     1705.20  2938.15  2956.56  2966.08  2976.83  3038.44
eigval :     3047.81  3073.01  3077.35  3083.46  3090.24  3095.65
 reduced masses (amu)
   1: 11.53   2: 10.63   3: 11.45   4: 11.96   5: 11.89   6: 10.77   7: 10.94   8:  8.85
   9:  9.82  10:  5.53  11:  1.91  12:  9.22  13:  9.98  14:  9.97  15: 10.42  16: 12.13
  17:  8.91  18:  8.93  19: 10.45  20: 11.20  21: 11.85  22: 11.19  23:  9.43  24:  9.61
  25:  7.43  26:  3.31  27:  3.78  28: 10.41  29:  4.20  30:  3.15  31: 10.41  32:  3.88
  33:  7.72  34:  5.11  35:  3.71  36:  4.15  37:  4.17  38:  1.34  39:  2.18  40:  9.01
  41: 12.25  42:  3.71  43: 11.98  44:  3.56  45:  7.44  46:  5.52  47:  8.39  48:  1.57
  49:  8.72  50:  1.60  51:  1.78  52:  2.84  53: 11.51  54: 11.47  55: 13.34  56:  1.90
  57:  1.94  58:  1.51  59:  1.44  60:  1.73  61:  1.69  62:  1.76  63:  1.78  64:  1.84
  65:  1.88  66:  1.91
 IR intensities (km·mol⁻¹)
   1:  0.90   2:  1.56   3:  0.54   4:  0.05   5:  0.25   6:  1.93   7:  2.71   8:  0.13
   9:  2.05  10:  0.75  11:  0.24  12:  0.83  13:  5.61  14:  3.39  15:  0.26  16: 14.41
  17:  0.64  18:  1.68  19:  3.51  20:  0.49  21: 10.52  22:  6.81  23: 24.48  24:  5.69
  25: 14.39  26:  0.34  27:  0.82  28: 11.82  29:  0.40  30:  0.14  31:  1.46  32:  2.89
  33: 11.88  34: 78.23  35: 26.10  36:  0.46  37:  2.46  38:  0.04  39:  7.61  40: 42.31
  41: 39.98  42:  0.82  43:  0.23  44: 16.17  45: 69.64  46: 55.72  47:  7.79  48:  3.46
  49: 15.38  50: 14.54  51:  6.19  52: 29.94  53:  0.05  54:  1.34  55:529.25  56: 31.08
  57: 35.56  58: 27.34  59: 71.64  60:  2.51  61: 16.55  62:  3.32  63:  2.92  64: 46.14
  65: 69.73  66: 29.32
 Raman intensities (Ä⁴*amu⁻¹)
   1:  0.00   2:  0.00   3:  0.00   4:  0.00   5:  0.00   6:  0.00   7:  0.00   8:  0.00
   9:  0.00  10:  0.00  11:  0.00  12:  0.00  13:  0.00  14:  0.00  15:  0.00  16:  0.00
  17:  0.00  18:  0.00  19:  0.00  20:  0.00  21:  0.00  22:  0.00  23:  0.00  24:  0.00
  25:  0.00  26:  0.00  27:  0.00  28:  0.00  29:  0.00  30:  0.00  31:  0.00  32:  0.00
  33:  0.00  34:  0.00  35:  0.00  36:  0.00  37:  0.00  38:  0.00  39:  0.00  40:  0.00
  41:  0.00  42:  0.00  43:  0.00  44:  0.00  45:  0.00  46:  0.00  47:  0.00  48:  0.00
  49:  0.00  50:  0.00  51:  0.00  52:  0.00  53:  0.00  54:  0.00  55:  0.00  56:  0.00
  57:  0.00  58:  0.00  59:  0.00  60:  0.00  61:  0.00  62:  0.00  63:  0.00  64:  0.00
  65:  0.00  66:  0.00
 output can be read by thermo (or use thermo option).
 writing <g98.out> molden fake output.
 recommended (thermochemical) frequency scaling factor: 1.0
           -------------------------------------------------
          |             Thermodynamic Functions             |
           -------------------------------------------------

Molecule has no symmetry elements
It seems to be the C1 point group
c1  symmetry found (for desy threshold:  0.10E+00) used in thermo

          ...................................................
          :                      SETUP                      :
          :.................................................:
          :  # frequencies                          60      :
          :  # imaginary freq.                       0      :
          :  linear?                             false      :
          :  only rotor calc.                    false      :
          :  symmetry                               c1      :
          :  rotational number                       1      :
          :  scaling factor                  1.0000000      :
          :  rotor cutoff                    0.0000000 cm⁻¹ :
          :  imag. cutoff                 -100.0000000 cm⁻¹ :
          :.................................................:

    mode    ω/cm⁻¹     T·S(HO)/kcal·mol⁻¹    T·S(FR)/kcal·mol⁻¹   T·S(vib)
   ------------------------------------------------------------------------
       1     31.63    -1.70679 (100.00%)    -1.19195 (  0.00%)    -1.70679
       2     79.84    -1.16124 (100.00%)    -0.91780 (  0.00%)    -1.16124
       3     91.47    -1.08182 (100.00%)    -0.87754 (  0.00%)    -1.08182
       4    120.95    -0.91981 (100.00%)    -0.79478 (  0.00%)    -0.91981
       5    155.06    -0.77795 (100.00%)    -0.72122 (  0.00%)    -0.77795
       6    196.22    -0.64646 (100.00%)    -0.65148 (  0.00%)    -0.64646
       7    238.56    -0.54073 (100.00%)    -0.59361 (  0.00%)    -0.54073
       8    269.86    -0.47618 (100.00%)    -0.55709 (  0.00%)    -0.47618
   ------------------------------------------------------------------------

   temp. (K)  partition function   enthalpy   heat capacity  entropy
                                   cal/mol     cal/K/mol   cal/K/mol   J/K/mol
 298.15  VIB  0.297E+04             5149.321     34.300     33.162
         ROT  0.815E+06              888.752      2.981     30.030
         INT  0.242E+10             6038.074     37.281     63.192
         TR   0.176E+28             1481.254      4.968     40.892
         TOT                        7519.3277    42.2495   104.0836   435.4859

       T/K    H(0)-H(T)+PV         H(T)/Eh          T*S/Eh         G(T)/Eh
   ------------------------------------------------------------------------
    298.15    0.119828E-01    0.189794E+00    0.494535E-01    0.140341E+00
   ------------------------------------------------------------------------

         :::::::::::::::::::::::::::::::::::::::::::::::::::::
         ::                  THERMODYNAMIC                  ::
         :::::::::::::::::::::::::::::::::::::::::::::::::::::
         :: total free energy         -31.726107091696 Eh   ::
         ::.................................................::
         :: total energy              -31.866447607361 Eh   ::
         :: zero point energy           0.177811190760 Eh   ::
         :: G(RRHO) w/o ZPVE           -0.037470675095 Eh   ::
         :: G(RRHO) contrib.            0.140340515665 Eh   ::
         :::::::::::::::::::::::::::::::::::::::::::::::::::::

optimized geometry written to: xtbopt.coord


           -------------------------------------------------
          | TOTAL ENERGY              -31.866447607361 Eh   |
          | TOTAL ENTHALPY            -31.676653605206 Eh   |
          | TOTAL FREE ENERGY         -31.726107091696 Eh   |
          | GRADIENT NORM               0.000083615511 Eh/α |
          | HOMO-LUMO GAP               3.955904104473 eV   |
           -------------------------------------------------

------------------------------------------------------------------------
 * finished run on 2025/04/15 at 20:17:12.831     
------------------------------------------------------------------------
 total:
 * wall-time:     0 d,  0 h,  0 min,  1.874 sec
 *  cpu-time:     0 d,  0 h,  0 min,  1.823 sec
 * ratio c/w:     0.972 speedup
 SCF:
 * wall-time:     0 d,  0 h,  0 min,  0.058 sec
 *  cpu-time:     0 d,  0 h,  0 min,  0.023 sec
 * ratio c/w:     0.392 speedup
 ANC optimizer:
 * wall-time:     0 d,  0 h,  0 min,  0.373 sec
 *  cpu-time:     0 d,  0 h,  0 min,  0.370 sec
 * ratio c/w:     0.992 speedup
 analytical hessian:
 * wall-time:     0 d,  0 h,  0 min,  1.415 sec
 *  cpu-time:     0 d,  0 h,  0 min,  1.414 sec
 * ratio c/w:     0.999 speedup

