
                                 *****************
                                 * O   R   C   A *
                                 *****************

                                            #,                                       
                                            ###                                      
                                            ####                                     
                                            #####                                    
                                            ######                                   
                                           ########,                                 
                                     ,,################,,,,,                         
                               ,,#################################,,                 
                          ,,##########################################,,             
                       ,#########################################, ''#####,          
                    ,#############################################,,   '####,        
                  ,##################################################,,,,####,       
                ,###########''''           ''''###############################       
              ,#####''   ,,,,##########,,,,          '''####'''          '####       
            ,##' ,,,,###########################,,,                        '##       
           ' ,,###''''                  '''############,,,                           
         ,,##''                                '''############,,,,        ,,,,,,###''
      ,#''                                            '''#######################'''  
     '                                                          ''''####''''         
             ,#######,   #######,   ,#######,      ##                                
            ,#'     '#,  ##    ##  ,#'     '#,    #''#        ,####,   ,####,        
            ##       ##  ##   ,#'  ##            #'  '#       #'       #'  '#        
            ##       ##  #######   ##           ,######,      #####,   #    #        
            '#,     ,#'  ##    ##  '#,     ,#' ,#      #,     #,   #   #,  ,#        
             '#######'   ##     ##  '#######'  #'      '#     '####' # '####'        



                #########################################################
                #                        -***-                          #
                #          Department of theory and spectroscopy        #
                #                                                       #
                #                      Frank Neese                      #
                #                                                       #
                #     Directorship, Architecture, Infrastructure        #
                #                    SHARK, DRIVERS                     #
                #        Core code/Algorithms in most modules           #
                #                                                       #
                #        Max Planck Institute fuer Kohlenforschung      #
                #                Kaiser Wilhelm Platz 1                 #
                #                 D-45470 Muelheim/Ruhr                 #
                #                      Germany                          #
                #                                                       #
                #                  All rights reserved                  #
                #                        -***-                          #
                #########################################################


                         Program Version 6.0.0  -   RELEASE  -


 With contributions from (in alphabetic order):
   Daniel Aravena         : Magnetic Suceptibility
   Michael Atanasov       : Ab Initio Ligand Field Theory (pilot matlab implementation)
   Alexander A. Auer      : GIAO ZORA, VPT2 properties, NMR spectrum
   Ute Becker             : All parallelization in ORCA, NUMFREQ, NUMCALC
   Giovanni Bistoni       : ED, misc. LED, open-shell LED, HFLD
   Martin Brehm           : Molecular dynamics
   Dmytro Bykov           : pre 5.0 version of the SCF Hessian
   Marcos Casanova-Páez   : Triplet and SCS-CIS(D). UHF-(DLPNO)-IP/EA/STEOM-CCSD. UHF-CVS-IP/STEOM-CCSD
   Vijay G. Chilkuri      : MRCI spin determinant printing, contributions to CSF-ICE
   Pauline Colinet        : FMM embedding
   Dipayan Datta          : RHF DLPNO-CCSD density
   Achintya Kumar Dutta   : EOM-CC, STEOM-CC
   Nicolas Foglia         : Exact transition moments, OPA infrastructure, MCD improvements
   Dmitry Ganyushin       : Spin-Orbit,Spin-Spin,Magnetic field MRCI
   Miquel Garcia          : C-PCM and meta-GGA Hessian, CCSD/C-PCM, Gaussian charge scheme
   Tiago L. C. Gouveia    : GS-ROHF, GS-ROCIS
   Yang Guo               : DLPNO-NEVPT2, F12-NEVPT2, CIM, IAO-localization
   Andreas Hansen         : Spin unrestricted coupled pair/coupled cluster methods
   Ingolf Harden          : AUTO-CI MPn and infrastructure 
   Benjamin Helmich-Paris : MC-RPA, TRAH-(SCF,CASSCF), AVAS, COSX integrals, SCF dyn. polar.
   Lee Huntington         : MR-EOM, pCC
   Robert Izsak           : Overlap fitted RIJCOSX, COSX-SCS-MP3, EOM
   Riya Kayal             : Wick's Theorem for AUTO-CI, AUTO-CI UHF-CCSDT
   Emily Kempfer          : AUTO-CI, RHF CISDT and CCSDT
   Christian Kollmar      : KDIIS, OOCD, Brueckner-CCSD(T), CCSD density, CASPT2, CASPT2-K, improved NEVPT2
   Axel Koslowski         : Symmetry handling
   Simone Kossmann        : Meta GGA functionals, TD-DFT gradient, OOMP2, (MP2 Hessian; deprecated post 5.0)
   Lucas Lang             : DCDCAS
   Marvin Lechner         : AUTO-CI (C++ implementation), FIC-MRCC
   Spencer Leger          : CASSCF response
   Dagmar Lenk            : GEPOL surface, SMD, ORCA-2-JSON
   Dimitrios Liakos       : Extrapolation schemes; Compound Job, initial MDCI parallelization
   Dimitrios Manganas     : Further ROCIS development; embedding schemes. LFT, Crystal Embedding
   Dimitrios Pantazis     : SARC Basis sets
   Anastasios Papadopoulos: AUTO-CI, single reference methods and gradients
   Taras Petrenko         : pre 6.0 DFT Hessian and TD-DFT gradient, (ASA, deprecated), ECA, 1-Electron XAS/XES, NRVS
   Peter Pinski           : DLPNO-MP2, DLPNO-MP2 Gradient
   Christoph Reimann      : Effective Core Potentials
   Marius Retegan         : Local ZFS, SOC
   Christoph Riplinger    : Optimizer, TS searches, QM/MM, DLPNO-CCSD(T), (RO)-DLPNO pert. Triples
   Michael Roemelt        : Original ROCIS implementation
   Masaaki Saitow         : Open-shell DLPNO-CCSD energy and density
   Barbara Sandhoefer     : DKH picture change effects
   Kantharuban Sivalingam : CASSCF convergence/infrastructure, NEVPT2 and variants, FIC-MRCI
   Bernardo de Souza      : ESD, SOC TD-DFT
   Georgi Stoychev        : AutoAux, RI-MP2 NMR, DLPNO-MP2 response, X2C
   Van Anh Tran           : RI-MP2 g-tensors
   Willem Van den Heuvel  : Paramagnetic NMR
   Zikuan Wang            : NOTCH, Electric field optimization 
   Frank Wennmohs         : Technical directorship and infrastructure
   Hang Xu                : AUTO-CI-Response properties 


 We gratefully acknowledge several colleagues who have allowed us to
 interface, adapt or use parts of their codes:
   Stefan Grimme, W. Hujo, H. Kruse, P. Pracht,  : VdW corrections, initial TS optimization,
                  C. Bannwarth, S. Ehlert,         DFT functionals, gCP, sTDA/sTD-DF
                  L. Wittmann, M. Mueller
   Ed Valeev, F. Pavosevic, A. Kumar             : LibInt (2-el integral package), F12 methods
   Garnet Chan, S. Sharma, J. Yang, R. Olivares  : DMRG
   Ulf Ekstrom                                   : XCFun DFT Library
   Mihaly Kallay                                 : mrcc  (arbitrary order and MRCC methods)
   Frank Weinhold                                : gennbo (NPA and NBO analysis)
   Simon Mueller                                 : openCOSMO-RS
   Christopher J. Cramer and Donald G. Truhlar   : smd solvation model
   Lars Goerigk                                  : TD-DFT with DH, B97 family of functionals
   V. Asgeirsson, H. Jonsson                     : NEB implementation
   FAccTs GmbH                                   : IRC, NEB, NEB-TS, DLPNO-Multilevel, CI-OPT
                                                   MM, QMMM, 2- and 3-layer-ONIOM, Crystal-QMMM,
                                                   LR-CPCM, SF, NACMEs, symmetry and pop. for TD-DFT,
                                                   nearIR, NL-DFT gradient (VV10), updates on ESD,
                                                   ML-optimized integration grids, MBIS, APM,
                                                   GOAT, DOCKER, SOLVATOR, interface openCOSMO-RS
   S Lehtola, MJT Oliveira, MAL Marques          : LibXC Library
   Liviu Ungur et al                             : ANISO software


 Your calculation uses the libint2 library for the computation of 2-el integrals
 For citations please refer to: http://libint.valeyev.net

 Your ORCA version has been built with support for libXC version: 6.2.2
 For citations please refer to: https://libxc.gitlab.io

 This ORCA versions uses:
   CBLAS   interface :  Fast vector & matrix operations
   LAPACKE interface :  Fast linear algebra routines
   SCALAPACK package :  Parallel linear algebra routines
   Shared memory     :  Shared parallel matrices
   BLAS/LAPACK       :  OpenBLAS 0.3.27  USE64BITINT DYNAMIC_ARCH NO_AFFINITY SkylakeX SINGLE_THREADED
        Core in use  :  SkylakeX
   Copyright (c) 2011-2014, The OpenBLAS Project




***************************************
The coordinates will be read from file: vacuum_censo.xyz
***************************************


Your calculation utilizes the geometrical counterpoise correction gCP
Please cite in your paper:
H.Kruse, S. Grimme J.Chem.Phys., 136, (2012), 154101 
   

Your calculation utilizes the atom-pairwise dispersion correction
based on EEQ partial charges (D4)


================================================================================

----- Orbital basis set information -----
Your calculation utilizes the basis: def2-TZVP
   F. Weigend and R. Ahlrichs, Phys. Chem. Chem. Phys. 7, 3297 (2005).

----- AuxJ basis set information -----
Your calculation utilizes the basis: def2-mTZVPP/J
   Stefan Grimme, Andreas Hansen, Sebastian Ehlert, and Jan-Michael Mewes 
   J. Chem. Phys. 154, 000000 (2021). DOI: 10.1063/5.0040021

================================================================================
                                        WARNINGS
                       Please study these warnings very carefully!
================================================================================

Using LibXC functional ID 497 : Re-regularized SCAN exchange by Furness et al
[ 1]  J. W. Furness, A. D. Kaplan, J. Ning, J. P. Perdew, and J. Sun.,  J. Phys. Chem. Lett. 11, 8208-8215 (2020)
[ 2]  J. W. Furness, A. D. Kaplan, J. Ning, J. P. Perdew, and J. Sun.,  J. Phys. Chem. Lett. 11, 9248-9248 (2020)
Using LibXC functional ID 498 : Re-regularized SCAN correlation by Furness et al
[ 1]  J. W. Furness, A. D. Kaplan, J. Ning, J. P. Perdew, and J. Sun.,  J. Phys. Chem. Lett. 11, 8208-8215 (2020)
[ 2]  J. W. Furness, A. D. Kaplan, J. Ning, J. P. Perdew, and J. Sun.,  J. Phys. Chem. Lett. 11, 9248-9248 (2020)
Using LibXC functional ID 497 : Re-regularized SCAN exchange by Furness et al
[ 1]  J. W. Furness, A. D. Kaplan, J. Ning, J. P. Perdew, and J. Sun.,  J. Phys. Chem. Lett. 11, 8208-8215 (2020)
[ 2]  J. W. Furness, A. D. Kaplan, J. Ning, J. P. Perdew, and J. Sun.,  J. Phys. Chem. Lett. 11, 9248-9248 (2020)
Using LibXC functional ID 498 : Re-regularized SCAN correlation by Furness et al
[ 1]  J. W. Furness, A. D. Kaplan, J. Ning, J. P. Perdew, and J. Sun.,  J. Phys. Chem. Lett. 11, 8208-8215 (2020)
[ 2]  J. W. Furness, A. D. Kaplan, J. Ning, J. P. Perdew, and J. Sun.,  J. Phys. Chem. Lett. 11, 9248-9248 (2020)

================================================================================
                                       INPUT FILE
================================================================================
NAME = vacuum_censo.inp
|  1> ! r2SCAN-3c DEF2-TZVP FREQ
|  2> * xyzfile 0 1 vacuum_censo.xyz
|  3> 
|  4>                          ****END OF INPUT****
================================================================================

                       ****************************
                       * Single Point Calculation *
                       ****************************

---------------------------------
CARTESIAN COORDINATES (ANGSTROEM)
---------------------------------
  C     -0.692491   -2.064572    0.000163
  C      0.692427   -2.064591    0.000168
  C      1.389653   -0.862462    0.000112
  C      0.702340    0.355920    0.000049
  C     -0.702336    0.355938    0.000045
  C     -1.389682   -0.862423    0.000103
  Cl    -3.127081   -0.900783    0.000096
  Cl    -1.571107    1.849506   -0.000036
  Cl     1.571154    1.849460   -0.000026
  Cl     3.127050   -0.900871    0.000117
  H     -1.241304   -2.998261    0.000204
  H      1.241212   -2.998296    0.000212

----------------------------
CARTESIAN COORDINATES (A.U.)
----------------------------
  NO LB      ZA    FRAG     MASS         X           Y           Z
   0 C     6.0000    0    12.011   -1.308619   -3.901476    0.000308
   1 C     6.0000    0    12.011    1.308498   -3.901511    0.000317
   2 C     6.0000    0    12.011    2.626063   -1.629817    0.000211
   3 C     6.0000    0    12.011    1.327231    0.672591    0.000093
   4 C     6.0000    0    12.011   -1.327223    0.672625    0.000086
   5 C     6.0000    0    12.011   -2.626118   -1.629744    0.000194
   6 Cl   17.0000    0    35.453   -5.909326   -1.702234    0.000182
   7 Cl   17.0000    0    35.453   -2.968963    3.495059   -0.000069
   8 Cl   17.0000    0    35.453    2.969051    3.494973   -0.000049
   9 Cl   17.0000    0    35.453    5.909268   -1.702399    0.000220
  10 H     1.0000    0     1.008   -2.345725   -5.665891    0.000385
  11 H     1.0000    0     1.008    2.345550   -5.665959    0.000400

--------------------------------
INTERNAL COORDINATES (ANGSTROEM)
--------------------------------
 C      0   0   0     0.000000000000     0.00000000     0.00000000
 C      1   0   0     1.384918416431     0.00000000     0.00000000
 C      2   1   0     1.389689462477   120.11263657     0.00000000
 C      3   2   1     1.398875574433   120.45843604     0.00000000
 C      4   3   2     1.404676599716   119.42888331     0.00000000
 C      1   2   3     1.389689596555   120.11250092     0.00000000
 Cl     6   1   2     1.737822530472   118.84691259   179.99990196
 Cl     5   4   3     1.727862593624   120.18621351   180.00017812
 Cl     4   3   2     1.727859659391   120.38465052   180.00021077
 Cl     3   2   1     1.737821773532   118.84696298   180.00011668
 H      1   2   3     1.083037047036   120.44583699   179.99983839
 H      2   1   3     1.083037650378   120.44559543   180.00020692

---------------------------
INTERNAL COORDINATES (A.U.)
---------------------------
 C      0   0   0     0.000000000000     0.00000000     0.00000000
 C      1   0   0     2.617116524879     0.00000000     0.00000000
 C      2   1   0     2.626132495278   120.11263657     0.00000000
 C      3   2   1     2.643491731111   120.45843604     0.00000000
 C      4   3   2     2.654454080190   119.42888331     0.00000000
 C      1   2   3     2.626132748648   120.11250092     0.00000000
 Cl     6   1   2     3.284008651951   118.84691259   179.99990196
 Cl     5   4   3     3.265187098996   120.18621351   180.00017812
 Cl     4   3   2     3.265181554100   120.38465052   180.00021077
 Cl     3   2   1     3.284007221540   118.84696298   180.00011668
 H      1   2   3     2.046643411789   120.44583699   179.99983839
 H      2   1   3     2.046644551940   120.44559543   180.00020692

---------------------
BASIS SET INFORMATION
---------------------
There are 3 groups of distinct atoms

 Group   1 Type C   : 11s6p2d1f contracted to 5s3p2d1f pattern {62111/411/11/1}
 Group   2 Type Cl  : 14s9p3d1f contracted to 5s5p2d1f pattern {73211/51111/21/1}
 Group   3 Type H   : 5s1p contracted to 3s1p pattern {311/1}

Atom   0C    basis set group =>   1
Atom   1C    basis set group =>   1
Atom   2C    basis set group =>   1
Atom   3C    basis set group =>   1
Atom   4C    basis set group =>   1
Atom   5C    basis set group =>   1
Atom   6Cl   basis set group =>   2
Atom   7Cl   basis set group =>   2
Atom   8Cl   basis set group =>   2
Atom   9Cl   basis set group =>   2
Atom  10H    basis set group =>   3
Atom  11H    basis set group =>   3
---------------------------------
AUXILIARY/J BASIS SET INFORMATION
---------------------------------
There are 3 groups of distinct atoms

 Group   1 Type C   : 8s3p3d contracted to 6s3p3d pattern {311111/111/111}
 Group   2 Type Cl  : 14s5p5d2f contracted to 8s4p3d1f pattern {71111111/2111/311/2}
 Group   3 Type H   : 5s2p1d contracted to 3s1p1d pattern {311/2/1}

Atom   0C    basis set group =>   1
Atom   1C    basis set group =>   1
Atom   2C    basis set group =>   1
Atom   3C    basis set group =>   1
Atom   4C    basis set group =>   1
Atom   5C    basis set group =>   1
Atom   6Cl   basis set group =>   2
Atom   7Cl   basis set group =>   2
Atom   8Cl   basis set group =>   2
Atom   9Cl   basis set group =>   2
Atom  10H    basis set group =>   3
Atom  11H    basis set group =>   3
------------------------------------------------------------------------------
                             ORCA STARTUP CALCULATIONS
                           -- RI-GTO INTEGRALS CHOSEN --
------------------------------------------------------------------------------
------------------------------------------------------------------------------
                   ___                                                        
                  /   \      - P O W E R E D   B Y -                         
                 /     \                                                     
                 |  |  |   _    _      __       _____    __    __             
                 |  |  |  | |  | |    /  \     |  _  \  |  |  /  |          
                  \  \/   | |  | |   /    \    | | | |  |  | /  /          
                 / \  \   | |__| |  /  /\  \   | |_| |  |  |/  /          
                |  |  |   |  __  | /  /__\  \  |    /   |      \           
                |  |  |   | |  | | |   __   |  |    \   |  |\   \          
                \     /   | |  | | |  |  |  |  | |\  \  |  | \   \       
                 \___/    |_|  |_| |__|  |__|  |_| \__\ |__|  \__/        
                                                                              
                      - O R C A' S   B I G   F R I E N D -                    
                                      &                                       
                       - I N T E G R A L  F E E D E R -                       
                                                                              
 v1 FN, 2020, v2 2021, v3 2022-2024                                           
------------------------------------------------------------------------------


----------------------
SHARK INTEGRAL PACKAGE
----------------------

Number of atoms                             ...     12
Number of basis functions                   ...    346
Number of shells                            ...    126
Maximum angular momentum                    ...      3
Integral batch strategy                     ... SHARK/LIBINT Hybrid
RI-J (if used) integral strategy            ... SPLIT-RIJ (Revised 2003 algorithm where possible)
Printlevel                                  ...      1
Contraction scheme used                     ... SEGMENTED contraction
Prescreening option                         ... SCHWARTZ
   Thresh                                   ... 1.000e-10
   Tcut                                     ... 1.000e-11
   Tpresel                                  ... 1.000e-11 
Coulomb Range Separation                    ... NOT USED
Exchange Range Separation                   ... NOT USED
Multipole approximations                    ... NOT USED
Finite Nucleus Model                        ... NOT USED
CABS basis                                  ... NOT available
Auxiliary Coulomb fitting basis             ... AVAILABLE
   # of basis functions in Aux-J            ...    370
   # of shells in Aux-J                     ...    146
   Maximum angular momentum in Aux-J        ...      3
Auxiliary J/K fitting basis                 ... NOT available
Auxiliary Correlation fitting basis         ... NOT available
Auxiliary 'external' fitting basis          ... NOT available

Checking pre-screening integrals            ... done (  0.0 sec) Dimension = 126
Check shell pair data                       ... done (  0.0 sec)
Shell pair information
Shell pair cut-off parameter TPreSel        ...   1.0e-11
Total number of shell pairs                 ...      8001
Shell pairs after pre-screening             ...      6777
Total number of primitive shell pairs       ...     29202
Primitive shell pairs kept                  ...     16954
          la=0 lb=0:   1231 shell pairs
          la=1 lb=0:   1864 shell pairs
          la=1 lb=1:    709 shell pairs
          la=2 lb=0:    986 shell pairs
          la=2 lb=1:    718 shell pairs
          la=2 lb=2:    201 shell pairs
          la=3 lb=0:    470 shell pairs
          la=3 lb=1:    352 shell pairs
          la=3 lb=2:    194 shell pairs
          la=3 lb=3:     52 shell pairs

Calculating one electron integrals          ... done (  0.0 sec)
Calculating RI/J V-Matrix + Cholesky decomp.... done (  0.1 sec)
Calculating Nuclear repulsion               ... done (  0.0 sec) ENN=    849.202617532386 Eh

Diagonalization of the overlap matrix:
Smallest eigenvalue                        ... 9.331e-06
Time for diagonalization                   ...    0.013 sec
Threshold for overlap eigenvalues          ... 1.000e-07
Number of eigenvalues below threshold      ... 0
Time for construction of square roots      ...    0.024 sec
Total time needed                          ...    0.045 sec

-------------------
DFT GRID GENERATION
-------------------

General Integration Accuracy     IntAcc      ... 4.388
Radial Grid Type                 RadialGrid  ... OptM3 with GC (2021)
Angular Grid (max. ang.)         AngularGrid ... 4 (Lebedev-302)
Angular grid pruning method      GridPruning ... 4 (adaptive)
Weight generation scheme         WeightScheme... mBecke (2022)
Basis function cutoff            BFCut       ... 1.0000e-10
Integration weight cutoff        WCut        ... 1.0000e-14
Partially contracted basis set               ... off
Rotationally invariant grid construction     ... off
Angular grids for H and He will be reduced by one unit

Total number of grid points                  ...    71728
Total number of batches                      ...     1128
Average number of points per batch           ...       63
Average number of grid points per atom       ...     5977
Initializing property integral containers    ... done (  0.0 sec)

SHARK setup successfully completed in   1.2 seconds

Maximum memory used throughout the entire STARTUP-calculation: 47.6 MB
-------------------------------------------------------------------------------
                                 ORCA GUESS
                   Start orbitals & Density for SCF / CASSCF
-------------------------------------------------------------------------------

------------
SCF SETTINGS
------------
Hamiltonian:
 Density Functional     Method          .... DFT(GTOs)
  Functional kind                       .... Exchange
  Functional name                       .... Re-regularized SCAN exchange by Furness et al
  Functional family                     .... MGGA
  Functional refs                              
    [ 0] J. W. Furness, A. D. Kaplan, J. Ning, J. P. Perdew, and J. Sun.,  J. Phys. Chem. Lett. 11, 8208-8215 (2020), doi: 10.1021/acs.jpclett.0c02405
    [ 1] J. W. Furness, A. D. Kaplan, J. Ning, J. P. Perdew, and J. Sun.,  J. Phys. Chem. Lett. 11, 9248-9248 (2020), doi: 10.1021/acs.jpclett.0c03077
  Functional external parameters        .... 6
    Parameter  0 _c1        =  6.670000e-01 : c1 parameter        
    Parameter  1 _c2        =  8.000000e-01 : c2 parameter        
    Parameter  2 _d         =  1.240000e+00 : d parameter         
    Parameter  3 _k1        =  6.500000e-02 : k1 parameter        
    Parameter  4 _eta       =  1.000000e-03 : eta parameter       
    Parameter  5 _dp2       =  3.610000e-01 : dp2 parameter       
  Functional kind                       .... Correlation
  Functional name                       .... Re-regularized SCAN correlation by Furness et al
  Functional family                     .... MGGA
  Functional refs                              
    [ 0] J. W. Furness, A. D. Kaplan, J. Ning, J. P. Perdew, and J. Sun.,  J. Phys. Chem. Lett. 11, 8208-8215 (2020), doi: 10.1021/acs.jpclett.0c02405
    [ 1] J. W. Furness, A. D. Kaplan, J. Ning, J. P. Perdew, and J. Sun.,  J. Phys. Chem. Lett. 11, 9248-9248 (2020), doi: 10.1021/acs.jpclett.0c03077
  Functional external parameters        .... 1
    Parameter  0 _eta       =  1.000000e-03 : Regularization parameter
 Gradients option       PostSCFGGA      .... off
 RI-approximation to the Coulomb term is turned on
   Number of AuxJ basis functions       .... 370


General Settings:
 Integral files         IntName         .... vacuum_censo
 Hartree-Fock type      HFTyp           .... RHF
 Total Charge           Charge          ....    0
 Multiplicity           Mult            ....    1
 Number of Electrons    NEL             ....  106
 Basis Dimension        Dim             ....  346
 Nuclear Repulsion      ENuc            ....    849.2026175324 Eh

Convergence Acceleration:
 AO-DIIS                CNVDIIS         .... on
   Start iteration      DIISMaxIt       ....    12
   Startup error        DIISStart       ....  0.200000
   # of expansion vecs  DIISMaxEq       ....     5
   Bias factor          DIISBfac        ....   1.050
   Max. coefficient     DIISMaxC        ....  10.000
 MO-DIIS                CNVKDIIS        .... off
 Trust-Rad. Augm. Hess. CNVTRAH         .... auto
   Auto Start mean grad. ratio tolernc. ....  1.125000
   Auto Start start iteration           ....    50
   Auto Start num. interpolation iter.  ....    10
   Max. Number of Micro iterations      ....    24
   Max. Number of Macro iterations      .... Maxiter - #DIIS iter
   Number of Davidson start vectors     ....     2
   Converg. threshold    (grad. norm)   ....   5.000e-05
   Grad. Scal. Fac. for Micro threshold ....   0.100
   Minimum threshold for Micro iter.    ....   1.000e-02
   NR start threshold (gradient norm)   ....   1.000e-04
   Initial trust radius                 ....   0.400
   Minimum AH scaling param. (alpha)    ....   1.000
   Maximum AH scaling param. (alpha)    .... 1000.000
   Quad. conv. algorithm                .... NR
   White noise on init. David. guess    .... on
   Maximum white noise                  ....   0.010
   Pseudo random numbers                .... off
   Inactive MOs                         .... canonical
   Orbital update algorithm             .... Taylor
   Preconditioner                       .... Diag
   Full preconditioner red. dimension   ....   250
   COSX micro iterations for RIJONX calc.... off
 SOSCF                  CNVSOSCF        .... on
   Start iteration      SOSCFMaxIt      ....   150
   Startup grad/error   SOSCFStart      ....  0.003300
   Hessian update       SOSCFHessUp     .... L-BFGS
 Level Shifting         CNVShift        .... on
   Level shift para.    LevelShift      ....    0.2500
   Turn off err/grad.   ShiftErr        ....    0.0010
 Zerner damping         CNVZerner       .... off
 Static damping         CNVDamp         .... on
   Fraction old density DampFac         ....    0.7000
   Max. Damping (<1)    DampMax         ....    0.9800
   Min. Damping (>=0)   DampMin         ....    0.0000
   Turn off err/grad.   DampErr         ....    0.1000

SCF Procedure:
 Maximum # iterations   MaxIter         ....   125
 SCF integral mode      SCFMode         .... Direct
   Integral package                     .... SHARK and LIBINT hybrid scheme
 Reset frequency        DirectResetFreq ....    20
 Integral Threshold     Thresh          ....  1.000e-10 Eh
 Primitive CutOff       TCut            ....  1.000e-11 Eh

Convergence Tolerance:
 Convergence Check Mode ConvCheckMode   .... Total+1el-Energy
 Convergence forced     ConvForced      .... 0
 Energy Change          TolE            ....  1.000e-06 Eh
 1-El. energy change                    ....  1.000e-03 Eh
 Orbital Gradient       TolG            ....  5.000e-05
 Orbital Rotation angle TolX            ....  5.000e-05
 DIIS Error             TolErr          ....  1.000e-06

------------------------------
INITIAL GUESS: MODEL POTENTIAL
------------------------------
Loading Hartree-Fock densities                     ... done
Calculating cut-offs                               ... done
Initializing the effective Hamiltonian             ... done
Setting up the integral package (SHARK)            ... done
Starting the Coulomb interaction                   ... done (   0.4 sec)
Making the grid                                    ... done (   0.2 sec)
Mapping shells                                     ... done
Starting the XC term evaluation                    ... done (   0.4 sec)
  promolecular density results
     # of electrons  =    105.996952017
     EX              =   -140.857483736
     EC              =     -3.972057314
     EX+EC           =   -144.829541050
Transforming the Hamiltonian                       ... done (   0.0 sec)
Diagonalizing the Hamiltonian                      ... done (   0.0 sec)
Back transforming the eigenvectors                 ... done (   0.0 sec)
Now organizing SCF variables                       ... done
                      ------------------
                      INITIAL GUESS DONE (   1.2 sec)
                      ------------------
             **** ENERGY FILE WAS UPDATED (vacuum_censo.en.tmp) ****
Finished Guess after   1.4 sec
Maximum memory used throughout the entire GUESS-calculation: 34.0 MB

-------------------------------------------------------------------------------------------
                                      ORCA LEAN-SCF
                              memory conserving SCF solver
-------------------------------------------------------------------------------------------

----------------------------------------D-I-I-S--------------------------------------------
Iteration    Energy (Eh)           Delta-E    RMSDP     MaxDP     DIISErr   Damp  Time(sec)
-------------------------------------------------------------------------------------------
               ***  Starting incremental Fock matrix formation  ***
    1    -2070.4195825032547873     0.00e+00  1.14e-03  2.87e-02  1.34e-01  0.700   4.2
    2    -2070.4761460065183201    -5.66e-02  8.95e-04  2.27e-02  6.25e-02  0.700   3.6
                               ***Turning on AO-DIIS***
    3    -2070.4949561185017046    -1.88e-02  6.60e-04  1.94e-02  2.43e-02  0.700   3.6
    4    -2070.5066985579251195    -1.17e-02  1.78e-03  5.28e-02  1.72e-02  0.000   3.4
    5    -2070.5344988939309587    -2.78e-02  1.81e-04  4.61e-03  3.57e-03  0.000   3.5
                              *** Initializing SOSCF ***
---------------------------------------S-O-S-C-F--------------------------------------
Iteration    Energy (Eh)           Delta-E    RMSDP     MaxDP     MaxGrad    Time(sec)
--------------------------------------------------------------------------------------
    6    -2070.5347280239834618    -2.29e-04  8.07e-05  3.25e-03  1.95e-03     3.4
               *** Restarting incremental Fock matrix formation ***
    7    -2070.5347573817175544    -2.94e-05  6.58e-05  2.69e-03  3.46e-04     4.0
    8    -2070.5347469140174326     1.05e-05  3.36e-05  1.56e-03  8.62e-04     3.1
    9    -2070.5347640255590704    -1.71e-05  1.30e-05  3.95e-04  1.49e-04     3.1
   10    -2070.5347641386688338    -1.13e-07  6.22e-06  1.97e-04  1.04e-04     3.0
                 **** Energy Check signals convergence ****

               *****************************************************
               *                     SUCCESS                       *
               *           SCF CONVERGED AFTER  10 CYCLES          *
               *****************************************************

             **** ENERGY FILE WAS UPDATED (vacuum_censo.en.tmp) ****

----------------
TOTAL SCF ENERGY
----------------

Total Energy       :      -2070.53476413866883 Eh          -56342.11531 eV

Components:
Nuclear Repulsion  :        849.20261753238617 Eh           23107.97801 eV
Electronic Energy  :      -2919.73738167105512 Eh          -79450.09332 eV
One Electron Energy:      -4542.07606925726486 Eh         -123596.17335 eV
Two Electron Energy:       1622.33868758620974 Eh           44146.08003 eV

Virial components:
Potential Energy   :      -4137.35319707360941 Eh         -112583.10411 eV
Kinetic Energy     :       2066.81843293494057 Eh           56240.98880 eV
Virial Ratio       :          2.00179809273253

DFT components:
N(Alpha)           :       53.000010517540 electrons
N(Beta)            :       53.000010517540 electrons
N(Total)           :      106.000021035080 electrons
E(X)               :     -142.221362603236 Eh       
E(C)               :       -3.920459355069 Eh       
E(XC)              :     -146.141821958306 Eh       

---------------
SCF CONVERGENCE
---------------

  Last Energy change         ...    1.1311e-07  Tolerance :   1.0000e-06
  Last MAX-Density change    ...    1.9655e-04  Tolerance :   1.0000e-05
  Last RMS-Density change    ...    6.2238e-06  Tolerance :   1.0000e-06
  Last DIIS Error            ...    1.9481e-03  Tolerance :   1.0000e-06
  Last Orbital Gradient      ...    1.0423e-04  Tolerance :   5.0000e-05
  Last Orbital Rotation      ...    2.3259e-04  Tolerance :   5.0000e-05


----------------
ORBITAL ENERGIES
----------------

  NO   OCC          E(Eh)            E(eV) 
   0   2.0000    -101.213904     -2754.1703 
   1   2.0000    -101.213896     -2754.1701 
   2   2.0000    -101.211826     -2754.1138 
   3   2.0000    -101.211822     -2754.1137 
   4   2.0000     -10.137277      -275.8493 
   5   2.0000     -10.136897      -275.8390 
   6   2.0000     -10.130868      -275.6749 
   7   2.0000     -10.130857      -275.6746 
   8   2.0000     -10.077192      -274.2143 
   9   2.0000     -10.076730      -274.2018 
  10   2.0000      -9.389731      -255.5076 
  11   2.0000      -9.389724      -255.5074 
  12   2.0000      -9.387667      -255.4514 
  13   2.0000      -9.387663      -255.4513 
  14   2.0000      -7.135051      -194.1546 
  15   2.0000      -7.135049      -194.1546 
  16   2.0000      -7.132867      -194.0952 
  17   2.0000      -7.132866      -194.0951 
  18   2.0000      -7.124776      -193.8750 
  19   2.0000      -7.124775      -193.8750 
  20   2.0000      -7.123692      -193.8455 
  21   2.0000      -7.123691      -193.8455 
  22   2.0000      -7.122630      -193.8166 
  23   2.0000      -7.122630      -193.8166 
  24   2.0000      -7.121857      -193.7956 
  25   2.0000      -7.121856      -193.7955 
  26   2.0000      -0.916783       -24.9469 
  27   2.0000      -0.871111       -23.7041 
  28   2.0000      -0.850581       -23.1455 
  29   2.0000      -0.822969       -22.3941 
  30   2.0000      -0.802661       -21.8415 
  31   2.0000      -0.726182       -19.7604 
  32   2.0000      -0.705934       -19.2094 
  33   2.0000      -0.608360       -16.5543 
  34   2.0000      -0.591882       -16.1059 
  35   2.0000      -0.507228       -13.8024 
  36   2.0000      -0.499078       -13.5806 
  37   2.0000      -0.463300       -12.6070 
  38   2.0000      -0.437280       -11.8990 
  39   2.0000      -0.436372       -11.8743 
  40   2.0000      -0.428725       -11.6662 
  41   2.0000      -0.387846       -10.5538 
  42   2.0000      -0.385068       -10.4782 
  43   2.0000      -0.371246       -10.1021 
  44   2.0000      -0.350626        -9.5410 
  45   2.0000      -0.323826        -8.8118 
  46   2.0000      -0.320133        -8.7113 
  47   2.0000      -0.316047        -8.6001 
  48   2.0000      -0.305939        -8.3250 
  49   2.0000      -0.300340        -8.1727 
  50   2.0000      -0.283920        -7.7259 
  51   2.0000      -0.250593        -6.8190 
  52   2.0000      -0.239705        -6.5227 
  53   0.0000      -0.074921        -2.0387 
  54   0.0000      -0.072431        -1.9709 
  55   0.0000      -0.061517        -1.6739 
  56   0.0000      -0.007015        -0.1909 
  57   0.0000       0.023398         0.6367 
  58   0.0000       0.027209         0.7404 
  59   0.0000       0.067637         1.8405 
  60   0.0000       0.073766         2.0073 
  61   0.0000       0.089128         2.4253 
  62   0.0000       0.105161         2.8616 
  63   0.0000       0.142520         3.8782 
*Only the first 10 virtual orbitals were printed.

                    ********************************
                    * MULLIKEN POPULATION ANALYSIS *
                    ********************************

-----------------------
MULLIKEN ATOMIC CHARGES
-----------------------
   0 C :   -0.173652
   1 C :   -0.173621
   2 C :    0.093640
   3 C :    0.057558
   4 C :    0.057525
   5 C :    0.093678
   6 Cl:   -0.069963
   7 Cl:   -0.042648
   8 Cl:   -0.042650
   9 Cl:   -0.069963
  10 H :    0.135048
  11 H :    0.135049
Sum of atomic charges:    0.0000000

--------------------------------
MULLIKEN REDUCED ORBITAL CHARGES
--------------------------------
  0 C s       :     3.257659  s :     3.257659
      pz      :     0.972014  p :     2.826245
      px      :     0.941910
      py      :     0.912320
      dz2     :     0.004673  d :     0.080788
      dxz     :     0.019891
      dyz     :     0.010623
      dx2y2   :     0.017636
      dxy     :     0.027965
      f0      :     0.001870  f :     0.008961
      f+1     :     0.000726
      f-1     :     0.000704
      f+2     :     0.001020
      f-2     :     0.000489
      f+3     :     0.001733
      f-3     :     0.002419

  1 C s       :     3.257635  s :     3.257635
      pz      :     0.972014  p :     2.826237
      px      :     0.941914
      py      :     0.912310
      dz2     :     0.004673  d :     0.080787
      dxz     :     0.019891
      dyz     :     0.010622
      dx2y2   :     0.017636
      dxy     :     0.027965
      f0      :     0.001870  f :     0.008961
      f+1     :     0.000726
      f-1     :     0.000704
      f+2     :     0.001020
      f-2     :     0.000489
      f+3     :     0.001733
      f-3     :     0.002419

  2 C s       :     3.152499  s :     3.152499
      pz      :     1.002746  p :     2.573365
      px      :     0.733616
      py      :     0.837004
      dz2     :     0.006961  d :     0.168042
      dxz     :     0.031358
      dyz     :     0.026908
      dx2y2   :     0.050522
      dxy     :     0.052293
      f0      :     0.002197  f :     0.012453
      f+1     :     0.001089
      f-1     :     0.000748
      f+2     :     0.001095
      f-2     :     0.001265
      f+3     :     0.002248
      f-3     :     0.003811

  3 C s       :     3.178932  s :     3.178932
      pz      :     1.016897  p :     2.572084
      px      :     0.806161
      py      :     0.749026
      dz2     :     0.007803  d :     0.178901
      dxz     :     0.028874
      dyz     :     0.030989
      dx2y2   :     0.057752
      dxy     :     0.053482
      f0      :     0.002213  f :     0.012525
      f+1     :     0.000890
      f-1     :     0.001026
      f+2     :     0.001266
      f-2     :     0.001152
      f+3     :     0.002290
      f-3     :     0.003689

  4 C s       :     3.178929  s :     3.178929
      pz      :     1.016898  p :     2.572121
      px      :     0.806164
      py      :     0.749059
      dz2     :     0.007803  d :     0.178901
      dxz     :     0.028874
      dyz     :     0.030989
      dx2y2   :     0.057752
      dxy     :     0.053483
      f0      :     0.002213  f :     0.012525
      f+1     :     0.000890
      f-1     :     0.001026
      f+2     :     0.001266
      f-2     :     0.001152
      f+3     :     0.002290
      f-3     :     0.003689

  5 C s       :     3.152461  s :     3.152461
      pz      :     1.002745  p :     2.573365
      px      :     0.733614
      py      :     0.837005
      dz2     :     0.006961  d :     0.168042
      dxz     :     0.031358
      dyz     :     0.026908
      dx2y2   :     0.050521
      dxy     :     0.052294
      f0      :     0.002197  f :     0.012453
      f+1     :     0.001089
      f-1     :     0.000748
      f+2     :     0.001095
      f-2     :     0.001265
      f+3     :     0.002248
      f-3     :     0.003811

  6 Cls       :     5.911891  s :     5.911891
      pz      :     3.902620  p :    11.088036
      px      :     3.231101
      py      :     3.954315
      dz2     :     0.007334  d :     0.064305
      dxz     :     0.021222
      dyz     :     0.000474
      dx2y2   :     0.023305
      dxy     :     0.011971
      f0      :     0.000585  f :     0.005730
      f+1     :     0.001065
      f-1     :     0.000087
      f+2     :     0.000903
      f-2     :     0.000031
      f+3     :     0.001908
      f-3     :     0.001150

  7 Cls       :     5.917001  s :     5.917001
      pz      :     3.892064  p :    11.052007
      px      :     3.757045
      py      :     3.402898
      dz2     :     0.007780  d :     0.067609
      dxz     :     0.005878
      dyz     :     0.016263
      dx2y2   :     0.015557
      dxy     :     0.022131
      f0      :     0.000596  f :     0.006031
      f+1     :     0.000350
      f-1     :     0.000845
      f+2     :     0.000264
      f-2     :     0.000743
      f+3     :     0.002015
      f-3     :     0.001217

  8 Cls       :     5.917004  s :     5.917004
      pz      :     3.892063  p :    11.052005
      px      :     3.757025
      py      :     3.402918
      dz2     :     0.007780  d :     0.067610
      dxz     :     0.005879
      dyz     :     0.016262
      dx2y2   :     0.015557
      dxy     :     0.022132
      f0      :     0.000596  f :     0.006031
      f+1     :     0.000350
      f-1     :     0.000845
      f+2     :     0.000264
      f-2     :     0.000744
      f+3     :     0.002015
      f-3     :     0.001217

  9 Cls       :     5.911891  s :     5.911891
      pz      :     3.902620  p :    11.088036
      px      :     3.231103
      py      :     3.954314
      dz2     :     0.007334  d :     0.064305
      dxz     :     0.021222
      dyz     :     0.000474
      dx2y2   :     0.023305
      dxy     :     0.011971
      f0      :     0.000585  f :     0.005730
      f+1     :     0.001065
      f-1     :     0.000087
      f+2     :     0.000903
      f-2     :     0.000031
      f+3     :     0.001908
      f-3     :     0.001150

 10 H s       :     0.841090  s :     0.841090
      pz      :     0.005491  p :     0.023862
      px      :     0.006853
      py      :     0.011519

 11 H s       :     0.841089  s :     0.841089
      pz      :     0.005491  p :     0.023862
      px      :     0.006853
      py      :     0.011519



                     *******************************
                     * LOEWDIN POPULATION ANALYSIS *
                     *******************************

----------------------
LOEWDIN ATOMIC CHARGES
----------------------
   0 C :   -0.136218
   1 C :   -0.136218
   2 C :   -0.437490
   3 C :   -0.448888
   4 C :   -0.448886
   5 C :   -0.437489
   6 Cl:    0.421709
   7 Cl:    0.445500
   8 Cl:    0.445504
   9 Cl:    0.421710
  10 H :    0.155383
  11 H :    0.155383

-------------------------------
LOEWDIN REDUCED ORBITAL CHARGES
-------------------------------
  0 C s       :     2.769442  s :     2.769442
      pz      :     0.887630  p :     2.931272
      px      :     1.048367
      py      :     0.995275
      dz2     :     0.026887  d :     0.390775
      dxz     :     0.066735
      dyz     :     0.032262
      dx2y2   :     0.113382
      dxy     :     0.151510
      f0      :     0.003601  f :     0.044729
      f+1     :     0.004336
      f-1     :     0.003741
      f+2     :     0.006660
      f-2     :     0.003424
      f+3     :     0.008567
      f-3     :     0.014400

  1 C s       :     2.769442  s :     2.769442
      pz      :     0.887630  p :     2.931272
      px      :     1.048368
      py      :     0.995274
      dz2     :     0.026887  d :     0.390776
      dxz     :     0.066737
      dyz     :     0.032260
      dx2y2   :     0.113384
      dxy     :     0.151508
      f0      :     0.003601  f :     0.044729
      f+1     :     0.004336
      f-1     :     0.003741
      f+2     :     0.006659
      f-2     :     0.003424
      f+3     :     0.008567
      f-3     :     0.014400

  2 C s       :     2.787139  s :     2.787139
      pz      :     0.928601  p :     2.964159
      px      :     0.947229
      py      :     1.088329
      dz2     :     0.043394  d :     0.622007
      dxz     :     0.094980
      dyz     :     0.084995
      dx2y2   :     0.217198
      dxy     :     0.181440
      f0      :     0.004625  f :     0.064184
      f+1     :     0.005445
      f-1     :     0.004801
      f+2     :     0.007064
      f-2     :     0.008106
      f+3     :     0.011390
      f-3     :     0.022753

  3 C s       :     2.791200  s :     2.791200
      pz      :     0.939266  p :     2.973883
      px      :     1.045087
      py      :     0.989530
      dz2     :     0.044120  d :     0.620187
      dxz     :     0.088435
      dyz     :     0.094601
      dx2y2   :     0.192417
      dxy     :     0.200614
      f0      :     0.004705  f :     0.063618
      f+1     :     0.005036
      f-1     :     0.005367
      f+2     :     0.008162
      f-2     :     0.007532
      f+3     :     0.011493
      f-3     :     0.021323

  4 C s       :     2.791199  s :     2.791199
      pz      :     0.939266  p :     2.973882
      px      :     1.045089
      py      :     0.989527
      dz2     :     0.044120  d :     0.620186
      dxz     :     0.088434
      dyz     :     0.094601
      dx2y2   :     0.192418
      dxy     :     0.200613
      f0      :     0.004705  f :     0.063618
      f+1     :     0.005036
      f-1     :     0.005367
      f+2     :     0.008162
      f-2     :     0.007532
      f+3     :     0.011493
      f-3     :     0.021323

  5 C s       :     2.787139  s :     2.787139
      pz      :     0.928600  p :     2.964159
      px      :     0.947228
      py      :     1.088330
      dz2     :     0.043394  d :     0.622008
      dxz     :     0.094980
      dyz     :     0.084995
      dx2y2   :     0.217198
      dxy     :     0.181440
      f0      :     0.004625  f :     0.064184
      f+1     :     0.005445
      f-1     :     0.004801
      f+2     :     0.007064
      f-2     :     0.008106
      f+3     :     0.011390
      f-3     :     0.022753

  6 Cls       :     5.547332  s :     5.547332
      pz      :     3.826928  p :    10.914684
      px      :     3.237954
      py      :     3.849802
      dz2     :     0.012355  d :     0.104115
      dxz     :     0.031660
      dyz     :     0.000396
      dx2y2   :     0.039513
      dxy     :     0.020191
      f0      :     0.001261  f :     0.012159
      f+1     :     0.002042
      f-1     :     0.000193
      f+2     :     0.002092
      f-2     :     0.000020
      f+3     :     0.003728
      f-3     :     0.002823

  7 Cls       :     5.541147  s :     5.541147
      pz      :     3.815411  p :    10.891495
      px      :     3.688888
      py      :     3.387196
      dz2     :     0.012847  d :     0.109011
      dxz     :     0.008530
      dyz     :     0.024410
      dx2y2   :     0.025948
      dxy     :     0.037276
      f0      :     0.001293  f :     0.012846
      f+1     :     0.000694
      f-1     :     0.001641
      f+2     :     0.000575
      f-2     :     0.001724
      f+3     :     0.003979
      f-3     :     0.002941

  8 Cls       :     5.541145  s :     5.541145
      pz      :     3.815409  p :    10.891493
      px      :     3.688871
      py      :     3.387212
      dz2     :     0.012847  d :     0.109012
      dxz     :     0.008531
      dyz     :     0.024409
      dx2y2   :     0.025947
      dxy     :     0.037278
      f0      :     0.001293  f :     0.012846
      f+1     :     0.000694
      f-1     :     0.001641
      f+2     :     0.000575
      f-2     :     0.001724
      f+3     :     0.003979
      f-3     :     0.002941

  9 Cls       :     5.547332  s :     5.547332
      pz      :     3.826927  p :    10.914684
      px      :     3.237955
      py      :     3.849801
      dz2     :     0.012355  d :     0.104115
      dxz     :     0.031660
      dyz     :     0.000396
      dx2y2   :     0.039513
      dxy     :     0.020191
      f0      :     0.001261  f :     0.012159
      f+1     :     0.002042
      f-1     :     0.000193
      f+2     :     0.002092
      f-2     :     0.000020
      f+3     :     0.003728
      f-3     :     0.002823

 10 H s       :     0.782944  s :     0.782944
      pz      :     0.014320  p :     0.061672
      px      :     0.017425
      py      :     0.029928

 11 H s       :     0.782944  s :     0.782944
      pz      :     0.014320  p :     0.061672
      px      :     0.017424
      py      :     0.029928



                      *****************************
                      * MAYER POPULATION ANALYSIS *
                      *****************************

  NA   - Mulliken gross atomic population
  ZA   - Total nuclear charge
  QA   - Mulliken gross atomic charge
  VA   - Mayer's total valence
  BVA  - Mayer's bonded valence
  FA   - Mayer's free valence

  ATOM       NA         ZA         QA         VA         BVA        FA
  0 C      6.1737     6.0000    -0.1737     3.9239     3.9239     0.0000
  1 C      6.1736     6.0000    -0.1736     3.9238     3.9238     0.0000
  2 C      5.9064     6.0000     0.0936     3.8521     3.8521     0.0000
  3 C      5.9424     6.0000     0.0576     3.8423     3.8423    -0.0000
  4 C      5.9425     6.0000     0.0575     3.8423     3.8423     0.0000
  5 C      5.9063     6.0000     0.0937     3.8521     3.8521     0.0000
  6 Cl    17.0700    17.0000    -0.0700     1.2675     1.2675     0.0000
  7 Cl    17.0426    17.0000    -0.0426     1.3101     1.3101     0.0000
  8 Cl    17.0427    17.0000    -0.0427     1.3101     1.3101     0.0000
  9 Cl    17.0700    17.0000    -0.0700     1.2675     1.2675     0.0000
 10 H      0.8650     1.0000     0.1350     0.9805     0.9805     0.0000
 11 H      0.8650     1.0000     0.1350     0.9805     0.9805     0.0000

  Mayer bond orders larger than 0.100000
B(  0-C ,  1-C ) :   1.3921 B(  0-C ,  5-C ) :   1.3606 B(  0-C , 10-H ) :   0.9638 
B(  1-C ,  2-C ) :   1.3606 B(  1-C , 11-H ) :   0.9638 B(  2-C ,  3-C ) :   1.2769 
B(  2-C ,  9-Cl) :   1.0808 B(  3-C ,  4-C ) :   1.2676 B(  3-C ,  8-Cl) :   1.1813 
B(  4-C ,  5-C ) :   1.2769 B(  4-C ,  7-Cl) :   1.1813 B(  5-C ,  6-Cl) :   1.0808 


-------
TIMINGS
-------

Total SCF time: 0 days 0 hours 0 min 35 sec 

Total time                  ....      35.420 sec
Sum of individual times     ....      34.886 sec  ( 98.5%)

SCF preparation             ....       0.237 sec  (  0.7%)
Fock matrix formation       ....      33.383 sec  ( 94.3%)
  Startup                   ....       0.073 sec  (  0.2% of F)
  Split-RI-J                ....       5.501 sec  ( 16.5% of F)
  XC integration            ....      27.146 sec  ( 81.3% of F)
    XC Preparation          ....       0.000 sec  (  0.0% of XC)
    Basis function eval.    ....       4.002 sec  ( 14.7% of XC)
    Density eval.           ....       8.356 sec  ( 30.8% of XC)
    XC-Functional eval.     ....       2.046 sec  (  7.5% of XC)
    XC-Potential eval.      ....      11.724 sec  ( 43.2% of XC)
Diagonalization             ....       0.000 sec  (  0.0%)
Density matrix formation    ....       0.273 sec  (  0.8%)
Total Energy calculation    ....       0.067 sec  (  0.2%)
Population analysis         ....       0.040 sec  (  0.1%)
Orbital Transformation      ....       0.095 sec  (  0.3%)
Orbital Orthonormalization  ....       0.000 sec  (  0.0%)
DIIS solution               ....       0.498 sec  (  1.4%)
SOSCF solution              ....       0.293 sec  (  0.8%)
Finished LeanSCF after  35.5 sec

Maximum memory used throughout the entire LEANSCF-calculation: 39.8 MB

------------------------------------------------------------------------------
                         ORCA PROPERTY INTEGRAL CALCULATIONS
------------------------------------------------------------------------------

GBWName                                   ... vacuum_censo.gbw
Number of atoms                           ...     12
Number of basis functions                 ...    346
Max core memory                           ...   1024 MB

Dipole integrals                          ... YES
Quadrupole integrals                      ...  NO
Linear momentum integrals                 ...  NO
Angular momentum integrals                ...  NO
Higher moments length integrals           ...  NO
Higher moments velocity integrals         ...  NO
Kinetic energy integrals                  ...  NO
GIAO right hand sides                     ...  NO
GIAO dipole derivative integrals          ...  NO
SOC integrals                             ...  NO
EPR diamagnetic integrals (GIAO)          ...  NO
EPR gauge integrals                       ...  NO
Field gradient integrals                  ...  NO (   0 nuclei)
Spin-dipole/Fermi contact integrals       ...  NO (   0 nuclei)
Contact density integrals                 ...  NO (   0 nuclei)
Nucleus-orbit integrals                   ...  NO (   0 nuclei)
Geometric perturbations                   ... YES (  12 nuclei)

Choice of electric origin   ... Center of mass
Position of electric origin ... ( -0.0000, -0.0047,  0.0001) 
Choice of magnetic origin   ... GIAO
Position of magnetic origin ... (  0.0000,  0.0000,  0.0000) 

Calculating integrals                     ... Electric Dipole (Length)     done (  0.1 sec)
Calculating integrals                     ... Geometrical perturbation right hand sides

-----------------------
GEOMETRIC PERTURBATIONS (12 nuclei)
-----------------------

MaxCore                            ...   1024 MB
Number of batches                  ...      1

BATCH   0: Atoms    0 -   11 ( 36 perturbations)
   => H(core) and overlap derivative integrals     ... done (     0.5 sec)
   => Making and storing internal U-coefficients   ... done (     0.4 sec)
   => RI-J derivative integrals                    ... done (     6.8 sec)
   => RI-J response operators                      ... done (     1.5 sec)
   => XC derivative integrals                      ... done (   278.6 sec)
   => XC response operators                        ... done (    68.9 sec)
   => Completing and storing right hand sides      ... done (     0.2 sec)
   => Total time for right hand sides = 359.3 sec

  geometrical perturbations done (359.3 sec)

Property integrals calculated in 359.4 sec

Maximum memory used throughout the entire PROPINT-calculation: 156.7 MB


-------------------------------------------------------------------------------
                          DFT DISPERSION CORRECTION                            
                                                                               
                                DFTD4 V3.4.0                                   
-------------------------------------------------------------------------------
The R2SCAN3C composite method is recognized
Using three-body term ABC
Active option DFTDOPT                   ...         5   

-------------------------   ----------------
Dispersion correction           -0.006446116
-------------------------   ----------------

------------------   -----------------
gCP correction             0.007412111
------------------   -----------------

-------------------------   --------------------
FINAL SINGLE POINT ENERGY     -2070.533798143947
-------------------------   --------------------

------------------------------------------------------------------------------
                            ORCA SCF RESPONSE CALCULATION
------------------------------------------------------------------------------

GBWName                                 ... vacuum_censo.gbw
Number of atoms                         ...     12
Number of basis functions               ...    346
Max core memory                         ...   1024 MB

Electric field perturbation             ...  NO
Quadrupolar field perturbation          ...  NO
Magnetic field perturbation (no GIAO)   ...  NO
Magnetic field perturbation (with GIAO) ...  NO
Linear momentum (velocity) perturbation ...  NO
Spin-orbit coupling perturbation        ...  NO
Choice of electric origin               ... Center of mass
Position of electric origin             ...    -0.000005    -0.004744     0.000118
Choice of magnetic origin               ... GIAO
Position of magnetic origin             ...     0.000000     0.000000     0.000000
Nuclear geometric perturbations         ... YES (  36 perturbations)
Nucleus-orbit perturbations             ...  NO (   0 perturbations)
Spin-dipole/Fermi contact perturbations ...  NO (   0 perturbations)

Total number of real perturbations      ...     36
Total number of imaginary perturbations ...      0
Total number of triplet perturbations   ...      0
Total number of SOC perturbations       ...      0


                                **********************
                                * REAL PERTURBATIONS *
                                **********************



-------------------
SHARK CP-SCF DRIVER
-------------------

Dimension of the orbital basis          ...    346
Dimension of the CPSCF-problem          ...  15529
Number of operators                     ...      1
Max. number of iterations               ...    128
Convergence Tolerance                   ... 1.0e-03
Number of perturbations                 ...     36
Perturbation type                       ... REAL

----------------------------
POPLE LINEAR EQUATION SOLVER
----------------------------

  ITERATION   0:   ||err||_max =   4.1478e-01 (  24.3 sec   0/ 36 done)
  ITERATION   1:   ||err||_max =   5.2989e-02 (  26.0 sec   0/ 36 done)
  ITERATION   2:   ||err||_max =   1.7046e-02 (  26.2 sec   8/ 36 done)
  ITERATION   3:   ||err||_max =   4.0938e-03 (  21.8 sec  12/ 36 done)
  ITERATION   4:   ||err||_max =   1.5360e-03 (  19.1 sec  22/ 36 done)
  ITERATION   5:   ||err||_max =   6.1286e-04 (  11.7 sec  36/ 36 done)

CP-SCF equations solved in 130.6 sec
Response densities calculated in   0.1 sec

Maximum memory used throughout the entire SCFRESP-calculation: 112.9 MB

------------------------------------------------------------------------------
                              ORCA PROPERTY CALCULATIONS
------------------------------------------------------------------------------

GBWName                                 ... vacuum_censo.gbw
Number of atoms                         ...     12
Number of basis functions               ...    346
Max core memory                         ...   1024 MB

Electric properties:
Dipole moment                           ... YES
Quadrupole moment                       ...  NO
Static polarizability (Dipole/Dipole)   ...  NO
Static polarizability (Dipole/Quad.)    ...  NO
Static polarizability (Quad./Quad.)     ...  NO
Static polarizability (Velocity)        ...  NO

Atomic electric properties:
Dipole moment                           ...  NO
Quadrupole moment                       ...  NO
Static polarizability                   ...  NO

Choice of electric origin               ... Center of mass
Position of electric origin             ...    -0.000005    -0.004744     0.000118

General magnetic properties:
Magnetizability                         ...  NO

EPR properties:
g-Tensor (aka g-matrix)                 ...  NO
Zero-Field splitting spin-orbit         ...  NO
Zero-field splitting spin-spin          ...  NO
Hyperfine couplings                     ...  NO (   0 nuclei)
Quadrupole couplings                    ...  NO (   0 nuclei)
Contact density                         ...  NO (   0 nuclei)

NMR properties:
Chemical shifts                         ...  NO (   0 nuclei)
Spin-rotation constants                 ...  NO (   0 nuclei)
Spin-spin couplings                     ...  NO (   0 nuclei,    0 pairs)

Choice of magnetic origin               ... GIAO
Position of magnetic origin             ...     0.000000     0.000000     0.000000

Properties with geometric perturbations:
SCF Hessian                             ... YES
IR spectrum                             ... YES
VCD spectrum                            ...  NO
X-ray spectroscopy properties:
SCF XES/XAS/RIXS spectra                ...  NO


-------------
DIPOLE MOMENT
-------------

Method             : SCF
Type of density    : Electron Density
Multiplicity       :   1
Irrep              :   0
Energy             : -2070.5347641386688338 Eh
Relativity type    : 
Basis              : AO
                                X                 Y                 Z
Electronic contribution:      0.000111846       7.464022853      -0.000371633
Nuclear contribution   :     -0.000117597      -8.181181903       0.000405287
                        -----------------------------------------
Total Dipole Moment    :     -0.000005751      -0.717159051       0.000033654
                        -----------------------------------------
Magnitude (a.u.)       :      0.717159051
Magnitude (Debye)      :      1.822873442



--------------------
Rotational spectrum 
--------------------
 
Rotational constants in cm-1:             0.038182             0.017910             0.012191 
Rotational constants in MHz :          1144.671619           536.923791           365.487097 

Dipole components along the rotational axes: 
x,y,z [a.u.] :     0.000004    -0.717159    -0.000002 
x,y,z [Debye]:     0.000011    -1.822873    -0.000006 

 

Dipole moment calculation done in   0.0 sec 

-----------
SCF HESSIAN
-----------

Occupied/Occupied contributions to the Hessian:
   => Occupied/Occupied contributions              ... done (  0.0 sec)
Perturbed density contributions to the Hessian:
   => Perturbed density contributions              ... done (  0.0 sec)
Explicit contributions to the Hessian:
   => Nuclear repulsion Hessian                    ... done (  0.0 sec)
   => HCore and overlap Hessian                    ... done ( 11.5 sec)
   => RI-J Hessian                                 ... done ( 17.8 sec)
   => XC-Hessian                                   ... done ( 80.9 sec)
   => Van der Waals-Hessian                        ... done (  2.3 sec)
   => GCP-Hessian                                  ... done (  0.1 sec)
   => Explicit contributions done
Dipole derivatives                                 ... done (  0.2 sec)
Mass weighting the Hessian           ... done
Calculating normal modes             ... done
Scaling frequencies                  ... done

-----------------------
VIBRATIONAL FREQUENCIES
-----------------------

Scaling factor for frequencies =  1.000000000  (already applied!)

     0:       0.00 cm**-1
     1:       0.00 cm**-1
     2:       0.00 cm**-1
     3:       0.00 cm**-1
     4:       0.00 cm**-1
     5:       0.00 cm**-1
     6:      86.59 cm**-1
     7:     102.75 cm**-1
     8:     210.53 cm**-1
     9:     215.51 cm**-1
    10:     224.28 cm**-1
    11:     247.60 cm**-1
    12:     308.84 cm**-1
    13:     330.30 cm**-1
    14:     350.64 cm**-1
    15:     487.60 cm**-1
    16:     505.09 cm**-1
    17:     522.65 cm**-1
    18:     569.98 cm**-1
    19:     599.90 cm**-1
    20:     728.47 cm**-1
    21:     771.71 cm**-1
    22:     814.05 cm**-1
    23:     823.68 cm**-1
    24:     941.50 cm**-1
    25:    1066.65 cm**-1
    26:    1144.13 cm**-1
    27:    1175.87 cm**-1
    28:    1188.14 cm**-1
    29:    1307.37 cm**-1
    30:    1369.84 cm**-1
    31:    1442.40 cm**-1
    32:    1573.73 cm**-1
    33:    1580.07 cm**-1
    34:    3195.96 cm**-1
    35:    3208.60 cm**-1


------------
NORMAL MODES
------------

These modes are the Cartesian displacements weighted by the diagonal matrix
M(i,i)=1/sqrt(m[i]) where m[i] is the mass of the displaced atom
Thus, these vectors are normalized but *not* orthogonal

                  0          1          2          3          4          5    
      0       0.000000   0.000000   0.000000   0.000000   0.000000   0.000000
      1       0.000000   0.000000   0.000000   0.000000   0.000000   0.000000
      2       0.000000   0.000000   0.000000   0.000000   0.000000   0.000000
      3       0.000000   0.000000   0.000000   0.000000   0.000000   0.000000
      4       0.000000   0.000000   0.000000   0.000000   0.000000   0.000000
      5       0.000000   0.000000   0.000000   0.000000   0.000000   0.000000
      6       0.000000   0.000000   0.000000   0.000000   0.000000   0.000000
      7       0.000000   0.000000   0.000000   0.000000   0.000000   0.000000
      8       0.000000   0.000000   0.000000   0.000000   0.000000   0.000000
      9       0.000000   0.000000   0.000000   0.000000   0.000000   0.000000
     10       0.000000   0.000000   0.000000   0.000000   0.000000   0.000000
     11       0.000000   0.000000   0.000000   0.000000   0.000000   0.000000
     12       0.000000   0.000000   0.000000   0.000000   0.000000   0.000000
     13       0.000000   0.000000   0.000000   0.000000   0.000000   0.000000
     14       0.000000   0.000000   0.000000   0.000000   0.000000   0.000000
     15       0.000000   0.000000   0.000000   0.000000   0.000000   0.000000
     16       0.000000   0.000000   0.000000   0.000000   0.000000   0.000000
     17       0.000000   0.000000   0.000000   0.000000   0.000000   0.000000
     18       0.000000   0.000000   0.000000   0.000000   0.000000   0.000000
     19       0.000000   0.000000   0.000000   0.000000   0.000000   0.000000
     20       0.000000   0.000000   0.000000   0.000000   0.000000   0.000000
     21       0.000000   0.000000   0.000000   0.000000   0.000000   0.000000
     22       0.000000   0.000000   0.000000   0.000000   0.000000   0.000000
     23       0.000000   0.000000   0.000000   0.000000   0.000000   0.000000
     24       0.000000   0.000000   0.000000   0.000000   0.000000   0.000000
     25       0.000000   0.000000   0.000000   0.000000   0.000000   0.000000
     26       0.000000   0.000000   0.000000   0.000000   0.000000   0.000000
     27       0.000000   0.000000   0.000000   0.000000   0.000000   0.000000
     28       0.000000   0.000000   0.000000   0.000000   0.000000   0.000000
     29       0.000000   0.000000   0.000000   0.000000   0.000000   0.000000
     30       0.000000   0.000000   0.000000   0.000000   0.000000   0.000000
     31       0.000000   0.000000   0.000000   0.000000   0.000000   0.000000
     32       0.000000   0.000000   0.000000   0.000000   0.000000   0.000000
     33       0.000000   0.000000   0.000000   0.000000   0.000000   0.000000
     34       0.000000   0.000000   0.000000   0.000000   0.000000   0.000000
     35       0.000000   0.000000   0.000000   0.000000   0.000000   0.000000
                  6          7          8          9         10         11    
      0       0.000000  -0.000002  -0.097510   0.025342   0.004360   0.000001
      1      -0.000004   0.000018   0.041948   0.206988   0.071346  -0.000008
      2      -0.078836   0.387336  -0.000002  -0.000013   0.000003  -0.168340
      3      -0.000000  -0.000001  -0.097513  -0.025330  -0.004356   0.000000
      4       0.000004   0.000018  -0.041928   0.206991   0.071347  -0.000008
      5       0.078832   0.387337   0.000001  -0.000013   0.000003  -0.168340
      6       0.000000  -0.000001  -0.140493  -0.015712  -0.051581  -0.000000
      7       0.000003   0.000006  -0.033413   0.184268   0.082211   0.000009
      8       0.060831   0.132679   0.000001  -0.000003  -0.000011   0.202184
      9       0.000002  -0.000001  -0.128164   0.030236   0.017377  -0.000001
     10      -0.000004   0.000005  -0.067076   0.242842   0.136486   0.000019
     11      -0.092181   0.114801   0.000003  -0.000003  -0.000023   0.397267
     12       0.000001  -0.000000  -0.128165  -0.030221  -0.017371  -0.000001
     13       0.000004   0.000006   0.067102   0.242839   0.136485   0.000018
     14       0.092181   0.114801  -0.000003  -0.000003  -0.000024   0.397266
     15       0.000001  -0.000000  -0.140490   0.015726   0.051586  -0.000001
     16      -0.000003   0.000006   0.033434   0.184266   0.082208   0.000009
     17      -0.060832   0.132678  -0.000002  -0.000002  -0.000010   0.202182
     18       0.000002   0.000001  -0.169973   0.025878   0.055184   0.000001
     19      -0.000012  -0.000013  -0.442272  -0.483887   0.090434   0.000002
     20      -0.293837  -0.276761   0.000020   0.000022  -0.000003  -0.033800
     21      -0.000003   0.000000   0.297626  -0.109449  -0.641582  -0.000004
     22       0.000027   0.000002   0.338067   0.262954  -0.191062  -0.000008
     23       0.604734   0.047756  -0.000013  -0.000015   0.000012  -0.097693
     24       0.000001  -0.000000   0.297640   0.109437   0.641571   0.000005
     25      -0.000028   0.000002  -0.338058   0.262973  -0.191072  -0.000008
     26      -0.604735   0.047755   0.000014  -0.000015   0.000016  -0.097693
     27      -0.000000   0.000000  -0.169964  -0.025880  -0.055178  -0.000001
     28       0.000012  -0.000013   0.442240  -0.483915   0.090425   0.000002
     29       0.293839  -0.276760  -0.000021   0.000022  -0.000004  -0.033801
     30       0.000001  -0.000002  -0.127031   0.015235  -0.014499   0.000003
     31      -0.000008   0.000023   0.058855   0.215028   0.083556  -0.000023
     32      -0.171883   0.490215  -0.000003  -0.000025   0.000014  -0.512131
     33       0.000000  -0.000001  -0.127034  -0.015220   0.014505   0.000001
     34       0.000008   0.000023  -0.058832   0.215032   0.083557  -0.000023
     35       0.171878   0.490215   0.000001  -0.000026   0.000014  -0.512128
                 12         13         14         15         16         17    
      0       0.000002  -0.042053   0.128599   0.269537  -0.023421   0.000002
      1      -0.000016   0.165119   0.120360  -0.140483  -0.419782  -0.000013
      2      -0.310706  -0.000008  -0.000011   0.000011   0.000021  -0.252034
      3       0.000000   0.042057   0.128596   0.269542   0.023393   0.000001
      4       0.000016   0.165119  -0.120366   0.140464  -0.419790   0.000012
      5       0.310706  -0.000007   0.000012  -0.000010   0.000019   0.252035
      6      -0.000002   0.293588   0.104563   0.015415  -0.040778  -0.000000
      7       0.000021   0.040262  -0.139650   0.221792  -0.275598  -0.000005
      8       0.387805   0.000000   0.000011  -0.000012   0.000014  -0.145948
      9      -0.000001   0.058095  -0.119982  -0.140315   0.030259  -0.000001
     10       0.000008  -0.051889  -0.202522   0.092999  -0.108973  -0.000013
     11       0.146869   0.000004   0.000011  -0.000003   0.000008  -0.285004
     12      -0.000001  -0.058095  -0.119977  -0.140319  -0.030249  -0.000003
     13      -0.000008  -0.051889   0.202522  -0.092999  -0.108970   0.000012
     14      -0.146870   0.000003  -0.000011   0.000003   0.000005   0.285006
     15       0.000001  -0.293587   0.104564   0.015410   0.040771  -0.000001
     16      -0.000021   0.040270   0.139643  -0.221799  -0.275587   0.000005
     17      -0.387807  -0.000002  -0.000011   0.000011   0.000013   0.145945
     18      -0.000002  -0.593006   0.262898  -0.079679  -0.056024  -0.000000
     19       0.000004  -0.020573   0.033858   0.066879   0.036565   0.000000
     20       0.088293  -0.000002  -0.000000  -0.000004  -0.000002  -0.004345
     21       0.000001  -0.047273  -0.301373   0.016749  -0.108798   0.000001
     22      -0.000000  -0.033039   0.429434   0.069338   0.246774  -0.000001
     23       0.019729   0.000001  -0.000022  -0.000003  -0.000013  -0.027651
     24       0.000002   0.047275  -0.301384   0.016750   0.108804   0.000001
     25       0.000000  -0.033036  -0.429424  -0.069332   0.246776   0.000002
     26      -0.019729   0.000002   0.000020   0.000003  -0.000012   0.027651
     27      -0.000001   0.593002   0.262904  -0.079680   0.056027  -0.000000
     28      -0.000004  -0.020590  -0.033864  -0.066875   0.036568  -0.000000
     29      -0.088292   0.000002   0.000002   0.000003  -0.000001   0.004345
     30       0.000005   0.135830   0.004680   0.489939  -0.101498   0.000006
     31      -0.000025   0.056844   0.193923  -0.271845  -0.381199  -0.000029
     32      -0.472558  -0.000004  -0.000020   0.000023   0.000023  -0.577205
     33       0.000002  -0.135828   0.004673   0.489949   0.101458   0.000003
     34       0.000024   0.056850  -0.193926   0.271821  -0.381217   0.000027
     35       0.472562  -0.000005   0.000020  -0.000019   0.000019   0.577207
                 18         19         20         21         22         23    
      0       0.000002  -0.305424   0.000003   0.200467   0.000000   0.014658
      1      -0.000002  -0.220220  -0.000006   0.284411   0.000009   0.218532
      2      -0.044649   0.000011  -0.195133  -0.000008   0.107425  -0.000022
      3      -0.000000  -0.305418   0.000002   0.200460  -0.000001  -0.014644
      4      -0.000002   0.220228   0.000006  -0.284426   0.000009   0.218522
      5      -0.044646  -0.000013   0.195134   0.000009   0.107422  -0.000021
      6      -0.000000  -0.207960  -0.000001  -0.124374   0.000006   0.381796
      7       0.000016   0.212254  -0.000018  -0.113202  -0.000006  -0.098403
      8       0.356333  -0.000008  -0.351297   0.000011  -0.070861   0.000012
      9       0.000002  -0.280816  -0.000008  -0.403982   0.000001   0.049705
     10      -0.000014   0.145807   0.000019  -0.137250  -0.000005  -0.336858
     11      -0.252265  -0.000009   0.417035  -0.000001   0.007366   0.000016
     12       0.000000  -0.280821  -0.000006  -0.403979  -0.000001  -0.049723
     13      -0.000013  -0.145800  -0.000019   0.137274  -0.000005  -0.336856
     14      -0.252265   0.000006  -0.417032  -0.000002   0.007366   0.000016
     15      -0.000001  -0.207967  -0.000003  -0.124362  -0.000006  -0.381807
     16       0.000016  -0.212249   0.000018   0.113206  -0.000006  -0.098389
     17       0.356335   0.000009   0.351295  -0.000012  -0.070861   0.000009
     18      -0.000000   0.215854   0.000001   0.042597   0.000002   0.095599
     19      -0.000001   0.009404  -0.000000   0.015647   0.000000   0.008657
     20      -0.023354   0.000000  -0.010292  -0.000000   0.005365  -0.000001
     21       0.000000   0.057746   0.000001   0.067911  -0.000001  -0.040444
     22       0.000001   0.000781  -0.000001  -0.094403   0.000001   0.065029
     23       0.018964   0.000000   0.016614   0.000005  -0.000481  -0.000003
     24      -0.000000   0.057746   0.000001   0.067912   0.000001   0.040448
     25       0.000001  -0.000782   0.000001   0.094400   0.000001   0.065031
     26       0.018964   0.000000  -0.016615  -0.000004  -0.000481  -0.000003
     27      -0.000000   0.215855   0.000001   0.042599  -0.000002  -0.095598
     28      -0.000001  -0.009410   0.000000  -0.015648   0.000000   0.008660
     29      -0.023354   0.000001   0.010293   0.000001   0.005365  -0.000001
     30       0.000004  -0.159516   0.000002   0.020167   0.000011   0.406779
     31      -0.000024  -0.307149  -0.000013   0.390647  -0.000032  -0.009302
     32      -0.553621   0.000019  -0.405232  -0.000011  -0.695246   0.000081
     33       0.000000  -0.159507  -0.000001   0.020165  -0.000006  -0.406775
     34      -0.000025   0.307151   0.000013  -0.390652  -0.000031  -0.009301
     35      -0.553609  -0.000022   0.405236   0.000013  -0.695229   0.000078
                 24         25         26         27         28         29    
      0      -0.000001   0.111453   0.173724  -0.048470  -0.009151  -0.276224
      1       0.000005   0.267985   0.154697   0.028988   0.047901   0.192080
      2       0.114309  -0.000012  -0.000007  -0.000001  -0.000002  -0.000011
      3       0.000000   0.111446  -0.173720   0.048471  -0.009155   0.276226
      4      -0.000005  -0.267989   0.154702   0.028985  -0.047900   0.192074
      5      -0.114312   0.000012  -0.000008  -0.000001   0.000002  -0.000009
      6       0.000000  -0.364540  -0.275156  -0.050123   0.142183   0.051182
      7       0.000001   0.045504  -0.081638   0.024483   0.071379  -0.427161
      8       0.015180  -0.000003   0.000003  -0.000001  -0.000003   0.000022
      9       0.000000   0.208226  -0.089951  -0.050352  -0.053628  -0.377204
     10       0.000001   0.385226  -0.146113  -0.111414   0.113213   0.239722
     11       0.009493  -0.000018   0.000007   0.000005  -0.000006  -0.000013
     12       0.000000   0.208222   0.089945   0.050345  -0.053631   0.377207
     13      -0.000001  -0.385234  -0.146112  -0.111419  -0.113203   0.239703
     14      -0.009493   0.000019   0.000008   0.000006   0.000005  -0.000011
     15       0.000000  -0.364534   0.275154   0.050131   0.142177  -0.051193
     16      -0.000001  -0.045489  -0.081646   0.024478  -0.071388  -0.427143
     17      -0.015179   0.000000   0.000005  -0.000001   0.000004   0.000021
     18      -0.000000   0.034314  -0.033172  -0.005223  -0.011563   0.003932
     19       0.000000   0.000981   0.003873  -0.001563   0.001700  -0.000697
     20       0.002101   0.000000  -0.000000   0.000000  -0.000000   0.000000
     21      -0.000000  -0.021680  -0.010637  -0.007415   0.000612   0.001499
     22       0.000000   0.039681   0.022201   0.011228   0.008240  -0.002067
     23       0.000405  -0.000002  -0.000001  -0.000001  -0.000000   0.000000
     24      -0.000000  -0.021682   0.010638   0.007415   0.000611  -0.001499
     25      -0.000000  -0.039681   0.022201   0.011228  -0.008240  -0.002067
     26      -0.000405   0.000002  -0.000001  -0.000001   0.000000   0.000000
     27      -0.000000   0.034316   0.033172   0.005222  -0.011564  -0.003932
     28      -0.000000  -0.000982   0.003872  -0.001563  -0.001700  -0.000697
     29      -0.002101   0.000000  -0.000000   0.000000   0.000000  -0.000000
     30       0.000003   0.090224   0.574619  -0.596368  -0.560857  -0.014099
     31      -0.000032   0.278716  -0.046562   0.350586   0.376593   0.041917
     32      -0.697564  -0.000011   0.000009  -0.000019  -0.000018  -0.000002
     33      -0.000002   0.090226  -0.574616   0.596347  -0.560909   0.014161
     34       0.000031  -0.278713  -0.046543   0.350548  -0.376598   0.041957
     35       0.697582   0.000012   0.000006  -0.000015   0.000014  -0.000002
                 30         31         32         33         34         35    
      0       0.112851   0.092353   0.145412  -0.391527  -0.028591  -0.033209
      1       0.097328  -0.086317  -0.278276   0.089257  -0.053122  -0.053462
      2      -0.000004   0.000004   0.000014  -0.000006   0.000002   0.000002
      3      -0.112848   0.092362   0.145248   0.391585  -0.028604   0.033194
      4       0.097331   0.086317   0.278232   0.089353   0.053147  -0.053439
      5      -0.000005  -0.000004  -0.000013  -0.000003  -0.000003   0.000003
      6      -0.029357  -0.128292  -0.050855  -0.168466  -0.001600   0.002070
      7      -0.226763   0.097596  -0.371069   0.017200  -0.001157   0.002157
      8       0.000010  -0.000005   0.000018  -0.000001   0.000000  -0.000000
      9       0.285646   0.072770  -0.064222   0.233105   0.000310  -0.000276
     10       0.095215  -0.145895   0.188017  -0.082176  -0.000271   0.000381
     11      -0.000004   0.000007  -0.000010   0.000005   0.000000  -0.000000
     12      -0.285642   0.072778  -0.064129  -0.233134   0.000310   0.000276
     13       0.095220   0.145897  -0.187983  -0.082247   0.000271   0.000381
     14      -0.000005  -0.000007   0.000009   0.000003  -0.000000   0.000000
     15       0.029349  -0.128295  -0.050915   0.168449  -0.001599  -0.002070
     16      -0.226764  -0.097599   0.371069   0.017343   0.001156   0.002158
     17       0.000010   0.000004  -0.000018   0.000000  -0.000000  -0.000000
     18       0.000951   0.005618   0.001278   0.001195   0.000066   0.000110
     19       0.007780   0.001340  -0.004086  -0.001536   0.000003  -0.000021
     20      -0.000000  -0.000000   0.000000   0.000000  -0.000000  -0.000000
     21       0.009780  -0.001456   0.001763   0.001327   0.000018  -0.000002
     22      -0.008142  -0.004472  -0.000822   0.003449  -0.000027   0.000001
     23       0.000000   0.000000   0.000000  -0.000000   0.000000   0.000000
     24      -0.009781  -0.001456   0.001763  -0.001326   0.000018   0.000002
     25      -0.008142   0.004472   0.000821   0.003449   0.000027   0.000001
     26       0.000000  -0.000000  -0.000000  -0.000000  -0.000000   0.000000
     27      -0.000951   0.005618   0.001279  -0.001194   0.000066  -0.000110
     28       0.007780  -0.001340   0.004086  -0.001534  -0.000003  -0.000021
     29      -0.000000   0.000000  -0.000000   0.000000   0.000000  -0.000000
     30      -0.397274  -0.585304  -0.467738   0.347742   0.353084   0.356694
     31       0.420477   0.298012   0.054650  -0.357658   0.609475   0.607478
     32      -0.000017  -0.000017  -0.000006   0.000016  -0.000026  -0.000026
     33       0.397286  -0.585321  -0.467591  -0.347929   0.353228  -0.356514
     34       0.420464  -0.298000  -0.054482  -0.357665  -0.609763   0.607208
     35      -0.000014   0.000014   0.000003   0.000014   0.000028  -0.000028


-----------
IR SPECTRUM
-----------

 Mode   freq       eps      Int      T**2         TX        TY        TZ
       cm**-1   L/(mol*cm) km/mol    a.u.
----------------------------------------------------------------------------
  6:     86.59   0.000000    0.00  0.000000  (-0.000000  0.000000 -0.000000)
  7:    102.75   0.000104    0.53  0.000317  (-0.000000 -0.000002  0.017810)
  8:    210.53   0.000032    0.16  0.000048  ( 0.006902 -0.000000  0.000000)
  9:    215.51   0.000002    0.01  0.000003  (-0.000000  0.001637 -0.000000)
 10:    224.28   0.000002    0.01  0.000003  (-0.000000 -0.001827  0.000000)
 11:    247.60   0.000298    1.51  0.000376  (-0.000000  0.000007 -0.019387)
 12:    308.84   0.000000    0.00  0.000000  ( 0.000002 -0.000000  0.000000)
 13:    330.30   0.000001    0.01  0.000001  ( 0.000000 -0.001082  0.000000)
 14:    350.64   0.000021    0.11  0.000019  (-0.004310 -0.000000 -0.000000)
 15:    487.60   0.001008    5.09  0.000645  ( 0.025394 -0.000001  0.000000)
 16:    505.09   0.001749    8.84  0.001081  (-0.000000 -0.032873  0.000002)
 17:    522.65   0.000000    0.00  0.000000  ( 0.000006 -0.000001  0.000000)
 18:    569.98   0.000755    3.81  0.000413  ( 0.000000  0.000009 -0.020328)
 19:    599.90   0.006391   32.30  0.003325  (-0.057660  0.000001 -0.000000)
 20:    728.47   0.000000    0.00  0.000000  (-0.000001  0.000000 -0.000000)
 21:    771.71   0.009118   46.08  0.003687  (-0.060722  0.000002 -0.000000)
 22:    814.05   0.005813   29.37  0.002228  (-0.000000 -0.000000 -0.047204)
 23:    823.68   0.007922   40.04  0.003001  (-0.000002 -0.054785  0.000005)
 24:    941.50   0.000000    0.00  0.000000  ( 0.000001 -0.000000  0.000000)
 25:   1066.65   0.003126   15.80  0.000914  (-0.030240  0.000000 -0.000000)
 26:   1144.13   0.002547   12.87  0.000695  (-0.000001 -0.026358  0.000002)
 27:   1175.87   0.001886    9.53  0.000500  ( 0.000001 -0.022371  0.000001)
 28:   1188.14   0.013382   67.63  0.003515  ( 0.059286 -0.000000  0.000000)
 29:   1307.37   0.000007    0.03  0.000002  ( 0.000001 -0.001265  0.000000)
 30:   1369.84   0.011771   59.48  0.002682  ( 0.000001  0.051783 -0.000002)
 31:   1442.40   0.024403  123.32  0.005280  (-0.072661  0.000001 -0.000000)
 32:   1573.73   0.000207    1.05  0.000041  ( 0.006407 -0.000003  0.000000)
 33:   1580.07   0.001189    6.01  0.000235  ( 0.000002  0.015327 -0.000001)
 34:   3195.96   0.000000    0.00  0.000000  (-0.000078 -0.000000  0.000000)
 35:   3208.60   0.000010    0.05  0.000001  ( 0.000000  0.000988 -0.000000)

* The epsilon (eps) is given for a Dirac delta lineshape.
** The dipole moment derivative (T) already includes vibrational overlap.

The first frequency considered to be a vibration is 6
The total number of vibrations considered is 30


--------------------------
THERMOCHEMISTRY AT 298.15K
--------------------------

Temperature         ...   298.15 K
Pressure            ...     1.00 atm
Total Mass          ...   215.89 AMU
Quasi RRHO          ...     True
Cut-Off Frequency   ...     1.00 cm^-1

Throughout the following assumptions are being made:
  (1) The electronic state is orbitally nondegenerate
  (2) There are no thermally accessible electronically excited states
  (3) Hindered rotations indicated by low frequency modes are not
      treated as such but are treated as vibrations and this may
      cause some error
  (4) All equations used are the standard statistical mechanics
      equations for an ideal gas
  (5) All vibrations are strictly harmonic

freq.      86.59  E(vib)   ...       0.48 
freq.     102.75  E(vib)   ...       0.46 
freq.     210.53  E(vib)   ...       0.34 
freq.     215.51  E(vib)   ...       0.34 
freq.     224.28  E(vib)   ...       0.33 
freq.     247.60  E(vib)   ...       0.31 
freq.     308.84  E(vib)   ...       0.26 
freq.     330.30  E(vib)   ...       0.24 
freq.     350.64  E(vib)   ...       0.23 
freq.     487.60  E(vib)   ...       0.15 
freq.     505.09  E(vib)   ...       0.14 
freq.     522.65  E(vib)   ...       0.13 
freq.     569.98  E(vib)   ...       0.11 
freq.     599.90  E(vib)   ...       0.10 
freq.     728.47  E(vib)   ...       0.06 
freq.     771.71  E(vib)   ...       0.05 
freq.     814.05  E(vib)   ...       0.05 
freq.     823.68  E(vib)   ...       0.05 
freq.     941.50  E(vib)   ...       0.03 
freq.    1066.65  E(vib)   ...       0.02 
freq.    1144.13  E(vib)   ...       0.01 
freq.    1175.87  E(vib)   ...       0.01 
freq.    1188.14  E(vib)   ...       0.01 
freq.    1307.37  E(vib)   ...       0.01 
freq.    1369.84  E(vib)   ...       0.01 
freq.    1442.40  E(vib)   ...       0.00 
freq.    1573.73  E(vib)   ...       0.00 
freq.    1580.07  E(vib)   ...       0.00 
freq.    3195.96  E(vib)   ...       0.00 
freq.    3208.60  E(vib)   ...       0.00 

------------
INNER ENERGY
------------

The inner energy is: U= E(el) + E(ZPE) + E(vib) + E(rot) + E(trans)
    E(el)   - is the total energy from the electronic structure calculation
              = E(kin-el) + E(nuc-el) + E(el-el) + E(nuc-nuc)
    E(ZPE)  - the the zero temperature vibrational energy from the frequency calculation
    E(vib)  - the the finite temperature correction to E(ZPE) due to population
              of excited vibrational states
    E(rot)  - is the rotational thermal energy
    E(trans)- is the translational thermal energy

Summary of contributions to the inner energy U:
Electronic energy                ...  -2070.53379814 Eh
Zero point energy                ...      0.06172558 Eh      38.73 kcal/mol
Thermal vibrational correction   ...      0.00623660 Eh       3.91 kcal/mol
Thermal rotational correction    ...      0.00141627 Eh       0.89 kcal/mol
Thermal translational correction ...      0.00141627 Eh       0.89 kcal/mol
-----------------------------------------------------------------------
Total thermal energy                  -2070.46300342 Eh


Summary of corrections to the electronic energy:
(perhaps to be used in another calculation)
Total thermal correction                  0.00906914 Eh       5.69 kcal/mol
Non-thermal (ZPE) correction              0.06172558 Eh      38.73 kcal/mol
-----------------------------------------------------------------------
Total correction                          0.07079472 Eh      44.42 kcal/mol


--------
ENTHALPY
--------

The enthalpy is H = U + kB*T
                kB is Boltzmann's constant
Total thermal energy              ...  -2070.46300342 Eh 
Thermal Enthalpy correction       ...      0.00094421 Eh       0.59 kcal/mol
-----------------------------------------------------------------------
Total Enthalpy                    ...  -2070.46205921 Eh


Note: Rotational entropy computed according to Herzberg 
Infrared and Raman Spectra, Chapter V,1, Van Nostrand Reinhold, 1945 
Point Group:  C2v, Symmetry Number:   2  
Rotational constants in cm-1:     0.038182     0.017910     0.012191 

Vibrational entropy computed according to the QRRHO of S. Grimme
Chem.Eur.J. 2012 18 9955 using a reference frequency of 100.0 cm-1


-------
ENTROPY
-------

The entropy contributions are T*S = T*(S(el)+S(vib)+S(rot)+S(trans))
     S(el)   - electronic entropy
     S(vib)  - vibrational entropy
     S(rot)  - rotational entropy
     S(trans)- translational entropy
The entropies will be listed as multiplied by the temperature to get
units of energy

Electronic entropy                ...      0.00000000 Eh      0.00 kcal/mol
Vibrational entropy               ...      0.01050960 Eh      6.59 kcal/mol
Rotational entropy                ...      0.01437737 Eh      9.02 kcal/mol
Translational entropy             ...      0.01996123 Eh     12.53 kcal/mol
-----------------------------------------------------------------------
Final entropy term                ...      0.04484820 Eh     28.14 kcal/mol

In case the symmetry of your molecule has not been determined correctly
or in case you have a reason to use a different symmetry number we print 
out the resulting rotational entropy values for sn=1,12:

 non-linear molecules -----------------------------------
|  sn= 1 | S(rot)=       0.01503182 Eh      9.43 kcal/mol|
|  sn= 2 | S(rot)=       0.01437737 Eh      9.02 kcal/mol|
|  sn= 3 | S(rot)=       0.01399454 Eh      8.78 kcal/mol|
|  sn= 4 | S(rot)=       0.01372291 Eh      8.61 kcal/mol|
|  sn= 5 | S(rot)=       0.01351222 Eh      8.48 kcal/mol|
|  sn= 6 | S(rot)=       0.01334008 Eh      8.37 kcal/mol|
|  sn= 7 | S(rot)=       0.01319453 Eh      8.28 kcal/mol|
|  sn= 8 | S(rot)=       0.01306846 Eh      8.20 kcal/mol|
|  sn= 9 | S(rot)=       0.01295725 Eh      8.13 kcal/mol|
|  sn=10 | S(rot)=       0.01285777 Eh      8.07 kcal/mol|
|  sn=11 | S(rot)=       0.01276778 Eh      8.01 kcal/mol|
|  sn=12 | S(rot)=       0.01268562 Eh      7.96 kcal/mol|
 linear molecules ---------------------------------------
|  Dinfh | S(rot)=       0.00948684 Eh      5.95 kcal/mol|
|  Cinfv | S(rot)=       0.01014130 Eh      6.36 kcal/mol|
 --------------------------------------------------------


-------------------
GIBBS FREE ENERGY
-------------------

The Gibbs free energy is G = H - T*S

Total enthalpy                    ...  -2070.46205921 Eh 
Total entropy correction          ...     -0.04484820 Eh    -28.14 kcal/mol
-----------------------------------------------------------------------
Final Gibbs free energy         ...  -2070.50690741 Eh

For completeness - the Gibbs free energy minus the electronic energy
G-E(el)                           ...      0.02689073 Eh     16.87 kcal/mol


Maximum memory used throughout the entire PROP-calculation: 68.6 MB

--------------------------------
SUGGESTED CITATIONS FOR THIS RUN
--------------------------------

Below you find a list of papers that are relevant to this ORCA run
We neither can nor want to force you to cite these papers, but we appreciate if you do
You receive ORCA, which is the product of decades of hard work by many enthusiastic individuals, for free
The only thing we kindly ask in return is that you cite our papers,
We deeply appreciate it, if you show your appreciation for ORCA by not just citing the generic ORCA reference.

Please note that relegating all ORCA citations to the supporting information does *not* help us.
SI sections are not indexed - citations you put there will not count into any citation statistics
But we need these citations in order to attract the funding resources that allow us to do what we are doing

Therefore, if you are a happy ORCA user, please consider citing a few of the papers listed below in the main body of your paper

In addition to the list printed below, the program has created the file vacuum_censo.bibtex that contains the list in bibtex format
You can import this file easily into all common literature databanks and citation aid programs


List of essential papers. We consider these as the minimum necessary citations

  1. Neese,F.
     Software update: the ORCA program system, version 5.0
     WIRES Comput. Molec. Sci., 2022 12(1)e1606
     doi.org/10.1002/wcms.1606
  2. Grimme,S.; Hansen,A.; Ehlert,S.; Mewes,J.
     r2SCAN-3c: A 'Swiss army knife' composite electronic-structure method
     J. Chem. Phys., 2021 154 064103
     doi.org/10.1063/5.0040021

List of papers to cite with high priority. The work reported in these papers was absolutely
necessary for this run to complete.
Our perspective: the developers of density functionals and basis sets usually get cited in chemistry papers
Good! But without the algorithms to do something with them, the functionals or basis sets would not do anything.
Hence, in our opinion, the algorithm design and method developments papers are equally worthy of getting cited

  1. Neese,F.
     An improvement of the resolution of the identity approximation for the formation of the Coulomb matrix
     J. Comp. Chem., 2003 24(14)1740-1747
     doi.org/10.1002/jcc.10318
  2. Bykov,D.; Petrenko,T.; Izsak,R.; Kossmann,S.; Becker,U.; Valeev,E.; Neese,F.
     Efficient implementation of the analytic second derivatives of Hartree-Fock and hybrid DFT energies: a detailed analysis of different approximations
     Molec. Phys., 2015 113 1961-1977
     doi.org/10.1080/00268976.2015.1025114
  3. Neese,F.
     The SHARK Integral Generation and Digestion System
     J. Comp. Chem., 2022  1-16
     doi.org/10.1002/jcc.26942
  4. Lehtola,S.; Steigemann,C.; Oliveira,M.; Marques,M.
     Recent developments in Libxc - A comprehensive library of functionals for density functional theory
     Software X, 2018 7 
     doi.org/10.1016/j.softx.2017.11.002
  5. Caldeweyher,E.; Bannwarth,C.; Grimme,S.
     Extension of the D3 dispersion coefficient model
     J. Chem. Phys., 2017 147 034112-XXXX
     doi.org/10.1063/1.4993215
  6. Caldeweyher,E.; Ehlert,S.; Hansen,A.; Neugebauer,H.; Spicher,S.; Bannwarth,C.; Grimme,S.
     A generally applicable atomic-charge dependent London dispersion correction
     J. Chem. Phys., 2019 150 154122-XXXX
     doi.org/10.1063/1.5090222
  7. Caldeweyher,E.; Mewes,J.; Ehlert,S.; Grimme,S.
     Extension and evaluation of the D4 London-dispersion model for periodic systems
     Phys. Chem. Chem. Phys., 2020 22(16)8499-8512
     doi.org/10.1039/D0CP00502A

List of suggested additional citations. These are papers that are important in the 'surrounding' of 
of this run, or papers that preceded the highly important papers. If you like your results we are grateful for a citation.

  1. Neese,F.
     The ORCA program system
     WIRES Comput. Molec. Sci., 2012 2(1)73-78
     doi.org/10.1002/wcms.81
  2. Neese,F.
     Software update: the ORCA program system, version 4.0
     WIRES Comput. Molec. Sci., 2018 8(1)1-6
     doi.org/10.1002/wcms.1327
  3. Neese,F.; Wennmohs,F.; Becker,U.; Riplinger,C.
     The ORCA quantum chemistry program package
     J. Chem. Phys., 2020 152 Art. No. L224108
     doi.org/10.1063/5.0004608

List of optional additional citations

  1. Neese,F.
     Approximate second-order SCF convergence for spin unrestricted wavefunctions
     Chem. Phys. Lett., 2000 325(1-3)93-98
     doi.org/10.1016/s0009-2614(00)00662-x

Timings for individual modules:

Sum of individual times          ...      642.572 sec (=  10.710 min)
Startup calculation              ...        1.281 sec (=   0.021 min)   0.2 %
SCF iterations                   ...       37.012 sec (=   0.617 min)   5.8 %
Property integrals               ...      359.473 sec (=   5.991 min)  55.9 %
SCF Response                     ...      131.791 sec (=   2.197 min)  20.5 %
Property calculations            ...      113.014 sec (=   1.884 min)  17.6 %
                             ****ORCA TERMINATED NORMALLY****
TOTAL RUN TIME: 0 days 0 hours 10 minutes 43 seconds 239 msec
