      -----------------------------------------------------------      
     |                   =====================                   |     
     |                           x T B                           |     
     |                   =====================                   |     
     |                         S. Grimme                         |     
     |          Mulliken Center for Theoretical Chemistry        |     
     |                    University of Bonn                     |     
      -----------------------------------------------------------      

   * xtb version 6.7.1 (edcfbbe) compiled by 'albert@albert-system' on 2024-07-22

   xtb is free software: you can redistribute it and/or modify it under
   the terms of the GNU Lesser General Public License as published by
   the Free Software Foundation, either version 3 of the License, or
   (at your option) any later version.
   
   xtb is distributed in the hope that it will be useful,
   but WITHOUT ANY WARRANTY; without even the implied warranty of
   MERCHANTABILITY or FITNESS FOR A PARTICULAR PURPOSE.  See the
   GNU Lesser General Public License for more details.
   
   Cite this work as:
   * C. Bannwarth, E. Caldeweyher, S. Ehlert, A. Hansen, P. Pracht,
     J. Seibert, S. Spicher, S. Grimme, WIREs Comput. Mol. Sci., 2020, 11,
     e01493. DOI: 10.1002/wcms.1493
   
   for GFN2-xTB:
   * C. Bannwarth, S. Ehlert and S. Grimme., J. Chem. Theory Comput., 2019,
     15, 1652-1671. DOI: 10.1021/acs.jctc.8b01176
   for GFN1-xTB:
   * S. Grimme, C. Bannwarth, P. Shushkov, J. Chem. Theory Comput., 2017,
     13, 1989-2009. DOI: 10.1021/acs.jctc.7b00118
   for GFN0-xTB:
   * P. Pracht, E. Caldeweyher, S. Ehlert, S. Grimme, ChemRxiv, 2019, preprint.
     DOI: 10.26434/chemrxiv.8326202.v1
   for GFN-FF:
   * S. Spicher and S. Grimme, Angew. Chem. Int. Ed., 2020, 59, 15665-15673.
     DOI: 10.1002/anie.202004239
   
   for ALPB and GBSA implicit solvation:
   * S. Ehlert, M. Stahn, S. Spicher, S. Grimme, J. Chem. Theory Comput.,
     2021, 17, 4250-4261. DOI: 10.1021/acs.jctc.1c00471
   
   for ddCOSMO and CPCM-X implicit solvation:
   * M. Stahn, S. Ehlert, S. Grimme, J. Phys. Chem. A,
     2023, XX, XXXX-XXXX. DOI: 10.1021/acs.jpca.3c04382
   
   for DFT-D4:
   * E. Caldeweyher, C. Bannwarth and S. Grimme, J. Chem. Phys., 2017,
     147, 034112. DOI: 10.1063/1.4993215
   * E. Caldeweyher, S. Ehlert, A. Hansen, H. Neugebauer, S. Spicher,
     C. Bannwarth and S. Grimme, J. Chem. Phys., 2019, 150, 154122.
     DOI: 10.1063/1.5090222
   * E. Caldeweyher, J.-M. Mewes, S. Ehlert and S. Grimme, Phys. Chem. Chem. Phys.
     2020, 22, 8499-8512. DOI: 10.1039/D0CP00502A
   
   for sTDA-xTB:
   * S. Grimme and C. Bannwarth, J. Chem. Phys., 2016, 145, 054103.
     DOI: 10.1063/1.4959605
   
   in the mass-spec context:
   * V. Asgeirsson, C. Bauer and S. Grimme, Chem. Sci., 2017, 8, 4879.
     DOI: 10.1039/c7sc00601b
   * J. Koopman and S. Grimme, ACS Omega 2019, 4, 12, 15120-15133.
     DOI: 10.1021/acsomega.9b02011
   
   for metadynamics refer to:
   * S. Grimme, J. Chem. Theory Comput., 2019, 155, 2847-2862
     DOI: 10.1021/acs.jctc.9b00143
   
   for SPH calculations refer to:
   * S. Spicher and S. Grimme, J. Chem. Theory Comput., 2021, 17, 1701-1714
     DOI: 10.1021/acs.jctc.0c01306
   
   for ONIOM refer to:
   * C. Plett, A. Katbashev, S. Ehlert, S. Grimme, M. Bursch,
     Phys. Chem. Chem. Phys., 2023, 25, 17860-17868. DOI: 10.1039/D3CP02178E
   
   for DIPRO refer to:
   * J. Kohn, N. Gildemeister, S. Grimme, D. Fazzi, A. Hansen,
     J. Chem. Phys., 2023, just accepted.
   
   for PTB refer to:
   * S. Grimme, M. Mueller, A. Hansen, J. Chem. Phys., 2023, 158, 124111.
     DOI: 10.1063/5.0137838
   
   with help from (in alphabetical order)
   P. Atkinson, C. Bannwarth, F. Bohle, G. Brandenburg, E. Caldeweyher
   M. Checinski, S. Dohm, S. Ehlert, S. Ehrlich, I. Gerasimov, C. Hölzer
   A. Katbashev, J. Kohn, J. Koopman, C. Lavigne, S. Lehtola, F. März, M. Müller,
   F. Musil, H. Neugebauer, J. Pisarek, C. Plett, P. Pracht, F. Pultar,
   J. Seibert, P. Shushkov, S. Spicher, M. Stahn, M. Steiner, T. Strunk,
   J. Stückrath, T. Rose, and J. Unsleber
   
 * started run on 2025/04/15 at 20:27:29.891     
   ID    Z sym.   atoms
    1    6 C      1-4, 6, 8-12
    2    8 O      5
    3    1 H      7, 13-27

           -------------------------------------------------
          |                Calculation Setup                |
           -------------------------------------------------

          program call               : /software/projects/pawsey0265/mwang1/xtb/bin/xtb xtb_rrho.coord --gfn2 --bhess vtight --chrg 0 --enso --norestart -I rrho-xcontrol-inp --parallel 1
          hostname                   : nid002027
          coordinate file            : xtb_rrho.coord
          omp threads                :                     1


           -------------------------------------------------
          |                 G F N 2 - x T B                 |
           -------------------------------------------------

        Reference                      10.1021/acs.jctc.8b01176
      * Hamiltonian:
        H0-scaling (s, p, d)           1.850000    2.230000    2.230000
        zeta-weighting                 0.500000
      * Dispersion:
        s8                             2.700000
        a1                             0.520000
        a2                             5.000000
        s9                             5.000000
      * Repulsion:
        kExp                           1.500000    1.000000
        rExp                           1.000000
      * Coulomb:
        alpha                          2.000000
        third order                    shell-resolved
        anisotropic                    true
        a3                             3.000000
        a5                             4.000000
        cn-shift                       1.200000
        cn-exp                         4.000000
        max-rad                        5.000000


          ...................................................
          :                      SETUP                      :
          :.................................................:
          :  # basis functions                  60          :
          :  # atomic orbitals                  60          :
          :  # shells                           38          :
          :  # electrons                        62          :
          :  max. iterations                   250          :
          :  Hamiltonian                  GFN2-xTB          :
          :  restarted?                      false          :
          :  GBSA solvation                  false          :
          :  PC potential                    false          :
          :  electronic temp.          300.0000000     K    :
          :  accuracy                    1.0000000          :
          :  -> integral cutoff          0.2500000E+02      :
          :  -> integral neglect         0.1000000E-07      :
          :  -> SCF convergence          0.1000000E-05 Eh   :
          :  -> wf. convergence          0.1000000E-03 e    :
          :  Broyden damping             0.4000000          :
          :  net charge                          0          :
          :  unpaired electrons                  0          :
          ...................................................

 iter      E             dE          RMSdq      gap      omega  full diag
   1    -34.0149138 -0.340149E+02  0.357E+00    3.57       0.0  T
   2    -34.0779603 -0.630465E-01  0.201E+00    2.56       1.0  T
   3    -34.0842003 -0.624001E-02  0.140E+00    3.17       1.0  T
   4    -34.0988198 -0.146195E-01  0.478E-01    2.87       1.0  T
   5    -34.1011658 -0.234600E-02  0.143E-01    2.87       1.0  T
   6    -34.1015924 -0.426607E-03  0.537E-02    2.88       1.0  T
   7    -34.1016036 -0.112411E-04  0.195E-02    2.88       1.0  T
   8    -34.1016044 -0.758976E-06  0.508E-03    2.88       3.8  T
   9    -34.1016045 -0.147387E-06  0.169E-03    2.88      11.4  T
  10    -34.1016045 -0.447171E-08  0.841E-04    2.88      22.9  T
  11    -34.1016045 -0.285926E-08  0.172E-04    2.88     112.1  T

   *** convergence criteria satisfied after 11 iterations ***

         #    Occupation            Energy/Eh            Energy/eV
      -------------------------------------------------------------
         1        2.0000           -0.6889658             -18.7477
       ...           ...                  ...                  ...
        25        2.0000           -0.4448759             -12.1057
        26        2.0000           -0.4382750             -11.9261
        27        2.0000           -0.4324073             -11.7664
        28        2.0000           -0.4255108             -11.5787
        29        2.0000           -0.4176674             -11.3653
        30        2.0000           -0.4050172             -11.0211
        31        2.0000           -0.3765678             -10.2469 (HOMO)
        32                         -0.2707890              -7.3685 (LUMO)
        33                         -0.1661447              -4.5210
        34                          0.0402040               1.0940
        35                          0.0528942               1.4393
        36                          0.0707252               1.9245
       ...                                ...                  ...
        60                          0.6660986              18.1255
      -------------------------------------------------------------
                  HL-Gap            0.1057788 Eh            2.8784 eV
             Fermi-level           -0.3236784 Eh           -8.8077 eV

 SCC (total)                   0 d,  0 h,  0 min,  0.037 sec
 SCC setup                      ...        0 min,  0.000 sec (  0.986%)
 Dispersion                     ...        0 min,  0.000 sec (  0.790%)
 classical contributions        ...        0 min,  0.000 sec (  0.192%)
 integral evaluation            ...        0 min,  0.004 sec ( 11.789%)
 iterations                     ...        0 min,  0.020 sec ( 52.571%)
 molecular gradient             ...        0 min,  0.012 sec ( 33.166%)
 printout                       ...        0 min,  0.000 sec (  0.433%)

         :::::::::::::::::::::::::::::::::::::::::::::::::::::
         ::                     SUMMARY                     ::
         :::::::::::::::::::::::::::::::::::::::::::::::::::::
         :: total energy             -33.633780283439 Eh    ::
         :: gradient norm              0.030645270822 Eh/a0 ::
         :: HOMO-LUMO gap              2.878386693280 eV    ::
         ::.................................................::
         :: SCC energy               -34.101507506946 Eh    ::
         :: -> isotropic ES            0.032167979301 Eh    ::
         :: -> anisotropic ES          0.005681210935 Eh    ::
         :: -> anisotropic XC          0.016599909064 Eh    ::
         :: -> dispersion             -0.021535820993 Eh    ::
         :: repulsion energy           0.467727223507 Eh    ::
         :: add. restraining           0.000000000000 Eh    ::
         :: total charge              -0.000000000000 e     ::
         :::::::::::::::::::::::::::::::::::::::::::::::::::::

metadynamics with 1 initial structures loaded
           -------------------------------------------------
          |           Optimal kpush determination           |
           -------------------------------------------------
      ----------------------------------------------------------- 
     |                   =====================                   |
     |                        A N C O P T                        |
     |                   =====================                   |
     |               Approximate Normal Coordinate               |
     |                Rational Function Optimizer                |
      ----------------------------------------------------------- 
target rmsd / Å         0.100000
unbiased initial rmsd   0.040805
 
iter. min.        max.        rmsd       kpush
final kpush:  0.000000
           -------------------------------------------------
          |            Biased Numerical Hessian             |
           -------------------------------------------------
kpush                :   0.00000
alpha                :   1.00000
step length          :   0.00500
SCC accuracy         :   0.30000
Hessian scale factor :   1.00000
frozen atoms in %    :   0.00000    0
RMS gradient         :   0.00005
estimated CPU  time      0.06 min
estimated wall time      0.06 min

writing file <hessian>.

 projected vibrational frequencies (cm⁻¹)
eigval :       -0.00    -0.00    -0.00     0.00     0.00     0.00
eigval :       42.25    72.79   115.23   147.52   171.11   188.82
eigval :      228.23   261.13   287.77   291.97   329.27   379.68
eigval :      409.90   435.52   466.74   489.99   533.72   634.32
eigval :      659.65   788.81   812.96   878.55   907.51   932.35
eigval :      947.45   980.13   987.04  1010.13  1011.68  1019.05
eigval :     1064.81  1104.83  1122.38  1138.76  1167.26  1172.94
eigval :     1187.51  1192.98  1214.02  1257.22  1275.23  1290.43
eigval :     1312.11  1332.36  1350.39  1360.25  1397.68  1407.30
eigval :     1420.90  1460.38  1471.62  1474.12  1486.33  1495.59
eigval :     1505.44  1508.51  1522.35  1682.52  1722.65  2889.62
eigval :     2920.44  2942.01  2969.99  2974.29  2998.98  3004.40
eigval :     3014.96  3016.25  3022.46  3030.63  3036.80  3044.08
eigval :     3052.89  3067.13  3074.46
           -------------------------------------------------
          |                Property Printout                |
           -------------------------------------------------

    * Orbital Energies and Occupations

         #    Occupation            Energy/Eh            Energy/eV
      -------------------------------------------------------------
         1        2.0000           -0.6920998             -18.8330
       ...           ...                  ...                  ...
        19        2.0000           -0.4822890             -13.1238
        20        2.0000           -0.4769784             -12.9792
        21        2.0000           -0.4746155             -12.9149
        22        2.0000           -0.4685303             -12.7494
        23        2.0000           -0.4587529             -12.4833
        24        2.0000           -0.4565509             -12.4234
        25        2.0000           -0.4454353             -12.1209
        26        2.0000           -0.4383594             -11.9284
        27        2.0000           -0.4317396             -11.7482
        28        2.0000           -0.4243845             -11.5481
        29        2.0000           -0.4182636             -11.3815
        30        2.0000           -0.4062083             -11.0535
        31        2.0000           -0.3757965             -10.2259 (HOMO)
        32                         -0.2691038              -7.3227 (LUMO)
        33                         -0.1628012              -4.4300
        34                          0.0498972               1.3578
        35                          0.0609313               1.6580
        36                          0.0811798               2.2090
        37                          0.0952958               2.5931
        38                          0.1057940               2.8788
        39                          0.1208134               3.2875
        40                          0.1267777               3.4498
        41                          0.1428333               3.8867
        42                          0.1565929               4.2611
       ...                                ...                  ...
        60                          0.6963703              18.9492
      -------------------------------------------------------------
                  HL-Gap            0.1066927 Eh            2.9033 eV
             Fermi-level           -0.3224501 Eh           -8.7743 eV

     #   Z          covCN         q      C6AA      α(0)
     1   6 C        3.758    -0.115    22.743     6.799
     2   6 C        2.945     0.033    27.257     8.563
     3   6 C        2.901    -0.082    30.053     8.989
     4   6 C        2.824     0.232    23.135     7.881
     5   8 O        0.858    -0.379    21.265     6.183
     6   6 C        3.858    -0.048    21.393     6.578
     7   1 H        0.923     0.050     2.321     2.383
     8   6 C        3.809    -0.060    21.638     6.621
     9   6 C        3.812    -0.065    21.742     6.637
    10   6 C        3.850    -0.008    20.681     6.468
    11   6 C        3.757    -0.108    22.611     6.780
    12   6 C        3.755    -0.107    22.605     6.779
    13   1 H        0.925     0.055     2.261     2.351
    14   1 H        0.925     0.057     2.233     2.337
    15   1 H        0.925     0.051     2.306     2.375
    16   1 H        0.925     0.053     2.288     2.366
    17   1 H        0.924     0.036     2.504     2.474
    18   1 H        0.925     0.046     2.372     2.409
    19   1 H        0.924     0.047     2.358     2.402
    20   1 H        0.924     0.052     2.296     2.369
    21   1 H        0.924     0.040     2.444     2.445
    22   1 H        0.925     0.034     2.531     2.488
    23   1 H        0.925     0.027     2.625     2.534
    24   1 H        0.925     0.055     2.253     2.347
    25   1 H        0.925     0.032     2.555     2.500
    26   1 H        0.925     0.039     2.465     2.455
    27   1 H        0.925     0.031     2.572     2.508

 Mol. C6AA /au·bohr⁶  :       6007.328970
 Mol. C8AA /au·bohr⁸  :     133797.998311
 Mol. α(0) /au        :        117.019122


Wiberg/Mayer (AO) data.
largest (>0.10) Wiberg bond orders for each atom

 ---------------------------------------------------------------------------
     #   Z sym  total        # sym  WBO       # sym  WBO       # sym  WBO
 ---------------------------------------------------------------------------
     1   6 C    3.995 --     2 C    1.036    15 H    0.984    13 H    0.967
                            14 H    0.963
     2   6 C    3.983 --     3 C    1.786     1 C    1.036     9 C    1.020
     3   6 C    3.986 --     2 C    1.786     4 C    1.070    16 H    0.961
     4   6 C    3.927 --     5 O    1.799     3 C    1.070     6 C    0.967
     5   8 O    2.050 --     4 C    1.799
     6   6 C    3.994 --     8 C    0.986    10 C    0.982     4 C    0.967
                             7 H    0.940
     7   1 H    0.998 --     6 C    0.940
     8   6 C    3.996 --     9 C    1.004     6 C    0.986    17 H    0.978
                            18 H    0.972
     9   6 C    3.998 --     2 C    1.020     8 C    1.004    19 H    0.966
                            20 H    0.949
    10   6 C    3.994 --    11 C    1.009    12 C    1.009     6 C    0.982
                            21 H    0.968
    11   6 C    3.995 --    10 C    1.009    23 H    0.987    22 H    0.986
                            24 H    0.982
    12   6 C    3.997 --    10 C    1.009    25 H    0.987    27 H    0.985
                            26 H    0.985
    13   1 H    0.994 --     1 C    0.967
    14   1 H    0.993 --     1 C    0.963
    15   1 H    0.997 --     1 C    0.984
    16   1 H    0.997 --     3 C    0.961
    17   1 H    0.999 --     8 C    0.978
    18   1 H    0.998 --     8 C    0.972
    19   1 H    0.997 --     9 C    0.966
    20   1 H    0.997 --     9 C    0.949
    21   1 H    0.998 --    10 C    0.968
    22   1 H    0.998 --    11 C    0.986
    23   1 H    0.999 --    11 C    0.987
    24   1 H    0.997 --    11 C    0.982
    25   1 H    0.999 --    12 C    0.987
    26   1 H    0.998 --    12 C    0.985
    27   1 H    0.999 --    12 C    0.985
 ---------------------------------------------------------------------------

Topologies differ in total number of bonds
Writing topology from bond orders to xtbtopo.mol

molecular dipole:
                 x           y           z       tot (Debye)
 q only:        0.828      -1.299       0.270
   full:        0.976      -1.503       0.299       4.618
molecular quadrupole (traceless):
                xx          xy          yy          xz          yz          zz
 q only:        7.053       0.611      -6.424      -0.562       1.036      -0.629
  q+dip:        6.829       1.225      -6.309      -0.604       2.001      -0.520
   full:        6.724       1.307      -7.360      -0.556       2.222       0.636

           -------------------------------------------------
          |                Geometry Summary                 |
           -------------------------------------------------

      molecular mass/u    :      152.2338159
   center of mass at/Å    :        0.0000188      -0.0002002      -0.0005425
  moments of inertia/u·Å² :        0.2454153E+03   0.6982554E+03   0.8835164E+03
rotational constants/cm⁻¹ :        0.6869021E-01   0.2414250E-01   0.1908016E-01

 * 22 selected distances

     #   Z          #   Z                                           value/Å
     2   6 C        3   6 C                                       1.3357961
     4   6 C        5   8 O                                       1.2130873
     6   6 C        7   1 H                                       1.0987266
     6   6 C        8   6 C                                       1.5315788 (max)
     8   6 C        9   6 C                                       1.5259615
    10   6 C       11   6 C                                       1.5291886
    10   6 C       12   6 C                                       1.5279107
     1   6 C       13   1 H                                       1.0895369
     1   6 C       14   1 H                                       1.0901224
     1   6 C       15   1 H                                       1.0864196
     3   6 C       16   1 H                                       1.0814731 (min)
     8   6 C       17   1 H                                       1.0927690
     8   6 C       18   1 H                                       1.0894842
     9   6 C       19   1 H                                       1.0927610
     9   6 C       20   1 H                                       1.0963823
    10   6 C       21   1 H                                       1.0951581
    11   6 C       22   1 H                                       1.0875672
    11   6 C       23   1 H                                       1.0890485
    11   6 C       24   1 H                                       1.0854813
    12   6 C       25   1 H                                       1.0885761
    12   6 C       26   1 H                                       1.0877152
    12   6 C       27   1 H                                       1.0868353

 * 3 distinct bonds (by element types)

   Z      Z             #   av. dist./Å        max./Å        min./Å
   1 H    6 C          16     1.0898786     1.0987266     1.0814731
   6 C    6 C           5     1.4900872     1.5315788     1.3357961
   6 C    8 O           1     1.2130873     1.2130873     1.2130873

           -------------------------------------------------
          |               Frequency Printout                |
           -------------------------------------------------
 projected vibrational frequencies (cm⁻¹)
eigval :       -0.00    -0.00    -0.00     0.00     0.00     0.00
eigval :       42.25    72.79   115.23   147.52   171.11   188.82
eigval :      228.23   261.13   287.77   291.97   329.27   379.68
eigval :      409.90   435.52   466.74   489.99   533.72   634.32
eigval :      659.65   788.81   812.96   878.55   907.51   932.35
eigval :      947.45   980.13   987.04  1010.13  1011.68  1019.05
eigval :     1064.81  1104.83  1122.38  1138.76  1167.26  1172.94
eigval :     1187.51  1192.98  1214.02  1257.22  1275.23  1290.43
eigval :     1312.11  1332.36  1350.39  1360.25  1397.68  1407.30
eigval :     1420.90  1460.38  1471.62  1474.12  1486.33  1495.59
eigval :     1505.44  1508.51  1522.35  1682.52  1722.65  2889.62
eigval :     2920.44  2942.01  2969.99  2974.29  2998.98  3004.40
eigval :     3014.96  3016.25  3022.46  3030.63  3036.80  3044.08
eigval :     3052.89  3067.13  3074.46
 reduced masses (amu)
   1: 11.30   2: 11.62   3: 11.06   4: 10.97   5: 10.27   6:  9.73   7:  9.61   8:  9.55
   9:  4.27  10:  7.98  11:  8.55  12:  8.57  13:  1.36  14:  3.90  15: 10.26  16:  8.76
  17:  8.15  18:  9.38  19:  8.50  20:  8.30  21:  8.80  22: 10.74  23: 10.57  24: 10.23
  25: 10.12  26:  8.63  27:  5.34  28:  5.04  29:  8.21  30:  7.33  31:  2.64  32:  4.53
  33:  4.31  34:  6.13  35:  5.57  36:  4.45  37:  8.32  38:  5.76  39:  5.97  40:  6.83
  41:  6.78  42:  7.20  43:  7.64  44:  7.09  45:  4.09  46:  5.25  47:  4.02  48:  5.08
  49:  4.85  50:  4.63  51:  6.40  52:  6.37  53:  3.38  54:  3.21  55:  3.06  56:  1.91
  57:  1.65  58:  1.69  59:  1.91  60:  1.62  61:  1.55  62:  1.60  63:  1.55  64: 11.58
  65: 13.35  66:  1.73  67:  1.81  68:  1.75  69:  1.62  70:  1.84  71:  1.90  72:  1.66
  73:  1.78  74:  1.52  75:  1.80  76:  1.85  77:  1.75  78:  1.43  79:  1.71  80:  1.68
  81:  1.82
 IR intensities (km·mol⁻¹)
   1:  0.57   2:  0.18   3:  1.51   4:  0.33   5:  1.01   6:  0.30   7:  0.62   8:  1.33
   9:  0.12  10:  2.09  11:  1.31  12:  1.05  13:  0.04  14:  0.37  15:  4.91  16:  1.77
  17:  0.23  18:  0.12  19:  1.86  20:  1.90  21:  1.02  22:  0.60  23:  8.11  24:  6.64
  25:  4.63  26:  8.57  27:  9.05  28: 12.23  29:  7.55  30:  1.20  31:  2.24  32:  0.45
  33:  1.52  34: 10.83  35: 13.94  36: 20.43  37:  0.79  38:  5.31  39: 15.85  40:  1.75
  41:  2.98  42: 17.84  43: 87.12  44: 31.04  45:  0.68  46: 15.45  47:  4.89  48: 14.26
  49:  2.24  50:  1.66  51: 25.38  52:  3.05  53: 17.14  54:  5.21  55:  4.43  56:  7.31
  57:  8.51  58: 10.65  59:  1.72  60:  0.20  61:  2.58  62:  2.22  63:  3.62  64:279.22
  65:251.52  66: 21.65  67: 19.74  68: 24.36  69: 33.09  70: 44.68  71: 21.71  72: 32.38
  73: 17.44  74: 22.99  75: 76.85  76: 12.00  77: 79.75  78: 38.01  79: 18.35  80: 12.18
  81: 32.56
 Raman intensities (Ä⁴*amu⁻¹)
   1:  0.00   2:  0.00   3:  0.00   4:  0.00   5:  0.00   6:  0.00   7:  0.00   8:  0.00
   9:  0.00  10:  0.00  11:  0.00  12:  0.00  13:  0.00  14:  0.00  15:  0.00  16:  0.00
  17:  0.00  18:  0.00  19:  0.00  20:  0.00  21:  0.00  22:  0.00  23:  0.00  24:  0.00
  25:  0.00  26:  0.00  27:  0.00  28:  0.00  29:  0.00  30:  0.00  31:  0.00  32:  0.00
  33:  0.00  34:  0.00  35:  0.00  36:  0.00  37:  0.00  38:  0.00  39:  0.00  40:  0.00
  41:  0.00  42:  0.00  43:  0.00  44:  0.00  45:  0.00  46:  0.00  47:  0.00  48:  0.00
  49:  0.00  50:  0.00  51:  0.00  52:  0.00  53:  0.00  54:  0.00  55:  0.00  56:  0.00
  57:  0.00  58:  0.00  59:  0.00  60:  0.00  61:  0.00  62:  0.00  63:  0.00  64:  0.00
  65:  0.00  66:  0.00  67:  0.00  68:  0.00  69:  0.00  70:  0.00  71:  0.00  72:  0.00
  73:  0.00  74:  0.00  75:  0.00  76:  0.00  77:  0.00  78:  0.00  79:  0.00  80:  0.00
  81:  0.00
 output can be read by thermo (or use thermo option).
 writing <g98.out> molden fake output.
 recommended (thermochemical) frequency scaling factor: 1.0
           -------------------------------------------------
          |             Thermodynamic Functions             |
           -------------------------------------------------

Molecule has no symmetry elements
It seems to be the C1 point group
c1  symmetry found (for desy threshold:  0.10E+00) used in thermo

          ...................................................
          :                      SETUP                      :
          :.................................................:
          :  # frequencies                          75      :
          :  # imaginary freq.                       0      :
          :  linear?                             false      :
          :  only rotor calc.                    false      :
          :  symmetry                               c1      :
          :  rotational number                       1      :
          :  scaling factor                  1.0000000      :
          :  rotor cutoff                    0.0000000 cm⁻¹ :
          :  imag. cutoff                 -100.0000000 cm⁻¹ :
          :.................................................:

    mode    ω/cm⁻¹     T·S(HO)/kcal·mol⁻¹    T·S(FR)/kcal·mol⁻¹   T·S(vib)
   ------------------------------------------------------------------------
       1     42.25    -1.53570 (100.00%)    -1.10626 (  0.00%)    -1.53570
       2     72.79    -1.21537 (100.00%)    -0.94517 (  0.00%)    -1.21537
       3    115.23    -0.94777 (100.00%)    -0.80915 (  0.00%)    -0.94777
       4    147.52    -0.80618 (100.00%)    -0.73597 (  0.00%)    -0.80618
       5    171.11    -0.72249 (100.00%)    -0.69204 (  0.00%)    -0.72249
       6    188.82    -0.66766 (100.00%)    -0.66286 (  0.00%)    -0.66766
       7    228.23    -0.56435 (100.00%)    -0.60672 (  0.00%)    -0.56435
       8    261.13    -0.49321 (100.00%)    -0.56684 (  0.00%)    -0.49321
       9    287.77    -0.44336 (100.00%)    -0.53806 (  0.00%)    -0.44336
      10    291.97    -0.43605 (100.00%)    -0.53376 (  0.00%)    -0.43605
   ------------------------------------------------------------------------

   temp. (K)  partition function   enthalpy   heat capacity  entropy
                                   cal/mol     cal/K/mol   cal/K/mol   J/K/mol
 298.15  VIB  0.323E+04             5741.853     39.333     35.315
         ROT  0.940E+06              888.752      2.981     30.313
         INT  0.303E+10             6630.606     42.314     65.628
         TR   0.182E+28             1481.254      4.968     40.952
         TOT                        8111.8597    47.2817   106.5800   445.9308

       T/K    H(0)-H(T)+PV         H(T)/Eh          T*S/Eh         G(T)/Eh
   ------------------------------------------------------------------------
    298.15    0.129271E-01    0.248899E+00    0.506396E-01    0.198259E+00
   ------------------------------------------------------------------------

         :::::::::::::::::::::::::::::::::::::::::::::::::::::
         ::                  THERMODYNAMIC                  ::
         :::::::::::::::::::::::::::::::::::::::::::::::::::::
         :: total free energy         -33.436840919054 Eh   ::
         ::.................................................::
         :: total energy              -33.635099880230 Eh   ::
         :: zero point energy           0.235971498987 Eh   ::
         :: G(RRHO) w/o ZPVE           -0.037712537812 Eh   ::
         :: G(RRHO) contrib.            0.198258961175 Eh   ::
         :::::::::::::::::::::::::::::::::::::::::::::::::::::

optimized geometry written to: xtbopt.coord


           -------------------------------------------------
          | TOTAL ENERGY              -33.635099880230 Eh   |
          | TOTAL ENTHALPY            -33.386201309951 Eh   |
          | TOTAL FREE ENERGY         -33.436840919054 Eh   |
          | GRADIENT NORM               0.000045566581 Eh/α |
          | HOMO-LUMO GAP               2.903256272164 eV   |
           -------------------------------------------------

------------------------------------------------------------------------
 * finished run on 2025/04/15 at 20:27:33.900     
------------------------------------------------------------------------
 total:
 * wall-time:     0 d,  0 h,  0 min,  4.008 sec
 *  cpu-time:     0 d,  0 h,  0 min,  3.993 sec
 * ratio c/w:     0.996 speedup
 SCF:
 * wall-time:     0 d,  0 h,  0 min,  0.038 sec
 *  cpu-time:     0 d,  0 h,  0 min,  0.038 sec
 * ratio c/w:     0.999 speedup
 analytical hessian:
 * wall-time:     0 d,  0 h,  0 min,  3.546 sec
 *  cpu-time:     0 d,  0 h,  0 min,  3.545 sec
 * ratio c/w:     1.000 speedup

