      -----------------------------------------------------------      
     |                   =====================                   |     
     |                           x T B                           |     
     |                   =====================                   |     
     |                         S. Grimme                         |     
     |          Mulliken Center for Theoretical Chemistry        |     
     |                    University of Bonn                     |     
      -----------------------------------------------------------      

   * xtb version 6.7.1 (edcfbbe) compiled by 'albert@albert-system' on 2024-07-22

   xtb is free software: you can redistribute it and/or modify it under
   the terms of the GNU Lesser General Public License as published by
   the Free Software Foundation, either version 3 of the License, or
   (at your option) any later version.
   
   xtb is distributed in the hope that it will be useful,
   but WITHOUT ANY WARRANTY; without even the implied warranty of
   MERCHANTABILITY or FITNESS FOR A PARTICULAR PURPOSE.  See the
   GNU Lesser General Public License for more details.
   
   Cite this work as:
   * C. Bannwarth, E. Caldeweyher, S. Ehlert, A. Hansen, P. Pracht,
     J. Seibert, S. Spicher, S. Grimme, WIREs Comput. Mol. Sci., 2020, 11,
     e01493. DOI: 10.1002/wcms.1493
   
   for GFN2-xTB:
   * C. Bannwarth, S. Ehlert and S. Grimme., J. Chem. Theory Comput., 2019,
     15, 1652-1671. DOI: 10.1021/acs.jctc.8b01176
   for GFN1-xTB:
   * S. Grimme, C. Bannwarth, P. Shushkov, J. Chem. Theory Comput., 2017,
     13, 1989-2009. DOI: 10.1021/acs.jctc.7b00118
   for GFN0-xTB:
   * P. Pracht, E. Caldeweyher, S. Ehlert, S. Grimme, ChemRxiv, 2019, preprint.
     DOI: 10.26434/chemrxiv.8326202.v1
   for GFN-FF:
   * S. Spicher and S. Grimme, Angew. Chem. Int. Ed., 2020, 59, 15665-15673.
     DOI: 10.1002/anie.202004239
   
   for ALPB and GBSA implicit solvation:
   * S. Ehlert, M. Stahn, S. Spicher, S. Grimme, J. Chem. Theory Comput.,
     2021, 17, 4250-4261. DOI: 10.1021/acs.jctc.1c00471
   
   for ddCOSMO and CPCM-X implicit solvation:
   * M. Stahn, S. Ehlert, S. Grimme, J. Phys. Chem. A,
     2023, XX, XXXX-XXXX. DOI: 10.1021/acs.jpca.3c04382
   
   for DFT-D4:
   * E. Caldeweyher, C. Bannwarth and S. Grimme, J. Chem. Phys., 2017,
     147, 034112. DOI: 10.1063/1.4993215
   * E. Caldeweyher, S. Ehlert, A. Hansen, H. Neugebauer, S. Spicher,
     C. Bannwarth and S. Grimme, J. Chem. Phys., 2019, 150, 154122.
     DOI: 10.1063/1.5090222
   * E. Caldeweyher, J.-M. Mewes, S. Ehlert and S. Grimme, Phys. Chem. Chem. Phys.
     2020, 22, 8499-8512. DOI: 10.1039/D0CP00502A
   
   for sTDA-xTB:
   * S. Grimme and C. Bannwarth, J. Chem. Phys., 2016, 145, 054103.
     DOI: 10.1063/1.4959605
   
   in the mass-spec context:
   * V. Asgeirsson, C. Bauer and S. Grimme, Chem. Sci., 2017, 8, 4879.
     DOI: 10.1039/c7sc00601b
   * J. Koopman and S. Grimme, ACS Omega 2019, 4, 12, 15120-15133.
     DOI: 10.1021/acsomega.9b02011
   
   for metadynamics refer to:
   * S. Grimme, J. Chem. Theory Comput., 2019, 155, 2847-2862
     DOI: 10.1021/acs.jctc.9b00143
   
   for SPH calculations refer to:
   * S. Spicher and S. Grimme, J. Chem. Theory Comput., 2021, 17, 1701-1714
     DOI: 10.1021/acs.jctc.0c01306
   
   for ONIOM refer to:
   * C. Plett, A. Katbashev, S. Ehlert, S. Grimme, M. Bursch,
     Phys. Chem. Chem. Phys., 2023, 25, 17860-17868. DOI: 10.1039/D3CP02178E
   
   for DIPRO refer to:
   * J. Kohn, N. Gildemeister, S. Grimme, D. Fazzi, A. Hansen,
     J. Chem. Phys., 2023, just accepted.
   
   for PTB refer to:
   * S. Grimme, M. Mueller, A. Hansen, J. Chem. Phys., 2023, 158, 124111.
     DOI: 10.1063/5.0137838
   
   with help from (in alphabetical order)
   P. Atkinson, C. Bannwarth, F. Bohle, G. Brandenburg, E. Caldeweyher
   M. Checinski, S. Dohm, S. Ehlert, S. Ehrlich, I. Gerasimov, C. Hölzer
   A. Katbashev, J. Kohn, J. Koopman, C. Lavigne, S. Lehtola, F. März, M. Müller,
   F. Musil, H. Neugebauer, J. Pisarek, C. Plett, P. Pracht, F. Pultar,
   J. Seibert, P. Shushkov, S. Spicher, M. Stahn, M. Steiner, T. Strunk,
   J. Stückrath, T. Rose, and J. Unsleber
   
 * started run on 2025/04/15 at 19:54:04.372     
   ID    Z sym.   atoms
    1    6 C      1-4
    2    1 H      5-10

           -------------------------------------------------
          |                Calculation Setup                |
           -------------------------------------------------

          program call               : /software/projects/pawsey0265/mwang1/xtb/bin/xtb xtb_rrho.coord --gfn2 --bhess vtight --chrg 0 --enso --norestart -I rrho-xcontrol-inp --parallel 1
          hostname                   : nid002793
          coordinate file            : xtb_rrho.coord
          omp threads                :                     1


           -------------------------------------------------
          |                 G F N 2 - x T B                 |
           -------------------------------------------------

        Reference                      10.1021/acs.jctc.8b01176
      * Hamiltonian:
        H0-scaling (s, p, d)           1.850000    2.230000    2.230000
        zeta-weighting                 0.500000
      * Dispersion:
        s8                             2.700000
        a1                             0.520000
        a2                             5.000000
        s9                             5.000000
      * Repulsion:
        kExp                           1.500000    1.000000
        rExp                           1.000000
      * Coulomb:
        alpha                          2.000000
        third order                    shell-resolved
        anisotropic                    true
        a3                             3.000000
        a5                             4.000000
        cn-shift                       1.200000
        cn-exp                         4.000000
        max-rad                        5.000000


          ...................................................
          :                      SETUP                      :
          :.................................................:
          :  # basis functions                  22          :
          :  # atomic orbitals                  22          :
          :  # shells                           14          :
          :  # electrons                        22          :
          :  max. iterations                   250          :
          :  Hamiltonian                  GFN2-xTB          :
          :  restarted?                      false          :
          :  GBSA solvation                  false          :
          :  PC potential                    false          :
          :  electronic temp.          300.0000000     K    :
          :  accuracy                    1.0000000          :
          :  -> integral cutoff          0.2500000E+02      :
          :  -> integral neglect         0.1000000E-07      :
          :  -> SCF convergence          0.1000000E-05 Eh   :
          :  -> wf. convergence          0.1000000E-03 e    :
          :  Broyden damping             0.4000000          :
          :  net charge                          0          :
          :  unpaired electrons                  0          :
          ...................................................

 iter      E             dE          RMSdq      gap      omega  full diag
   1    -11.7492149 -0.117492E+02  0.483E+00    3.95       0.0  T
   2    -11.7670751 -0.178603E-01  0.288E+00    3.92       1.0  T
   3    -11.7634803  0.359485E-02  0.974E-01    3.91       1.0  T
   4    -11.7659406 -0.246032E-02  0.586E-01    3.90       1.0  T
   5    -11.7685974 -0.265682E-02  0.575E-02    3.90       1.0  T
   6    -11.7685981 -0.680270E-06  0.786E-03    3.90       4.0  T
   7    -11.7685982 -0.140896E-06  0.225E-03    3.90      14.1  T
   8    -11.7685982 -0.568418E-08  0.267E-04    3.90     118.3  T
   9    -11.7685982 -0.420464E-10  0.124E-04    3.90     254.7  T

   *** convergence criteria satisfied after 9 iterations ***

         #    Occupation            Energy/Eh            Energy/eV
      -------------------------------------------------------------
         1        2.0000           -0.6224371             -16.9374
       ...           ...                  ...                  ...
         5        2.0000           -0.5173326             -14.0773
         6        2.0000           -0.4794507             -13.0465
         7        2.0000           -0.4787588             -13.0277
         8        2.0000           -0.4443008             -12.0900
         9        2.0000           -0.4291024             -11.6765
        10        2.0000           -0.4279916             -11.6462
        11        2.0000           -0.3869710             -10.5300 (HOMO)
        12                         -0.2437505              -6.6328 (LUMO)
        13                         -0.1566572              -4.2629
        14                          0.1113211               3.0292
        15                          0.1251529               3.4056
        16                          0.1430930               3.8938
       ...                                ...                  ...
        22                          0.6411175              17.4457
      -------------------------------------------------------------
                  HL-Gap            0.1432206 Eh            3.8972 eV
             Fermi-level           -0.3153607 Eh           -8.5814 eV

 SCC (total)                   0 d,  0 h,  0 min,  0.010 sec
 SCC setup                      ...        0 min,  0.000 sec (  1.927%)
 Dispersion                     ...        0 min,  0.000 sec (  0.678%)
 classical contributions        ...        0 min,  0.000 sec (  0.284%)
 integral evaluation            ...        0 min,  0.001 sec (  7.650%)
 iterations                     ...        0 min,  0.008 sec ( 77.345%)
 molecular gradient             ...        0 min,  0.001 sec ( 10.621%)
 printout                       ...        0 min,  0.000 sec (  1.278%)

         :::::::::::::::::::::::::::::::::::::::::::::::::::::
         ::                     SUMMARY                     ::
         :::::::::::::::::::::::::::::::::::::::::::::::::::::
         :: total energy             -11.548472627904 Eh    ::
         :: gradient norm              0.017772448631 Eh/a0 ::
         :: HOMO-LUMO gap              3.897230006503 eV    ::
         ::.................................................::
         :: SCC energy               -11.768596503319 Eh    ::
         :: -> isotropic ES            0.001634715612 Eh    ::
         :: -> anisotropic ES          0.002900141790 Eh    ::
         :: -> anisotropic XC          0.012278752060 Eh    ::
         :: -> dispersion             -0.004551226840 Eh    ::
         :: repulsion energy           0.220123875415 Eh    ::
         :: add. restraining           0.000000000000 Eh    ::
         :: total charge              -0.000000000000 e     ::
         :::::::::::::::::::::::::::::::::::::::::::::::::::::

metadynamics with 1 initial structures loaded
           -------------------------------------------------
          |           Optimal kpush determination           |
           -------------------------------------------------
      ----------------------------------------------------------- 
     |                   =====================                   |
     |                        A N C O P T                        |
     |                   =====================                   |
     |               Approximate Normal Coordinate               |
     |                Rational Function Optimizer                |
      ----------------------------------------------------------- 
target rmsd / Å         0.100000
unbiased initial rmsd   0.140526
 
iter. min.        max.        rmsd       kpush
      ----------------------------------------------------------- 
     |                   =====================                   |
     |                        A N C O P T                        |
     |                   =====================                   |
     |               Approximate Normal Coordinate               |
     |                Rational Function Optimizer                |
      ----------------------------------------------------------- 
 1    0.000000    0.454545    0.010422   -0.227273
      ----------------------------------------------------------- 
     |                   =====================                   |
     |                        A N C O P T                        |
     |                   =====================                   |
     |               Approximate Normal Coordinate               |
     |                Rational Function Optimizer                |
      ----------------------------------------------------------- 
 2    0.000000    0.227273    0.013482   -0.113636
      ----------------------------------------------------------- 
     |                   =====================                   |
     |                        A N C O P T                        |
     |                   =====================                   |
     |               Approximate Normal Coordinate               |
     |                Rational Function Optimizer                |
      ----------------------------------------------------------- 
 3    0.000000    0.113636    0.017956   -0.056818
      ----------------------------------------------------------- 
     |                   =====================                   |
     |                        A N C O P T                        |
     |                   =====================                   |
     |               Approximate Normal Coordinate               |
     |                Rational Function Optimizer                |
      ----------------------------------------------------------- 
 4    0.000000    0.056818    0.025492   -0.028409
      ----------------------------------------------------------- 
     |                   =====================                   |
     |                        A N C O P T                        |
     |                   =====================                   |
     |               Approximate Normal Coordinate               |
     |                Rational Function Optimizer                |
      ----------------------------------------------------------- 
 5    0.000000    0.028409    0.037611   -0.014205
      ----------------------------------------------------------- 
     |                   =====================                   |
     |                        A N C O P T                        |
     |                   =====================                   |
     |               Approximate Normal Coordinate               |
     |                Rational Function Optimizer                |
      ----------------------------------------------------------- 
 6    0.000000    0.014205    0.054816   -0.007102
      ----------------------------------------------------------- 
     |                   =====================                   |
     |                        A N C O P T                        |
     |                   =====================                   |
     |               Approximate Normal Coordinate               |
     |                Rational Function Optimizer                |
      ----------------------------------------------------------- 
 7    0.000000    0.007102    0.074593   -0.003551
      ----------------------------------------------------------- 
     |                   =====================                   |
     |                        A N C O P T                        |
     |                   =====================                   |
     |               Approximate Normal Coordinate               |
     |                Rational Function Optimizer                |
      ----------------------------------------------------------- 
 8    0.000000    0.003551    0.093107   -0.001776
      ----------------------------------------------------------- 
     |                   =====================                   |
     |                        A N C O P T                        |
     |                   =====================                   |
     |               Approximate Normal Coordinate               |
     |                Rational Function Optimizer                |
      ----------------------------------------------------------- 
 9    0.000000    0.001776    0.109955   -0.000888
      ----------------------------------------------------------- 
     |                   =====================                   |
     |                        A N C O P T                        |
     |                   =====================                   |
     |               Approximate Normal Coordinate               |
     |                Rational Function Optimizer                |
      ----------------------------------------------------------- 
10    0.000888    0.001776    0.100128   -0.001332
final kpush: -0.001332
           -------------------------------------------------
          |            Biased Numerical Hessian             |
           -------------------------------------------------
kpush                :  -0.00133
alpha                :   1.00000
step length          :   0.00500
SCC accuracy         :   0.30000
Hessian scale factor :   1.00000
frozen atoms in %    :   0.00000    0
RMS gradient         :   0.00019
estimated CPU  time      0.00 min
estimated wall time      0.00 min

writing file <hessian>.

 projected vibrational frequencies (cm⁻¹)
eigval :       -0.00    -0.00    -0.00    -0.00     0.00     0.00
eigval :      117.70   284.78   453.52   571.60   733.44   883.71
eigval :      892.80   903.95  1009.72  1016.51  1064.87  1072.39
eigval :     1279.27  1323.22  1390.44  1425.49  1656.71  1689.59
eigval :     3042.66  3052.36  3105.91  3107.71  3128.56  3132.45
           -------------------------------------------------
          |                Property Printout                |
           -------------------------------------------------

    * Orbital Energies and Occupations

         #    Occupation            Energy/Eh            Energy/eV
      -------------------------------------------------------------
         1        2.0000           -0.6240400             -16.9810
         2        2.0000           -0.6025853             -16.3972
         3        2.0000           -0.5684963             -15.4696
         4        2.0000           -0.5287679             -14.3885
         5        2.0000           -0.5189219             -14.1206
         6        2.0000           -0.4819146             -13.1136
         7        2.0000           -0.4763910             -12.9633
         8        2.0000           -0.4461279             -12.1398
         9        2.0000           -0.4312367             -11.7345
        10        2.0000           -0.4281367             -11.6502
        11        2.0000           -0.3869455             -10.5293 (HOMO)
        12                         -0.2455481              -6.6817 (LUMO)
        13                         -0.1468125              -3.9950
        14                          0.1237921               3.3686
        15                          0.1252934               3.4094
        16                          0.1520830               4.1384
        17                          0.1803278               4.9070
        18                          0.2491823               6.7806
        19                          0.3530108               9.6059
        20                          0.4966605              13.5148
        21                          0.5224253              14.2159
        22                          0.6766643              18.4130
      -------------------------------------------------------------
                  HL-Gap            0.1413975 Eh            3.8476 eV
             Fermi-level           -0.3162468 Eh           -8.6055 eV

     #   Z          covCN         q      C6AA      α(0)
     1   6 C        2.838    -0.085    30.128     8.995
     2   6 C        2.891    -0.025    28.633     8.773
     3   6 C        2.891    -0.025    28.633     8.773
     4   6 C        2.838    -0.085    30.128     8.995
     5   1 H        0.926     0.036     2.498     2.472
     6   1 H        0.926     0.042     2.426     2.436
     7   1 H        0.925     0.033     2.550     2.497
     8   1 H        0.925     0.033     2.550     2.497
     9   1 H        0.926     0.036     2.498     2.472
    10   1 H        0.926     0.042     2.425     2.435

 Mol. C6AA /au·bohr⁶  :        969.748951
 Mol. C8AA /au·bohr⁸  :      22344.912790
 Mol. α(0) /au        :         50.344975


Wiberg/Mayer (AO) data.
largest (>0.10) Wiberg bond orders for each atom

 ---------------------------------------------------------------------------
     #   Z sym  total        # sym  WBO       # sym  WBO       # sym  WBO
 ---------------------------------------------------------------------------
     1   6 C    3.992 --     2 C    1.904     5 H    0.979     6 H    0.975
                             4 C    0.120
     2   6 C    3.992 --     1 C    1.904     3 C    1.100     7 H    0.966
     3   6 C    3.992 --     4 C    1.904     2 C    1.100     8 H    0.966
     4   6 C    3.992 --     3 C    1.904     9 H    0.979    10 H    0.975
                             1 C    0.120
     5   1 H    0.999 --     1 C    0.979
     6   1 H    0.998 --     1 C    0.975
     7   1 H    0.999 --     2 C    0.966
     8   1 H    0.999 --     3 C    0.966
     9   1 H    0.999 --     4 C    0.979
    10   1 H    0.998 --     4 C    0.975
 ---------------------------------------------------------------------------

Topologies differ in total number of bonds
Writing topology from bond orders to xtbtopo.mol

molecular dipole:
                 x           y           z       tot (Debye)
 q only:       -0.000       0.000      -0.004
   full:       -0.000       0.000      -0.016       0.041
molecular quadrupole (traceless):
                xx          xy          yy          xz          yz          zz
 q only:        0.382       0.155      -0.919      -0.000      -0.001       0.538
  q+dip:        1.446       0.709      -3.771       0.001      -0.003       2.325
   full:        0.752       0.396      -1.994       0.000      -0.001       1.243

           -------------------------------------------------
          |                Geometry Summary                 |
           -------------------------------------------------

      molecular mass/u    :       54.0905881
   center of mass at/Å    :        0.0000150      -0.0001064      -0.0000069
  moments of inertia/u·Å² :        0.2353013E+02   0.8684855E+02   0.1091930E+03
rotational constants/cm⁻¹ :        0.7164275E+00   0.1941038E+00   0.1543838E+00

 * 8 selected distances

     #   Z          #   Z                                           value/Å
     1   6 C        2   6 C                                       1.3275041
     3   6 C        4   6 C                                       1.3275234 (max)
     1   6 C        5   1 H                                       1.0765550 (min)
     1   6 C        6   1 H                                       1.0768700
     2   6 C        7   1 H                                       1.0831410
     3   6 C        8   1 H                                       1.0832324
     4   6 C        9   1 H                                       1.0766282
     4   6 C       10   1 H                                       1.0767208

 * 2 distinct bonds (by element types)

   Z      Z             #   av. dist./Å        max./Å        min./Å
   1 H    6 C           6     1.0788579     1.0832324     1.0765550
   6 C    6 C           2     1.3275138     1.3275234     1.3275041

           -------------------------------------------------
          |               Frequency Printout                |
           -------------------------------------------------
 projected vibrational frequencies (cm⁻¹)
eigval :       -0.00    -0.00    -0.00    -0.00     0.00     0.00
eigval :      117.70   284.78   453.52   571.60   733.44   883.71
eigval :      892.80   903.95  1009.72  1016.51  1064.87  1072.39
eigval :     1279.27  1323.22  1390.44  1425.49  1656.71  1689.59
eigval :     3042.66  3052.36  3105.91  3107.71  3128.56  3132.45
 reduced masses (amu)
   1:  9.85   2:  9.18   3:  8.95   4: 10.65   5: 10.27   6:  9.64   7:  5.12   8:  8.42
   9:  3.79  10:  6.63  11:  6.65  12:  3.56  13:  4.04  14:  5.89  15:  1.81  16:  2.08
  17:  5.52  18:  5.80  19:  2.73  20:  3.70  21:  2.18  22:  2.81  23: 11.28  24: 10.88
  25:  1.77  26:  1.84  27:  1.52  28:  1.51  29:  2.11  30:  2.10
 IR intensities (km·mol⁻¹)
   1:  0.00   2:  0.00   3:  0.00   4:  0.00   5:  0.01   6:  0.01   7:  0.35   8:  0.07
   9:  2.28  10:  0.29  11:  0.01  12:  1.21  13: 24.20  14:  1.31  15: 29.77  16:  0.37
  17:  4.30  18:  0.19  19:  1.26  20:  0.24  21:  0.40  22:  0.01  23:  0.71  24:  0.90
  25: 17.03  26: 59.72  27:  9.67  28: 17.00  29: 60.13  30: 36.57
 Raman intensities (Ä⁴*amu⁻¹)
   1:  0.00   2:  0.00   3:  0.00   4:  0.00   5:  0.00   6:  0.00   7:  0.00   8:  0.00
   9:  0.00  10:  0.00  11:  0.00  12:  0.00  13:  0.00  14:  0.00  15:  0.00  16:  0.00
  17:  0.00  18:  0.00  19:  0.00  20:  0.00  21:  0.00  22:  0.00  23:  0.00  24:  0.00
  25:  0.00  26:  0.00  27:  0.00  28:  0.00  29:  0.00  30:  0.00
 output can be read by thermo (or use thermo option).
 writing <g98.out> molden fake output.
 recommended (thermochemical) frequency scaling factor: 1.0
           -------------------------------------------------
          |             Thermodynamic Functions             |
           -------------------------------------------------

Molecule has the following symmetry elements: (C2) 
It seems to be the C2 point group
c2  symmetry found (for desy threshold:  0.10E+00) used in thermo

          ...................................................
          :                      SETUP                      :
          :.................................................:
          :  # frequencies                          24      :
          :  # imaginary freq.                       0      :
          :  linear?                             false      :
          :  only rotor calc.                    false      :
          :  symmetry                               c2      :
          :  rotational number                       2      :
          :  scaling factor                  1.0000000      :
          :  rotor cutoff                    0.0000000 cm⁻¹ :
          :  imag. cutoff                 -100.0000000 cm⁻¹ :
          :.................................................:

    mode    ω/cm⁻¹     T·S(HO)/kcal·mol⁻¹    T·S(FR)/kcal·mol⁻¹   T·S(vib)
   ------------------------------------------------------------------------
       1    117.70    -0.93555 (100.00%)    -0.80236 (  0.00%)    -0.93555
       2    284.78    -0.44866 (100.00%)    -0.54094 (  0.00%)    -0.44866
   ------------------------------------------------------------------------

   temp. (K)  partition function   enthalpy   heat capacity  entropy
                                   cal/mol     cal/K/mol   cal/K/mol   J/K/mol
 298.15  VIB   4.12                 1262.584     10.302      7.048
         ROT  0.180E+05              888.752      2.981     22.457
         INT  0.743E+05             2151.336     13.283     29.505
         TR   0.385E+27             1481.254      4.968     37.869
         TOT                        3632.5900    18.2512    67.3742   281.8937

       T/K    H(0)-H(T)+PV         H(T)/Eh          T*S/Eh         G(T)/Eh
   ------------------------------------------------------------------------
    298.15    0.578890E-02    0.885760E-01    0.320117E-01    0.565643E-01
   ------------------------------------------------------------------------

         :::::::::::::::::::::::::::::::::::::::::::::::::::::
         ::                  THERMODYNAMIC                  ::
         :::::::::::::::::::::::::::::::::::::::::::::::::::::
         :: total free energy         -11.494015580660 Eh   ::
         ::.................................................::
         :: total energy              -11.550579913976 Eh   ::
         :: zero point energy           0.082787094935 Eh   ::
         :: G(RRHO) w/o ZPVE           -0.026222761620 Eh   ::
         :: G(RRHO) contrib.            0.056564333315 Eh   ::
         :::::::::::::::::::::::::::::::::::::::::::::::::::::

optimized geometry written to: xtbopt.coord


           -------------------------------------------------
          | TOTAL ENERGY              -11.550579913976 Eh   |
          | TOTAL ENTHALPY            -11.462003918392 Eh   |
          | TOTAL FREE ENERGY         -11.494015580660 Eh   |
          | GRADIENT NORM               0.000192432799 Eh/α |
          | HOMO-LUMO GAP               3.847621072717 eV   |
           -------------------------------------------------

------------------------------------------------------------------------
 * finished run on 2025/04/15 at 19:54:04.923     
------------------------------------------------------------------------
 total:
 * wall-time:     0 d,  0 h,  0 min,  0.550 sec
 *  cpu-time:     0 d,  0 h,  0 min,  0.519 sec
 * ratio c/w:     0.944 speedup
 SCF:
 * wall-time:     0 d,  0 h,  0 min,  0.010 sec
 *  cpu-time:     0 d,  0 h,  0 min,  0.010 sec
 * ratio c/w:     0.947 speedup
 analytical hessian:
 * wall-time:     0 d,  0 h,  0 min,  0.120 sec
 *  cpu-time:     0 d,  0 h,  0 min,  0.118 sec
 * ratio c/w:     0.986 speedup

