24
 energy: -43.355896584836 gnorm: 0.046641832947 xtb: 6.7.1 (edcfbbe)
C           -2.13311381027398       -0.89718055573530       -0.31235241752876
C           -1.18507335455520       -0.33383587317620        0.75721240107419
H           -1.80153847186247       -0.36099758437668        1.67248484987431
C           -0.76765330137982        1.13224480355437        0.56369303775581
H           -1.63166745736876        1.70405606835388        0.18273938751044
C            0.41688943195602        1.30524697784425       -0.39927741807143
H            0.84427828977126        2.30232303671016       -0.23623131094063
C            1.53359988929793        0.29190429332262       -0.10147890284456
H            2.21116641091214        0.25612833052432       -0.96007669733581
C            1.04970309010813       -1.15106585429510        0.17074963304260
H            1.84487718786173       -1.64041782576618        0.74193063154955
O           -0.06992112853222       -1.16308574454091        1.07297920148016
O            0.85350953209568       -1.92063992152472       -0.97526483616578
O            2.29652809096228        0.75933892679112        1.00744621246163
O           -0.01587744814358        1.18381634615436       -1.77113543327527
O           -0.31140041588094        1.69663058098752        1.80305185188342
O           -1.63110513135081       -0.98487209606279       -1.64150263443185
H           -3.05446048317754       -0.29150232814529       -0.28754138270877
H           -2.39217556614610       -1.91827050661063       -0.01640960442189
H            0.00879840501011       -1.66524539374884       -1.39828170912167
H            1.67223161318807        0.93421493678784        1.72668345824297
H           -0.32413454962930        2.04851131273449       -2.06386156929166
H           -0.88407426424331        1.38383486341943        2.51293222765359
H           -1.26736552297433       -0.11268332998859       -1.88963910076496
24
 energy: -43.357915748087 gnorm: 0.023435001845 xtb: 6.7.1 (edcfbbe)
C           -2.12922935668783       -0.89460076203532       -0.31613655993364
C           -1.18384773322756       -0.33875357360708        0.76680321270531
H           -1.78235346151286       -0.37785456731088        1.69280259138075
C           -0.76394521945704        1.12749667450510        0.56626615613687
H           -1.63236666750432        1.70031853582735        0.19809106166682
C            0.41202986545861        1.30372719869178       -0.40874729864177
H            0.83868665238618        2.29882848902904       -0.23670256385943
C            1.52940372838517        0.29216521418418       -0.10814421945596
H            2.20794139475847        0.24937772915998       -0.96537352183766
C            1.03781485409203       -1.14666310295194        0.17860853466372
H            1.83002294804724       -1.64377340694499        0.75065247086100
O           -0.07316844669638       -1.16375110534341        1.07230917694421
O            0.84817124187256       -1.91158238423111       -0.95907072194274
O            2.29176203986342        0.76048206584693        0.98547457970524
O           -0.01773244636147        1.19683267284893       -1.76770131694766
O           -0.31690394749359        1.68908606145400        1.79536608858187
O           -1.62690368480984       -0.97935872464772       -1.63187900354444
H           -3.04469113696596       -0.28380037691210       -0.30409230706442
H           -2.39070484139542       -1.91839937187655       -0.03613479564482
H            0.00169252293023       -1.66895973854821       -1.38636177591348
H            1.67626548992848        0.93947578687666        1.71147884102259
H           -0.31928966301640        2.06144611828092       -2.06460503425646
H           -0.88925529282764        1.38560870084084        2.50947770153411
H           -1.24137780412110       -0.11889466992329       -1.88353142053440
24
 energy: -43.358512421031 gnorm: 0.004775396560 xtb: 6.7.1 (edcfbbe)
C           -2.12786283058275       -0.89168360136875       -0.32317467798664
C           -1.18217962587806       -0.34402415485587        0.76978068642712
H           -1.77291265086719       -0.39162940866086        1.69914904608154
C           -0.76664164693784        1.12637119137964        0.57380511145206
H           -1.63944803266439        1.69585723967959        0.20724628824074
C            0.40278687137850        1.30186716946569       -0.41360704251658
H            0.83021645180561        2.29509852325444       -0.22743479646797
C            1.52379868819158        0.29163662507170       -0.10928407750636
H            2.19620113613796        0.23834312910292       -0.97102548084596
C            1.02956642567634       -1.14875205440712        0.18199515879229
H            1.82414827870471       -1.64385630318931        0.75641239183540
O           -0.07354155648690       -1.16529091386747        1.06730248198166
O            0.84777713271052       -1.91272878415479       -0.94982898656530
O            2.29067089271974        0.76770674591555        0.96554670634066
O           -0.02407702329853        1.20714783633750       -1.76035114193135
O           -0.31646188544213        1.68536349492828        1.79082691146542
O           -1.61619110980725       -0.97169865866956       -1.62532438522656
H           -3.03755782631668       -0.27377315084415       -0.31247773689353
H           -2.39436464087360       -1.91600423274677       -0.05123015098725
H           -0.00353227811948       -1.68850923396011       -1.37933890353561
H            1.68852887400815        0.94782568052789        1.70292187882584
H           -0.31687990724744        2.07155663526987       -2.06556074418158
H           -0.88910100444563        1.39882899480717        2.51213218632554
H           -1.21092169672027       -0.12119930580237       -1.87963084749796
24
 energy: -43.358584563895 gnorm: 0.002609022830 xtb: 6.7.1 (edcfbbe)
C           -2.12746410581604       -0.88992113150497       -0.32637119117615
C           -1.18394393395234       -0.34635297843748        0.77186355552648
H           -1.77712126869714       -0.39526784073146        1.69935715173261
C           -0.76900465357647        1.12514745394264        0.57726672871234
H           -1.64369037148990        1.69184297315725        0.20903804904984
C            0.39946275922038        1.30318973117614       -0.41352092027439
H            0.82839344327716        2.29548678661525       -0.22125620260541
C            1.52235728436196        0.29182528705590       -0.11164529739300
H            2.18861892051261        0.23507437513483       -0.97850683165272
C            1.02797935249557       -1.14987652415760        0.18401770910533
H            1.82564886535505       -1.64047171676553        0.75910817369288
O           -0.07447487780241       -1.16718885915750        1.06791016728206
O            0.85049191719992       -1.91566246607452       -0.94796003884004
O            2.29479103533861        0.76923767257247        0.95710000564518
O           -0.02787211975300        1.21176107824621       -1.75827282677647
O           -0.31586802718621        1.68281991755513        1.79212343112777
O           -1.60974116702052       -0.97101509432693       -1.62530955025338
H           -3.03495591894641       -0.26794915407482       -0.31536867103452
H           -2.40032254133204       -1.91260903327074       -0.05413225077873
H           -0.00359126893222       -1.69942094780505       -1.37649131075751
H            1.69915650028854        0.94833481416192        1.70000993168028
H           -0.31724041600177        2.07650255037021       -2.06613962274385
H           -0.89222649544808        1.40601349253502        2.51446105522052
H           -1.19736187645027       -0.12304692300327       -1.87843136886351
24
 energy: -43.358629352546 gnorm: 0.002306508039 xtb: 6.7.1 (edcfbbe)
C           -2.12695756439014       -0.88854422755784       -0.33021901737801
C           -1.18586922889647       -0.34850316795774        0.77242413317085
H           -1.78257605287944       -0.39884776615069        1.69731014128169
C           -0.77193130539094        1.12425827134146        0.58160024400335
H           -1.64820201360739        1.68907823098341        0.21297397406885
C            0.39566286429548        1.30516123878919       -0.41163001178781
H            0.82552935444316        2.29637631306447       -0.21352876658086
C            1.52044361065652        0.29186288547732       -0.11540008610743
H            2.17757253632732        0.23142755852285       -0.98934164914694
C            1.02745282914267       -1.15117806255956        0.18673804145818
H            1.82782365936097       -1.63607568461198        0.76338015416958
O           -0.07575559880017       -1.16967722930205        1.06866646443734
O            0.85463186993049       -1.92106395165198       -0.94525031000122
O            2.30229847618472        0.77075299192971        0.94555816297445
O           -0.03334330533384        1.21803100373925       -1.75549720210475
O           -0.31499769103822        1.67959127576181        1.79548619176099
O           -1.60190487512677       -0.97252086503780       -1.62590090402497
H           -3.03138859515172       -0.26094792879871       -0.32180493975682
H           -2.40893710728102       -1.90887639583171       -0.05738229932915
H           -0.00259618540859       -1.71309236361481       -1.37156220318742
H            1.71513743944472        0.94658134045346        1.69576418602048
H           -0.31817986293340        2.08387269888030       -2.06481847848368
H           -0.89940255884738        1.41714192257623        2.51694566067768
H           -1.18248965905559       -0.12635462523151       -1.87566161050878
24
 energy: -43.358648150138 gnorm: 0.001976102901 xtb: 6.7.1 (edcfbbe)
C           -2.12632669605578       -0.88748951086667       -0.33274754504112
C           -1.18736183204725       -0.34933936548064        0.77234238258836
H           -1.78546572192860       -0.40109372660420        1.69623266852649
C           -0.77323456732079        1.12362973008891        0.58412863376907
H           -1.64978026238397        1.68903516487148        0.21727136670955
C            0.39346776274092        1.30625990482903       -0.40977213947194
H            0.82385762178550        2.29670606249676       -0.20977796730301
C            1.51883512096195        0.29177607173336       -0.11832157493683
H            2.16989765898803        0.22935537727831       -0.99656490272281
C            1.02732577479062       -1.15124870655881        0.18873216576258
H            1.82835489742681       -1.63276836907994        0.76705015708169
O           -0.07700615560614       -1.17072225520948        1.06895547887032
O            0.85744453333491       -1.92498443186569       -0.94229496214657
O            2.30784110603828        0.77164740343236        0.93716106493023
O           -0.03750859517281        1.22207215670346       -1.75356473543844
O           -0.31412264501705        1.67618276641575        1.79847757493421
O           -1.59678919133208       -0.97481607367214       -1.62654950055487
H           -3.02877401739443       -0.25665523203084       -0.32825335032447
H           -2.41352695781580       -1.90628732599835       -0.05952502060042
H           -0.00115807662566       -1.72115277753086       -1.36745457499912
H            1.72629700698723        0.94397540379617        1.69227241049064
H           -0.31936101764840        2.08907416596193       -2.06228911647196
H           -0.90594757609501        1.42446352039143        2.51774611642090
H           -1.17493713496549       -0.12916648988828       -1.87440475444688
24
 energy: -43.358666246823 gnorm: 0.001411119266 xtb: 6.7.1 (edcfbbe)
C           -2.12523205518328       -0.88595465075283       -0.33695343006725
C           -1.18993918590956       -0.34985693547387        0.77124940882535
H           -1.78906954915378       -0.40442293252420        1.69430300743187
C           -0.77445205349498        1.12298202285014        0.58828873557576
H           -1.65044483081843        1.69189554149809        0.22677523426987
C            0.38988189421169        1.30740479959732       -0.40631795711666
H            0.82139086152905        2.29657096473870       -0.20549145845521
C            1.51551818339607        0.29132834215854       -0.12342089371526
H            2.15732830674115        0.22614574458400       -1.00785118843365
C            1.02714660949739       -1.15044678094060        0.19224547450758
H            1.82794133712967       -1.62684941235232        0.77450622776403
O           -0.07969332790010       -1.17146212426798        1.06883412206003
O            0.86235746906645       -1.93149772170993       -0.93572787189658
O            2.31660846499144        0.77316376709207        0.92264259225384
O           -0.04531962934638        1.22836894944049       -1.75026972459130
O           -0.31129703830790        1.66904626445325        1.80448024668218
O           -1.58824100029632       -0.98041607093805       -1.62759247460773
H           -3.02411814889226       -0.25018116500326       -0.34144382937153
H           -2.41988183052797       -1.90234650860735       -0.06310908202634
H            0.00285144328039       -1.73253036793547       -1.36060669031821
H            1.74433540386063        0.93782030992673        1.68604977885879
H           -0.32254381331277        2.09778030314535       -2.05591730161961
H           -0.91724376196344        1.43682675823753        2.51851601376059
H           -1.16586271295180       -0.13491563400330       -1.87433906414499
24
 energy: -43.358670015183 gnorm: 0.000532637236 xtb: 6.7.1 (edcfbbe)
C           -2.12507860363169       -0.88563730566175       -0.33755633502828
C           -1.19017961382020       -0.34941061820639        0.77100092594874
H           -1.78920760101649       -0.40407205371723        1.69408769002976
C           -0.77390144091842        1.12324532234202        0.58860553557227
H           -1.64952864691661        1.69365830377703        0.22876221841902
C            0.38962048377975        1.30720033818956       -0.40640263638056
H            0.82173614080284        2.29637296100030       -0.20661702062016
C            1.51484457336593        0.29112357901158       -0.12360680790390
H            2.15708232188788        0.22594180746046       -1.00766160067751
C            1.02689264473804       -1.15004334744461        0.19268869602733
H            1.82728958055562       -1.62604708797476        0.77600152249467
O           -0.08020645414786       -1.17075101346265        1.06889810548808
O            0.86271313731553       -1.93216399460331       -0.93385928700490
O            2.31606960029167        0.77360851541281        0.92183252522871
O           -0.04652728240225        1.22850237633776       -1.75010971425251
O           -0.30983884891753        1.66748374828780        1.80531533612886
O           -1.58742054689291       -0.98175026161903       -1.62776632326538
H           -3.02342282126629       -0.24965785405676       -0.34365545534698
H           -2.41970180776026       -1.90187930369797       -0.06350945846988
H            0.00410715611553       -1.73255465262850       -1.36058345617348
H            1.74422468970627        0.93741461350279        1.68562073328435
H           -0.32473291998571        2.09805654586493       -2.05421330029633
H           -0.91563258155102        1.43593233963196        2.51874998142295
H           -1.16718012368685       -0.13611949453300       -1.87717199899929
24
 energy: -43.358671394034 gnorm: 0.000284488168 xtb: 6.7.1 (edcfbbe)
C           -2.12488342080864       -0.88541204972660       -0.33852338525843
C           -1.19055385460520       -0.34926178425961        0.77078158405913
H           -1.79035185980680       -0.40398121171186        1.69333635557760
C           -0.77359397392918        1.12340582297624        0.58930696988382
H           -1.64904593806905        1.69501099568667        0.23089128143218
C            0.38910621375663        1.30708400489164       -0.40650842474521
H            0.82184887897807        2.29618333627648       -0.20709950326840
C            1.51436336118727        0.29096463870155       -0.12398306609804
H            2.15642570460616        0.22549961369524       -1.00829916013530
C            1.02669481041507       -1.14993891573856        0.19332552055047
H            1.82709341815780       -1.62504473716853        0.77761601190886
O           -0.08078898999361       -1.17037150943828        1.06931798041884
O            0.86326624778892       -1.93320921866010       -0.93205610318981
O            2.31617997733841        0.77401019693113        0.92073370156909
O           -0.04784382853101        1.22890524807043       -1.74998415577247
O           -0.30779685892672        1.66590270570968        1.80617480526534
O           -1.58590727600461       -0.98321093777816       -1.62804823805815
H           -3.02237397864184       -0.24844661475179       -0.34606189044811
H           -2.42060930220715       -1.90126236390430       -0.06412895722262
H            0.00558049491816       -1.73306789795521       -1.36067083864183
H            1.74508529789825        0.93712820308871        1.68528255001346
H           -0.32787789929032        2.09842994876744       -2.05248935874674
H           -0.91441863426990        1.43647139784270        2.51966031464237
H           -1.16757755431571       -0.13733540833187       -1.87972411811048
24
 energy: -43.358671953411 gnorm: 0.000235506931 xtb: 6.7.1 (edcfbbe)
C           -2.12453735479579       -0.88497967425550       -0.33928097075201
C           -1.19062749814648       -0.34918348796074        0.77072138390124
H           -1.79115902422188       -0.40384919762274        1.69282045104014
C           -0.77345859050601        1.12350768212118        0.58961478177927
H           -1.64904344893683        1.69547159523038        0.23207674836197
C            0.38892657771101        1.30726483866179       -0.40661388123695
H            0.82191403546830        2.29632850603077       -0.20730922064329
C            1.51410613039169        0.29087182664332       -0.12418018114750
H            2.15594705728722        0.22511898801804       -1.00865950221494
C            1.02669282790024       -1.15009766119849        0.19380977680731
H            1.82712944920977       -1.62459516828446        0.77856385165826
O           -0.08098047566084       -1.17014015815719        1.06984854230584
O            0.86344789650696       -1.93417997131839       -0.93087227742543
O            2.31623630626147        0.77425603106000        0.92012949838688
O           -0.04824295583629        1.22912479933000       -1.74993308726923
O           -0.30683112379618        1.66502582504582        1.80651675186960
O           -1.58488923471802       -0.98387982534342       -1.62836293617097
H           -3.02150574115851       -0.24728495707802       -0.34753285423316
H           -2.42128916897883       -1.90044645262610       -0.06465609111820
H            0.00626753051915       -1.73366891852597       -1.36045778280920
H            1.74538467895093        0.93748647503417        1.68485027379312
H           -0.33074602763341        2.09826909092589       -2.05136082704489
H           -0.91324809728576        1.43584763606414        2.52017783695560
H           -1.16747271288696       -0.13781435858147       -1.88106040916790
24
 energy: -43.358672442373 gnorm: 0.000229309990 xtb: 6.7.1 (edcfbbe)
C           -2.12428436351780       -0.88467818974596       -0.34005350929952
C           -1.19078042208673       -0.34907160042715        0.77048040557002
H           -1.79197254922741       -0.40372402640702        1.69215924602410
C           -0.77333844748356        1.12364575420024        0.58993107738945
H           -1.64895965750976        1.69586268940535        0.23288538680269
C            0.38880864598298        1.30729189852144       -0.40667984185050
H            0.82202727533928        2.29625056781065       -0.20733206897781
C            1.51403851504493        0.29081595720912       -0.12435492479358
H            2.15552712351050        0.22474322523123       -1.00905414934586
C            1.02658861960693       -1.15014104181934        0.19428789946021
H            1.82705065687490       -1.62408514972457        0.77937872759357
O           -0.08129817264352       -1.16989421772875        1.07028591088769
O            0.86357968666962       -1.93492263276515       -0.92986476462743
O            2.31650336678345        0.77428068089045        0.91964946669112
O           -0.04829586424144        1.22932214145560       -1.74993612280227
O           -0.30604555889719        1.66461839964173        1.80675780876091
O           -1.58389050345486       -0.98439607527089       -1.62867951970670
H           -3.02069752184512       -0.24614823878391       -0.34891483809758
H           -2.42217389784552       -1.89976418200658       -0.06526783551939
H            0.00678295669311       -1.73419299021931       -1.36014942168125
H            1.74573501813840        0.93808759953606        1.68432274089299
H           -0.33432930922875        2.09782561680722       -2.05006341197388
H           -0.91189624285643        1.43500531624929        2.52077929421595
H           -1.16665831816104       -0.13827803884674       -1.88171767998737
24
 energy: -43.358673106331 gnorm: 0.000276386057 xtb: 6.7.1 (edcfbbe)
C           -2.12394989663482       -0.88397260441135       -0.34102183156618
C           -1.19100269644879       -0.34885823894756        0.77025991148056
H           -1.79294141249611       -0.40354747044799        1.69148253040653
C           -0.77325162917353        1.12382605541285        0.59009760371533
H           -1.64884956353389        1.69639255629167        0.23348417761167
C            0.38880786997354        1.30746033613178       -0.40668050188291
H            0.82227185777006        2.29633425487645       -0.20728372637877
C            1.51385470459024        0.29065514682491       -0.12456851174402
H            2.15470809353825        0.22410192162942       -1.00966136619040
C            1.02650694153388       -1.15030163524686        0.19494293608164
H            1.82694419077869       -1.62360744797973        0.78050161317142
O           -0.08169108630278       -1.16965186612778        1.07071905710231
O            0.86385381380541       -1.93594006667259       -0.92869116356585
O            2.31697785403761        0.77428438897913        0.91887490379539
O           -0.04808025286883        1.22961940689835       -1.74990625610335
O           -0.30541084919033        1.66418286225825        1.80691983037330
O           -1.58258037140071       -0.98468818053459       -1.62911918513949
H           -3.01978321616309       -0.24455258388839       -0.35073602037950
H           -2.42317269840683       -1.89860083784850       -0.06606395211716
H            0.00728797261292       -1.73529399658976       -1.35948617131476
H            1.74639197937938        0.93917265573289        1.68349225086630
H           -0.33985713225276        2.09700665325015       -2.04803042269132
H           -0.91031554818077        1.43321039025638        2.52139486686035
H           -1.16469788932177       -0.13877823663410       -1.88207069676550
24
 energy: -43.358673928186 gnorm: 0.000306205524 xtb: 6.7.1 (edcfbbe)
C           -2.12365379207215       -0.88305778159292       -0.34227674260829
C           -1.19142190023518       -0.34835665347530        0.76978825717380
H           -1.79407088653663       -0.40305377650633        1.69054469040419
C           -0.77311259813956        1.12421562914118        0.59031756234236
H           -1.64863174957552        1.69727860103343        0.23419170694221
C            0.38887261881696        1.30759001289975       -0.40660091305463
H            0.82271256695889        2.29634880026581       -0.20721365969122
C            1.51368582098698        0.29043040014382       -0.12491983048305
H            2.15373026373229        0.22320708432669       -1.01053593705889
C            1.02623422105201       -1.15032968470182        0.19577973110147
H            1.82650152063519       -1.62288937641639        0.78212432632119
O           -0.08243125576376       -1.16930221571405        1.07099336494156
O            0.86430963413268       -1.93716311635183       -0.92720749019316
O            2.31778585803998        0.77428180933615        0.91770288079851
O           -0.04765444350969        1.23007773154001       -1.74988501120703
O           -0.30481957880290        1.66389126060317        1.80726192872176
O           -1.58095473556228       -0.98495345318264       -1.62971747954588
H           -3.01879115750061       -0.24263897159292       -0.35328673647330
H           -2.42441239342202       -1.89719694909648       -0.06718926225805
H            0.00783314950864       -1.73715315470089       -1.35847210343583
H            1.74758250891169        0.94067592787383        1.68230495056106
H           -0.34776865143934        2.09582802185715       -2.04489943910006
H           -0.90816991928749        1.43037908609731        2.52226357062985
H           -1.16133406528321       -0.13965576857369       -1.88221848920299
24
 energy: -43.358674470246 gnorm: 0.000200515283 xtb: 6.7.1 (edcfbbe)
C           -2.12349206711276       -0.88219776998497       -0.34335212392396
C           -1.19193125758239       -0.34781663246159        0.76935990741190
H           -1.79508293754351       -0.40258886404839        1.68978086528805
C           -0.77296031106405        1.12457907049310        0.59041040590726
H           -1.64822475621542        1.69833526180149        0.23469945060682
C            0.38891372268276        1.30777078626467       -0.40653521513724
H            0.82317868619419        2.29643074971710       -0.20728078754568
C            1.51335320457031        0.29022238064261       -0.12518900342824
H            2.15267987854570        0.22240297457313       -1.01127024636486
C            1.02591979114046       -1.15027949808540        0.19658232773492
H            1.82598707238038       -1.62224345954298        0.78371872337415
O           -0.08323616894621       -1.16902707587451        1.07103520156377
O            0.86487947204549       -1.93808461630020       -0.92591156129932
O            2.31853754712480        0.77426496501583        0.91653426642534
O           -0.04749622483947        1.23062143608219       -1.74985508429790
O           -0.30423370700557        1.66359218644295        1.80751613211267
O           -1.57951923941393       -0.98514939146300       -1.63021609813415
H           -3.01814247197687       -0.24114608010805       -0.35567322961932
H           -2.42522795437837       -1.89600514253051       -0.06812257382578
H            0.00837724830711       -1.73900811290150       -1.35748861629006
H            1.74900473373538        0.94173115758466        1.68140237045217
H           -0.35493335420889        2.09486610684987       -2.04188292041860
H           -0.90626750738599        1.42779068179160        2.52293184590847
H           -1.15806236340816       -0.14060765074508       -1.88234416087484
24
 energy: -43.358674624411 gnorm: 0.000062514290 xtb: 6.7.1 (edcfbbe)
C           -2.12342587092085       -0.88175613314464       -0.34390372453876
C           -1.19222740537169       -0.34743319506698        0.76911269569728
H           -1.79556470791284       -0.40219849109716        1.68939635203040
C           -0.77294306497717        1.12486311397174        0.59051929163399
H           -1.64813358980936        1.69900828968045        0.23517708511218
C            0.38887801271598        1.30781393977374       -0.40643942832171
H            0.82335902663402        2.29643804602673       -0.20730956737973
C            1.51321790576048        0.29012927504674       -0.12542501311828
H            2.15221334647892        0.22196605903781       -1.01174407955039
C            1.02569676770118       -1.15015818480902        0.19696125813180
H            1.82563738338090       -1.62178180420817        0.78459501967795
O           -0.08369418087918       -1.16883407411451        1.07098376357144
O            0.86521923210245       -1.93858196065173       -0.92521329436079
O            2.31895229328274        0.77447110263302        0.91573307650699
O           -0.04748030280992        1.23086639459793       -1.74979364386111
O           -0.30400366428549        1.66333061689029        1.80781997244873
O           -1.57884836066405       -0.98526090628380       -1.63049132015776
H           -3.01788711644723       -0.24051175167683       -0.35695968669926
H           -2.42552982827874       -1.89544384899855       -0.06859288132391
H            0.00865576725560       -1.74020970943112       -1.35695892417355
H            1.74994136040304        0.94210790460714        1.68092355441984
H           -0.35814036147096        2.09440267297512       -2.04034786559943
H           -0.90540514263912        1.42638300333280        2.52334704228373
H           -1.15646646360374       -0.14115689587796       -1.88253980680409
24
 energy: -43.358674572328 gnorm: 0.000167584735 xtb: 6.7.1 (edcfbbe)
C           -2.12337043884621       -0.88141386020942       -0.34429057331191
C           -1.19242843703408       -0.34713096848553        0.76893892805533
H           -1.79586550978826       -0.40187858630197        1.68914326086755
C           -0.77295570463729        1.12509714384600        0.59060022902470
H           -1.64811204286408        1.69951543165804        0.23553633207225
C            0.38886049128311        1.30780233815009       -0.40633885252381
H            0.82349059074697        2.29640506686342       -0.20731219330940
C            1.51315984162971        0.29004592304703       -0.12562421250332
H            2.15194509405315        0.22163640267700       -1.01210173322470