      -----------------------------------------------------------      
     |                   =====================                   |     
     |                           x T B                           |     
     |                   =====================                   |     
     |                         S. Grimme                         |     
     |          Mulliken Center for Theoretical Chemistry        |     
     |                    University of Bonn                     |     
      -----------------------------------------------------------      

   * xtb version 6.7.1 (edcfbbe) compiled by 'albert@albert-system' on 2024-07-22

   xtb is free software: you can redistribute it and/or modify it under
   the terms of the GNU Lesser General Public License as published by
   the Free Software Foundation, either version 3 of the License, or
   (at your option) any later version.
   
   xtb is distributed in the hope that it will be useful,
   but WITHOUT ANY WARRANTY; without even the implied warranty of
   MERCHANTABILITY or FITNESS FOR A PARTICULAR PURPOSE.  See the
   GNU Lesser General Public License for more details.
   
   Cite this work as:
   * C. Bannwarth, E. Caldeweyher, S. Ehlert, A. Hansen, P. Pracht,
     J. Seibert, S. Spicher, S. Grimme, WIREs Comput. Mol. Sci., 2020, 11,
     e01493. DOI: 10.1002/wcms.1493
   
   for GFN2-xTB:
   * C. Bannwarth, S. Ehlert and S. Grimme., J. Chem. Theory Comput., 2019,
     15, 1652-1671. DOI: 10.1021/acs.jctc.8b01176
   for GFN1-xTB:
   * S. Grimme, C. Bannwarth, P. Shushkov, J. Chem. Theory Comput., 2017,
     13, 1989-2009. DOI: 10.1021/acs.jctc.7b00118
   for GFN0-xTB:
   * P. Pracht, E. Caldeweyher, S. Ehlert, S. Grimme, ChemRxiv, 2019, preprint.
     DOI: 10.26434/chemrxiv.8326202.v1
   for GFN-FF:
   * S. Spicher and S. Grimme, Angew. Chem. Int. Ed., 2020, 59, 15665-15673.
     DOI: 10.1002/anie.202004239
   
   for ALPB and GBSA implicit solvation:
   * S. Ehlert, M. Stahn, S. Spicher, S. Grimme, J. Chem. Theory Comput.,
     2021, 17, 4250-4261. DOI: 10.1021/acs.jctc.1c00471
   
   for ddCOSMO and CPCM-X implicit solvation:
   * M. Stahn, S. Ehlert, S. Grimme, J. Phys. Chem. A,
     2023, XX, XXXX-XXXX. DOI: 10.1021/acs.jpca.3c04382
   
   for DFT-D4:
   * E. Caldeweyher, C. Bannwarth and S. Grimme, J. Chem. Phys., 2017,
     147, 034112. DOI: 10.1063/1.4993215
   * E. Caldeweyher, S. Ehlert, A. Hansen, H. Neugebauer, S. Spicher,
     C. Bannwarth and S. Grimme, J. Chem. Phys., 2019, 150, 154122.
     DOI: 10.1063/1.5090222
   * E. Caldeweyher, J.-M. Mewes, S. Ehlert and S. Grimme, Phys. Chem. Chem. Phys.
     2020, 22, 8499-8512. DOI: 10.1039/D0CP00502A
   
   for sTDA-xTB:
   * S. Grimme and C. Bannwarth, J. Chem. Phys., 2016, 145, 054103.
     DOI: 10.1063/1.4959605
   
   in the mass-spec context:
   * V. Asgeirsson, C. Bauer and S. Grimme, Chem. Sci., 2017, 8, 4879.
     DOI: 10.1039/c7sc00601b
   * J. Koopman and S. Grimme, ACS Omega 2019, 4, 12, 15120-15133.
     DOI: 10.1021/acsomega.9b02011
   
   for metadynamics refer to:
   * S. Grimme, J. Chem. Theory Comput., 2019, 155, 2847-2862
     DOI: 10.1021/acs.jctc.9b00143
   
   for SPH calculations refer to:
   * S. Spicher and S. Grimme, J. Chem. Theory Comput., 2021, 17, 1701-1714
     DOI: 10.1021/acs.jctc.0c01306
   
   for ONIOM refer to:
   * C. Plett, A. Katbashev, S. Ehlert, S. Grimme, M. Bursch,
     Phys. Chem. Chem. Phys., 2023, 25, 17860-17868. DOI: 10.1039/D3CP02178E
   
   for DIPRO refer to:
   * J. Kohn, N. Gildemeister, S. Grimme, D. Fazzi, A. Hansen,
     J. Chem. Phys., 2023, just accepted.
   
   for PTB refer to:
   * S. Grimme, M. Mueller, A. Hansen, J. Chem. Phys., 2023, 158, 124111.
     DOI: 10.1063/5.0137838
   
   with help from (in alphabetical order)
   P. Atkinson, C. Bannwarth, F. Bohle, G. Brandenburg, E. Caldeweyher
   M. Checinski, S. Dohm, S. Ehlert, S. Ehrlich, I. Gerasimov, C. Hölzer
   A. Katbashev, J. Kohn, J. Koopman, C. Lavigne, S. Lehtola, F. März, M. Müller,
   F. Musil, H. Neugebauer, J. Pisarek, C. Plett, P. Pracht, F. Pultar,
   J. Seibert, P. Shushkov, S. Spicher, M. Stahn, M. Steiner, T. Strunk,
   J. Stückrath, T. Rose, and J. Unsleber
   
 * started run on 2025/04/15 at 20:36:49.289     
   ID    Z sym.   atoms
    1    6 C      1-12
    2   17 Cl     13-19
    3    1 H      20-22

           -------------------------------------------------
          |                Calculation Setup                |
           -------------------------------------------------

          program call               : /software/projects/pawsey0265/mwang1/xtb/bin/xtb xtb_rrho.coord --gfn2 --ohess vtight --chrg 0 --enso --norestart -I rrho-xcontrol-inp --parallel 1
          hostname                   : nid002803
          coordinate file            : xtb_rrho.coord
          omp threads                :                     1


           -------------------------------------------------
          |                 G F N 2 - x T B                 |
           -------------------------------------------------

        Reference                      10.1021/acs.jctc.8b01176
      * Hamiltonian:
        H0-scaling (s, p, d)           1.850000    2.230000    2.230000
        zeta-weighting                 0.500000
      * Dispersion:
        s8                             2.700000
        a1                             0.520000
        a2                             5.000000
        s9                             5.000000
      * Repulsion:
        kExp                           1.500000    1.000000
        rExp                           1.000000
      * Coulomb:
        alpha                          2.000000
        third order                    shell-resolved
        anisotropic                    true
        a3                             3.000000
        a5                             4.000000
        cn-shift                       1.200000
        cn-exp                         4.000000
        max-rad                        5.000000


          ...................................................
          :                      SETUP                      :
          :.................................................:
          :  # basis functions                 121          :
          :  # atomic orbitals                 114          :
          :  # shells                           48          :
          :  # electrons                       100          :
          :  max. iterations                   250          :
          :  Hamiltonian                  GFN2-xTB          :
          :  restarted?                      false          :
          :  GBSA solvation                  false          :
          :  PC potential                    false          :
          :  electronic temp.          300.0000000     K    :
          :  accuracy                    1.0000000          :
          :  -> integral cutoff          0.2500000E+02      :
          :  -> integral neglect         0.1000000E-07      :
          :  -> SCF convergence          0.1000000E-05 Eh   :
          :  -> wf. convergence          0.1000000E-03 e    :
          :  Broyden damping             0.4000000          :
          :  net charge                          0          :
          :  unpaired electrons                  0          :
          ...................................................

 iter      E             dE          RMSdq      gap      omega  full diag
   1    -59.5472987 -0.595473E+02  0.515E+00    3.85       0.0  T
   2    -59.5928402 -0.455414E-01  0.293E+00    3.43       1.0  T
   3    -59.5807896  0.120505E-01  0.128E+00    3.50       1.0  T
   4    -59.5964724 -0.156828E-01  0.438E-01    3.53       1.0  T
   5    -59.6008238 -0.435131E-02  0.103E-01    3.48       1.0  T
   6    -59.6008815 -0.577279E-04  0.698E-02    3.48       1.0  T
   7    -59.6009139 -0.324452E-04  0.424E-02    3.49       1.0  T
   8    -59.6009218 -0.788826E-05  0.307E-02    3.48       1.0  T
   9    -59.6009288 -0.702170E-05  0.141E-02    3.48       1.5  T
  10    -59.6009305 -0.168104E-05  0.752E-03    3.48       2.8  T
  11    -59.6009309 -0.348385E-06  0.410E-03    3.48       5.2  T
  12    -59.6009310 -0.111895E-06  0.320E-03    3.48       6.7  T
  13    -59.6009311 -0.853186E-07  0.219E-03    3.48       9.7  T
  14    -59.6009311 -0.603211E-07  0.113E-03    3.48      18.9  T
  15    -59.6009311 -0.130010E-07  0.559E-04    3.48      38.1  T
  16    -59.6009311 -0.390406E-08  0.264E-04    3.48      80.8  T

   *** convergence criteria satisfied after 16 iterations ***

         #    Occupation            Energy/Eh            Energy/eV
      -------------------------------------------------------------
         1        2.0000           -1.0786658             -29.3520
       ...           ...                  ...                  ...
        44        2.0000           -0.4400776             -11.9751
        45        2.0000           -0.4393603             -11.9556
        46        2.0000           -0.4369536             -11.8901
        47        2.0000           -0.4237859             -11.5318
        48        2.0000           -0.4209255             -11.4540
        49        2.0000           -0.4177425             -11.3674
        50        2.0000           -0.4162798             -11.3275 (HOMO)
        51                         -0.2882280              -7.8431 (LUMO)
        52                         -0.2824665              -7.6863
        53                         -0.2763021              -7.5186
        54                         -0.2728598              -7.4249
        55                         -0.1954652              -5.3189
       ...                                ...                  ...
       114                          0.5835390              15.8789
      -------------------------------------------------------------
                  HL-Gap            0.1280518 Eh            3.4845 eV
             Fermi-level           -0.3522539 Eh           -9.5853 eV

 SCC (total)                   0 d,  0 h,  0 min,  0.087 sec
 SCC setup                      ...        0 min,  0.000 sec (  0.370%)
 Dispersion                     ...        0 min,  0.000 sec (  0.211%)
 classical contributions        ...        0 min,  0.000 sec (  0.048%)
 integral evaluation            ...        0 min,  0.013 sec ( 14.680%)
 iterations                     ...        0 min,  0.047 sec ( 53.524%)
 molecular gradient             ...        0 min,  0.027 sec ( 30.717%)
 printout                       ...        0 min,  0.000 sec (  0.414%)

         :::::::::::::::::::::::::::::::::::::::::::::::::::::
         ::                     SUMMARY                     ::
         :::::::::::::::::::::::::::::::::::::::::::::::::::::
         :: total energy             -59.101578377592 Eh    ::
         :: gradient norm              0.022623638493 Eh/a0 ::
         :: HOMO-LUMO gap              3.484466125281 eV    ::
         ::.................................................::
         :: SCC energy               -59.600796861321 Eh    ::
         :: -> isotropic ES            0.023444686778 Eh    ::
         :: -> anisotropic ES         -0.003990738948 Eh    ::
         :: -> anisotropic XC          0.012807873493 Eh    ::
         :: -> dispersion             -0.039020278698 Eh    ::
         :: repulsion energy           0.499218483729 Eh    ::
         :: add. restraining           0.000000000000 Eh    ::
         :: total charge              -0.000000000000 e     ::
         :::::::::::::::::::::::::::::::::::::::::::::::::::::

      ----------------------------------------------------------- 
     |                   =====================                   |
     |                        A N C O P T                        |
     |                   =====================                   |
     |               Approximate Normal Coordinate               |
     |                Rational Function Optimizer                |
      ----------------------------------------------------------- 
      ----------------------------------------------------------- 
     |                   =====================                   |
     |                        A N C O P T                        |
     |                   =====================                   |
     |               Approximate Normal Coordinate               |
     |                Rational Function Optimizer                |
      ----------------------------------------------------------- 

          ...................................................
          :                      SETUP                      :
          :.................................................:
          :   optimization level         verytight          :
          :   max. optcycles                   440          :
          :   ANC micro-cycles                  20          :
          :   degrees of freedom                60          :
          :.................................................:
          :   RF solver                   davidson          :
          :   write xtbopt.log                true          :
          :   linear?                        false          :
          :   energy convergence         0.1000000E-06 Eh   :
          :   grad. convergence          0.2000000E-03 Eh/α :
          :   maxmium RF displ.          1.0000000          :
          :   Hlow (freq-cutoff)         0.1000000E-01      :
          :   Hmax (freq-cutoff)         5.0000000          :
          :   S6 in model hess.         20.0000000          :
          ...................................................

generating ANC from exact Hessian ...
Using Lindh-Hessian (1995)
 Shifting diagonal of input Hessian by   8.425582185807004E-003
 Lowest  eigenvalues of input Hessian
    0.000000    0.000000    0.000000    0.000000    0.000000    0.000000
    0.010000    0.010091    0.010259    0.016209    0.017435    0.017985
    0.018412    0.023495    0.024506    0.026162    0.030142    0.031145
 Highest eigenvalues
    1.796963    1.807006    1.927105    1.945383    1.962570    2.026364
 

........................................................................
.............................. CYCLE    1 ..............................
........................................................................

 iter      E             dE          RMSdq      gap      omega  full diag
   1    -59.6009311 -0.596009E+02  0.183E-04    3.48       0.0  T
   2    -59.6009311 -0.140929E-09  0.149E-04    3.48     143.1  T
   3    -59.6009311 -0.108358E-09  0.124E-04    3.48     171.8  T
     SCC iter.                  ...        0 min,  0.009 sec
     gradient                   ...        0 min,  0.026 sec
 * total energy  :   -59.1015784 Eh     change       -0.5000445E-09 Eh
   gradient norm :     0.0226231 Eh/α   predicted     0.0000000E+00 (-100.00%)
   displ. norm   :     0.1409550 α      lambda       -0.1862153E-02
   maximum displ.:     0.0639236 α      in ANC's #18, #32, #3, ...

........................................................................
.............................. CYCLE    2 ..............................
........................................................................

 iter      E             dE          RMSdq      gap      omega  full diag
   1    -59.6184380 -0.596184E+02  0.106E-01    3.51       0.0  T
   2    -59.6184504 -0.123590E-04  0.743E-02    3.51       1.0  T
   3    -59.6184405  0.985535E-05  0.445E-02    3.51       1.0  T
   4    -59.6184695 -0.290270E-04  0.169E-02    3.51       1.3  T
   5    -59.6184702 -0.668872E-06  0.132E-02    3.51       1.6  T
   6    -59.6184716 -0.135897E-05  0.343E-03    3.51       6.2  T
   7    -59.6184717 -0.158593E-06  0.172E-03    3.51      12.4  T
   8    -59.6184717 -0.201518E-07  0.111E-03    3.51      19.3  T
   9    -59.6184717 -0.789335E-08  0.776E-04    3.51      27.5  T
  10    -59.6184717 -0.429648E-08  0.511E-04    3.51      41.8  T
     SCC iter.                  ...        0 min,  0.027 sec
     gradient                   ...        0 min,  0.026 sec
 * total energy  :   -59.1028333 Eh     change       -0.1254932E-02 Eh
   gradient norm :     0.0142349 Eh/α   predicted    -0.9495823E-03 ( -24.33%)
   displ. norm   :     0.1312026 α      lambda       -0.5570916E-03
   maximum displ.:     0.0835841 α      in ANC's #3, #4, #5, ...

........................................................................
.............................. CYCLE    3 ..............................
........................................................................

 iter      E             dE          RMSdq      gap      omega  full diag
   1    -59.6253586 -0.596254E+02  0.812E-02    3.51       0.0  T
   2    -59.6253675 -0.887217E-05  0.559E-02    3.51       1.0  T
   3    -59.6253642  0.329191E-05  0.345E-02    3.51       1.0  T
   4    -59.6253792 -0.150592E-04  0.133E-02    3.51       1.6  T
   5    -59.6253798 -0.586833E-06  0.103E-02    3.51       2.1  T
   6    -59.6253805 -0.634330E-06  0.458E-03    3.51       4.7  T
   7    -59.6253807 -0.230104E-06  0.174E-03    3.51      12.2  T
   8    -59.6253807 -0.220071E-07  0.111E-03    3.51      19.3  T
   9    -59.6253807 -0.973667E-08  0.765E-04    3.51      27.9  T
  10    -59.6253807 -0.451870E-08  0.496E-04    3.51      43.0  T
     SCC iter.                  ...        0 min,  0.028 sec
     gradient                   ...        0 min,  0.026 sec
 * total energy  :   -59.1031785 Eh     change       -0.3451982E-03 Eh
   gradient norm :     0.0072988 Eh/α   predicted    -0.2833734E-03 ( -17.91%)
   displ. norm   :     0.0970940 α      lambda       -0.1292056E-03
   maximum displ.:     0.0840659 α      in ANC's #3, #4, #5, ...

........................................................................
.............................. CYCLE    4 ..............................
........................................................................

 iter      E             dE          RMSdq      gap      omega  full diag
   1    -59.6249727 -0.596250E+02  0.461E-02    3.50       0.0  T
   2    -59.6249753 -0.259671E-05  0.296E-02    3.50       1.0  T
   3    -59.6249731  0.220127E-05  0.169E-02    3.50       1.3  T
   4    -59.6249772 -0.411146E-05  0.568E-03    3.50       3.8  T
   5    -59.6249774 -0.218037E-06  0.422E-03    3.50       5.1  T
   6    -59.6249775 -0.575805E-07  0.271E-03    3.50       7.9  T
   7    -59.6249775 -0.778942E-07  0.105E-03    3.50      20.3  T
   8    -59.6249775 -0.811295E-08  0.610E-04    3.50      34.9  T
   9    -59.6249776 -0.314787E-08  0.429E-04    3.50      49.7  T
     SCC iter.                  ...        0 min,  0.026 sec
     gradient                   ...        0 min,  0.026 sec
 * total energy  :   -59.1032702 Eh     change       -0.9172693E-04 Eh
   gradient norm :     0.0024266 Eh/α   predicted    -0.6521539E-04 ( -28.90%)
   displ. norm   :     0.0848041 α      lambda       -0.5911875E-04
   maximum displ.:     0.0797120 α      in ANC's #3, #4, #1, ...

........................................................................
.............................. CYCLE    5 ..............................
........................................................................

 iter      E             dE          RMSdq      gap      omega  full diag
   1    -59.6232540 -0.596233E+02  0.366E-02    3.49       0.0  T
   2    -59.6232548 -0.740966E-06  0.221E-02    3.49       1.0  T
   3    -59.6232535  0.121549E-05  0.912E-03    3.49       2.3  T
   4    -59.6232551 -0.151317E-05  0.234E-03    3.49       9.1  T
   5    -59.6232551 -0.603322E-07  0.156E-03    3.49      13.7  T
   6    -59.6232551 -0.811157E-08  0.117E-03    3.49      18.3  T
   7    -59.6232551 -0.134845E-07  0.669E-04    3.49      31.9  T
   8    -59.6232551 -0.476938E-08  0.345E-04    3.49      61.7  T
     SCC iter.                  ...        0 min,  0.023 sec
     gradient                   ...        0 min,  0.026 sec
 * total energy  :   -59.1033148 Eh     change       -0.4454320E-04 Eh
   gradient norm :     0.0019222 Eh/α   predicted    -0.2986659E-04 ( -32.95%)
   displ. norm   :     0.0877099 α      lambda       -0.2815879E-04
   maximum displ.:     0.0832942 α      in ANC's #3, #1, #2, ...

........................................................................
.............................. CYCLE    6 ..............................
........................................................................

 iter      E             dE          RMSdq      gap      omega  full diag
   1    -59.6219000 -0.596219E+02  0.377E-02    3.48       0.0  T
   2    -59.6219001 -0.120117E-06  0.222E-02    3.48       1.0  T
   3    -59.6218999  0.249316E-06  0.400E-03    3.48       5.3  T
   4    -59.6219002 -0.317923E-06  0.119E-03    3.48      17.9  T
   5    -59.6219002 -0.593553E-08  0.889E-04    3.48      24.0  T
   6    -59.6219002 -0.438257E-08  0.565E-04    3.48      37.7  T
     SCC iter.                  ...        0 min,  0.017 sec
     gradient                   ...        0 min,  0.026 sec
 * total energy  :   -59.1033501 Eh     change       -0.3528115E-04 Eh
   gradient norm :     0.0026934 Eh/α   predicted    -0.1413557E-04 ( -59.93%)
   displ. norm   :     0.0487658 α      lambda       -0.2316922E-04
   maximum displ.:     0.0433306 α      in ANC's #3, #1, #2, ...

........................................................................
.............................. CYCLE    7 ..............................
........................................................................

 iter      E             dE          RMSdq      gap      omega  full diag
   1    -59.6219966 -0.596220E+02  0.217E-02    3.48       0.0  T
   2    -59.6219966 -0.447573E-07  0.128E-02    3.48       1.7  T
   3    -59.6219965  0.117688E-06  0.231E-03    3.48       9.2  T
   4    -59.6219967 -0.140946E-06  0.871E-04    3.48      24.5  T
   5    -59.6219967 -0.591781E-08  0.647E-04    3.48      32.9  T
     SCC iter.                  ...        0 min,  0.014 sec
     gradient                   ...        0 min,  0.026 sec
 * total energy  :   -59.1033718 Eh     change       -0.2171176E-04 Eh
   gradient norm :     0.0019716 Eh/α   predicted    -0.1162448E-04 ( -46.46%)
   displ. norm   :     0.1140875 α      lambda       -0.3276444E-04
   maximum displ.:     0.0932987 α      in ANC's #3, #1, #2, ...

........................................................................
.............................. CYCLE    8 ..............................
........................................................................

 iter      E             dE          RMSdq      gap      omega  full diag
   1    -59.6227093 -0.596227E+02  0.517E-02    3.47       0.0  T
   2    -59.6227096 -0.256324E-06  0.305E-02    3.47       1.0  T
   3    -59.6227091  0.466227E-06  0.501E-03    3.47       4.3  T
   4    -59.6227097 -0.559623E-06  0.162E-03    3.47      13.1  T
   5    -59.6227097 -0.237509E-07  0.116E-03    3.47      18.4  T
   6    -59.6227097 -0.354454E-08  0.715E-04    3.47      29.8  T
   7    -59.6227097 -0.620377E-08  0.320E-04    3.47      66.6  T
     SCC iter.                  ...        0 min,  0.020 sec
     gradient                   ...        0 min,  0.026 sec
 * total energy  :   -59.1034134 Eh     change       -0.4167157E-04 Eh
   gradient norm :     0.0009702 Eh/α   predicted    -0.1648279E-04 ( -60.45%)
   displ. norm   :     0.1394709 α      lambda       -0.2932017E-04
   maximum displ.:     0.1077920 α      in ANC's #3, #2, #1, ...

........................................................................
.............................. CYCLE    9 ..............................
........................................................................

 iter      E             dE          RMSdq      gap      omega  full diag
   1    -59.6232325 -0.596232E+02  0.624E-02    3.45       0.0  T
   2    -59.6232326 -0.129265E-06  0.367E-02    3.45       1.0  T
   3    -59.6232321  0.586401E-06  0.487E-03    3.45       4.4  T
   4    -59.6232327 -0.688438E-06  0.802E-04    3.45      26.6  T
   5    -59.6232327 -0.225027E-08  0.581E-04    3.45      36.7  T
     SCC iter.                  ...        0 min,  0.014 sec
     gradient                   ...        0 min,  0.027 sec
 * total energy  :   -59.1034522 Eh     change       -0.3878950E-04 Eh
   gradient norm :     0.0016170 Eh/α   predicted    -0.1478790E-04 ( -61.88%)
   displ. norm   :     0.1771896 α      lambda       -0.3081227E-04
   maximum displ.:     0.1301374 α      in ANC's #3, #2, #1, ...

........................................................................
.............................. CYCLE   10 ..............................
........................................................................

 iter      E             dE          RMSdq      gap      omega  full diag
   1    -59.6232505 -0.596233E+02  0.788E-02    3.43       0.0  T
   2    -59.6232507 -0.220409E-06  0.464E-02    3.43       1.0  T
   3    -59.6232495  0.123721E-05  0.688E-03    3.43       3.1  T
   4    -59.6232509 -0.143356E-05  0.115E-03    3.43      18.6  T
   5    -59.6232509 -0.399089E-08  0.865E-04    3.43      24.6  T
   6    -59.6232509 -0.366258E-08  0.605E-04    3.43      35.2  T
     SCC iter.                  ...        0 min,  0.017 sec
     gradient                   ...        0 min,  0.026 sec
 * total energy  :   -59.1034919 Eh     change       -0.3967313E-04 Eh
   gradient norm :     0.0015745 Eh/α   predicted    -0.1562263E-04 ( -60.62%)
   displ. norm   :     0.2293492 α      lambda       -0.3025709E-04
   maximum displ.:     0.1635558 α      in ANC's #3, #2, #1, ...

........................................................................
.............................. CYCLE   11 ..............................
........................................................................

 iter      E             dE          RMSdq      gap      omega  full diag
   1    -59.6227154 -0.596227E+02  0.102E-01    3.40       0.0  T
   2    -59.6227159 -0.495649E-06  0.601E-02    3.41       1.0  T
   3    -59.6227137  0.220773E-05  0.934E-03    3.41       2.3  T
   4    -59.6227162 -0.255194E-05  0.168E-03    3.41      12.7  T
   5    -59.6227162 -0.174925E-07  0.126E-03    3.41      17.0  T
   6    -59.6227162 -0.612644E-08  0.907E-04    3.41      23.5  T
   7    -59.6227163 -0.706169E-08  0.623E-04    3.41      34.2  T
     SCC iter.                  ...        0 min,  0.019 sec
     gradient                   ...        0 min,  0.027 sec
 * total energy  :   -59.1035242 Eh     change       -0.3231854E-04 Eh
   gradient norm :     0.0009568 Eh/α   predicted    -0.1548326E-04 ( -52.09%)
   displ. norm   :     0.1275136 α      lambda       -0.9140173E-05
   maximum displ.:     0.0862590 α      in ANC's #3, #2, #1, ...

........................................................................
.............................. CYCLE   12 ..............................
........................................................................

 iter      E             dE          RMSdq      gap      omega  full diag
   1    -59.6226262 -0.596226E+02  0.569E-02    3.39       0.0  T
   2    -59.6226264 -0.208182E-06  0.335E-02    3.39       1.0  T
   3    -59.6226255  0.947276E-06  0.624E-03    3.39       3.4  T
   4    -59.6226266 -0.109642E-05  0.121E-03    3.39      17.6  T
   5    -59.6226266 -0.811134E-08  0.927E-04    3.39      23.0  T
   6    -59.6226266 -0.352893E-08  0.641E-04    3.39      33.3  T
     SCC iter.                  ...        0 min,  0.017 sec
     gradient                   ...        0 min,  0.027 sec
 * total energy  :   -59.1035327 Eh     change       -0.8525463E-05 Eh
   gradient norm :     0.0005331 Eh/α   predicted    -0.4603563E-05 ( -46.00%)
   displ. norm   :     0.0298583 α      lambda       -0.2469570E-05
   maximum displ.:     0.0262285 α      in ANC's #2, #3, #4, ...

........................................................................
.............................. CYCLE   13 ..............................
........................................................................

 iter      E             dE          RMSdq      gap      omega  full diag
   1    -59.6228079 -0.596228E+02  0.139E-02    3.39       0.0  T
   2    -59.6228079 -0.317444E-07  0.826E-03    3.39       2.6  T
   3    -59.6228078  0.154770E-06  0.258E-03    3.39       8.3  T
   4    -59.6228080 -0.182514E-06  0.614E-04    3.39      34.7  T
   5    -59.6228080 -0.171561E-08  0.498E-04    3.39      42.8  T
     SCC iter.                  ...        0 min,  0.014 sec
     gradient                   ...        0 min,  0.026 sec
 * total energy  :   -59.1035355 Eh     change       -0.2740829E-05 Eh
   gradient norm :     0.0003191 Eh/α   predicted    -0.1237006E-05 ( -54.87%)
   displ. norm   :     0.0234030 α      lambda       -0.2009082E-05
   maximum displ.:     0.0181420 α      in ANC's #2, #1, #3, ...

........................................................................
.............................. CYCLE   14 ..............................
........................................................................

 iter      E             dE          RMSdq      gap      omega  full diag
   1    -59.6230211 -0.596230E+02  0.976E-03    3.39       0.0  T
   2    -59.6230211 -0.165015E-07  0.581E-03    3.39       3.7  T
   3    -59.6230210  0.690278E-07  0.217E-03    3.39       9.8  T
   4    -59.6230211 -0.879439E-07  0.600E-04    3.39      35.5  T
   5    -59.6230211 -0.128518E-08  0.473E-04    3.39      45.1  T
     SCC iter.                  ...        0 min,  0.014 sec
     gradient                   ...        0 min,  0.026 sec
 * total energy  :   -59.1035379 Eh     change       -0.2442491E-05 Eh
   gradient norm :     0.0003151 Eh/α   predicted    -0.1007007E-05 ( -58.77%)
   displ. norm   :     0.0263639 α      lambda       -0.1723851E-05
   maximum displ.:     0.0185034 α      in ANC's #2, #3, #1, ...

........................................................................
.............................. CYCLE   15 ..............................
........................................................................

 iter      E             dE          RMSdq      gap      omega  full diag
   1    -59.6230041 -0.596230E+02  0.103E-02    3.39       0.0  T
   2    -59.6230042 -0.917551E-08  0.608E-03    3.39       3.5  T
   3    -59.6230041  0.487312E-07  0.175E-03    3.39      12.2  T
   4    -59.6230042 -0.586032E-07  0.387E-04    3.39      55.1  T
   5    -59.6230042 -0.439222E-09  0.318E-04    3.39      67.1  T
     SCC iter.                  ...        0 min,  0.014 sec
     gradient                   ...        0 min,  0.026 sec
 * total energy  :   -59.1035401 Eh     change       -0.2198433E-05 Eh
   gradient norm :     0.0002912 Eh/α   predicted    -0.8661437E-06 ( -60.60%)
   displ. norm   :     0.0253098 α      lambda       -0.1323272E-05
   maximum displ.:     0.0174642 α      in ANC's #2, #3, #1, ...

........................................................................
.............................. CYCLE   16 ..............................
........................................................................

 iter      E             dE          RMSdq      gap      omega  full diag
   1    -59.6229670 -0.596230E+02  0.970E-03    3.39       0.0  T
   2    -59.6229670 -0.355617E-08  0.572E-03    3.39       3.7  T
   3    -59.6229670  0.309179E-07  0.105E-03    3.39      20.3  T
   4    -59.6229670 -0.356420E-07  0.244E-04    3.39      87.5  T
   5    -59.6229670 -0.167141E-09  0.181E-04    3.39     117.6  T
     SCC iter.                  ...        0 min,  0.014 sec
     gradient                   ...        0 min,  0.026 sec
 * total energy  :   -59.1035418 Eh     change       -0.1625270E-05 Eh
   gradient norm :     0.0002509 Eh/α   predicted    -0.6636805E-06 ( -59.16%)
   displ. norm   :     0.0188194 α      lambda       -0.7669012E-06
   maximum displ.:     0.0144412 α      in ANC's #2, #3, #1, ...

........................................................................
.............................. CYCLE   17 ..............................
........................................................................

 iter      E             dE          RMSdq      gap      omega  full diag
   1    -59.6229027 -0.596229E+02  0.732E-03    3.39       0.0  T
   2    -59.6229027 -0.514778E-08  0.434E-03    3.39       4.9  T
   3    -59.6229026  0.286643E-07  0.119E-03    3.39      18.0  T
   4    -59.6229027 -0.336477E-07  0.260E-04    3.39      81.9  T
   5    -59.6229027 -0.289198E-09  0.208E-04    3.39     102.3  T
     SCC iter.                  ...        0 min,  0.014 sec
     gradient                   ...        0 min,  0.026 sec
 * total energy  :   -59.1035427 Eh     change       -0.9112954E-06 Eh
   gradient norm :     0.0001640 Eh/α   predicted    -0.3853587E-06 ( -57.71%)
   displ. norm   :     0.0118909 α      lambda       -0.4102694E-06
   maximum displ.:     0.0106354 α      in ANC's #2, #3, #7, ...

........................................................................
.............................. CYCLE   18 ..............................
........................................................................

 iter      E             dE          RMSdq      gap      omega  full diag
   1    -59.6228588 -0.596229E+02  0.484E-03    3.39       0.0  T
   2    -59.6228588 -0.437165E-08  0.289E-03    3.39       7.4  T
   3    -59.6228588  0.169332E-07  0.103E-03    3.39      20.8  T
   4    -59.6228588 -0.209459E-07  0.249E-04    3.39      85.8  T
   5    -59.6228588 -0.246622E-09  0.202E-04    3.39     105.7  T
     SCC iter.                  ...        0 min,  0.015 sec
     gradient                   ...        0 min,  0.026 sec
 * total energy  :   -59.1035432 Eh     change       -0.5035317E-06 Eh
   gradient norm :     0.0001130 Eh/α   predicted    -0.2089184E-06 ( -58.51%)
   displ. norm   :     0.0089938 α      lambda       -0.2919273E-06
   maximum displ.:     0.0082759 α      in ANC's #2, #1, #5, ...

........................................................................
.............................. CYCLE   19 ..............................
........................................................................

 iter      E             dE          RMSdq      gap      omega  full diag
   1    -59.6228477 -0.596228E+02  0.385E-03    3.39       0.0  T
   2    -59.6228477 -0.339126E-08  0.229E-03    3.39       9.3  T
   3    -59.6228477  0.980356E-08  0.851E-04    3.39      25.1  T
   4    -59.6228477 -0.124875E-07  0.207E-04    3.39     103.2  T
     SCC iter.                  ...        0 min,  0.012 sec
     gradient                   ...        0 min,  0.026 sec
 * total energy  :   -59.1035436 Eh     change       -0.3990638E-06 Eh
   gradient norm :     0.0001074 Eh/α   predicted    -0.1474796E-06 ( -63.04%)
   displ. norm   :     0.0116592 α      lambda       -0.3237151E-06
   maximum displ.:     0.0091280 α      in ANC's #2, #1, #3, ...

........................................................................
.............................. CYCLE   20 ..............................
........................................................................

 iter      E             dE          RMSdq      gap      omega  full diag
   1    -59.6228405 -0.596228E+02  0.508E-03    3.39       0.0  T
   2    -59.6228405 -0.292276E-08  0.300E-03    3.39       7.1  T
   3    -59.6228405  0.111095E-07  0.779E-04    3.39      27.4  T
   4    -59.6228405 -0.134773E-07  0.202E-04    3.39     105.7  T
     SCC iter.                  ...        0 min,  0.011 sec
     gradient                   ...        0 min,  0.026 sec
 * total energy  :   -59.1035440 Eh     change       -0.4503924E-06 Eh
   gradient norm :     0.0001464 Eh/α   predicted    -0.1648093E-06 ( -63.41%)
   displ. norm   :     0.0166890 α      lambda       -0.4041169E-06
   maximum displ.:     0.0120160 α      in ANC's #2, #1, #3, ...
 * RMSD in coord.:     0.2581308 α      energy gain  -0.1965643E-02 Eh

generating ANC from exact Hessian ...
Using Lindh-Hessian (1995)
 Shifting diagonal of input Hessian by   8.554707085196317E-003
 Lowest  eigenvalues of input Hessian
    0.000000    0.000000    0.000000    0.000000    0.000000    0.000000
    0.010000    0.010227    0.010555    0.016198    0.018215    0.019137
    0.019463    0.024954    0.025996    0.027573    0.031836    0.032217
 Highest eigenvalues
    1.828609    1.842087    1.974777    1.996565    2.021285    2.073637
 

........................................................................
.............................. CYCLE   21 ..............................
........................................................................

 iter      E             dE          RMSdq      gap      omega  full diag
   1    -59.6228335 -0.596228E+02  0.722E-03    3.38       0.0  T
   2    -59.6228335 -0.292925E-08  0.425E-03    3.38       5.0  T
   3    -59.6228335  0.125127E-07  0.709E-04    3.38      30.1  T
   4    -59.6228335 -0.147639E-07  0.167E-04    3.38     127.3  T
     SCC iter.                  ...        0 min,  0.012 sec
     gradient                   ...        0 min,  0.026 sec
 * total energy  :   -59.1035446 Eh     change       -0.5433112E-06 Eh
   gradient norm :     0.0001490 Eh/α   predicted     0.0000000E+00 (-100.00%)
   displ. norm   :     0.0051346 α      lambda       -0.1328568E-06
   maximum displ.:     0.0043503 α      in ANC's #1, #3, #2, ...

........................................................................
.............................. CYCLE   22 ..............................
........................................................................

 iter      E             dE          RMSdq      gap      omega  full diag
   1    -59.6228830 -0.596229E+02  0.229E-03    3.38       0.0  T
   2    -59.6228830 -0.825274E-09  0.136E-03    3.38      15.6  T
   3    -59.6228830  0.336992E-08  0.484E-04    3.38      44.1  T
   4    -59.6228830 -0.413496E-08  0.954E-05    3.38     223.6  T
     SCC iter.                  ...        0 min,  0.011 sec
     gradient                   ...        0 min,  0.026 sec
 * total energy  :   -59.1035447 Eh     change       -0.1829050E-06 Eh
   gradient norm :     0.0000758 Eh/α   predicted    -0.7283314E-07 ( -60.18%)
   displ. norm   :     0.0086485 α      lambda       -0.1900281E-06
   maximum displ.:     0.0063743 α      in ANC's #1, #3, #2, ...

........................................................................
.............................. CYCLE   23 ..............................
........................................................................

 iter      E             dE          RMSdq      gap      omega  full diag
   1    -59.6229043 -0.596229E+02  0.373E-03    3.38       0.0  T
   2    -59.6229043 -0.185634E-08  0.221E-03    3.38       9.7  T
   3    -59.6229043  0.879633E-08  0.804E-04    3.38      26.5  T
   4    -59.6229043 -0.106535E-07  0.133E-04    3.38     160.6  T
     SCC iter.                  ...        0 min,  0.012 sec
     gradient                   ...        0 min,  0.026 sec
 * total energy  :   -59.1035450 Eh     change       -0.2360625E-06 Eh
   gradient norm :     0.0000820 Eh/α   predicted    -0.9509769E-07 ( -59.72%)
   displ. norm   :     0.0109102 α      lambda       -0.1786656E-06
   maximum displ.:     0.0081598 α      in ANC's #1, #3, #2, ...

........................................................................
.............................. CYCLE   24 ..............................
........................................................................

 iter      E             dE          RMSdq      gap      omega  full diag
   1    -59.6228772 -0.596229E+02  0.457E-03    3.38       0.0  T
   2    -59.6228772 -0.152201E-08  0.269E-03    3.38       7.9  T
   3    -59.6228771  0.992979E-08  0.701E-04    3.38      30.4  T
   4    -59.6228772 -0.114982E-07  0.130E-04    3.38     163.8  T
     SCC iter.                  ...        0 min,  0.011 sec
     gradient                   ...        0 min,  0.026 sec
 * total energy  :   -59.1035452 Eh     change       -0.2303898E-06 Eh
   gradient norm :     0.0001268 Eh/α   predicted    -0.9179943E-07 ( -60.15%)
   displ. norm   :     0.0107651 α      lambda       -0.1474861E-06
   maximum displ.:     0.0081228 α      in ANC's #1, #3, #2, ...

........................................................................
.............................. CYCLE   25 ..............................
........................................................................

 iter      E             dE          RMSdq      gap      omega  full diag
   1    -59.6228745 -0.596229E+02  0.455E-03    3.38       0.0  T
   2    -59.6228745 -0.127328E-08  0.268E-03    3.38       8.0  T
   3    -59.6228745  0.692699E-08  0.518E-04    3.38      41.2  T
   4    -59.6228745 -0.804102E-08  0.107E-04    3.38     199.5  T
     SCC iter.                  ...        0 min,  0.012 sec
     gradient                   ...        0 min,  0.026 sec
 * total energy  :   -59.1035454 Eh     change       -0.1913769E-06 Eh
   gradient norm :     0.0001222 Eh/α   predicted    -0.7477468E-07 ( -60.93%)
   displ. norm   :     0.0088370 α      lambda       -0.1048873E-06
   maximum displ.:     0.0069947 α      in ANC's #1, #2, #3, ...

........................................................................
.............................. CYCLE   26 ..............................
........................................................................

 iter      E             dE          RMSdq      gap      omega  full diag
   1    -59.6228621 -0.596229E+02  0.385E-03    3.38       0.0  T
   2    -59.6228621 -0.150108E-08  0.227E-03    3.38       9.4  T
   3    -59.6228621  0.657126E-08  0.567E-04    3.38      37.6  T
   4    -59.6228621 -0.772217E-08  0.112E-04    3.38     190.6  T
     SCC iter.                  ...        0 min,  0.011 sec
     gradient                   ...        0 min,  0.027 sec
 * total energy  :   -59.1035455 Eh     change       -0.1329150E-06 Eh
   gradient norm :     0.0000708 Eh/α   predicted    -0.5266646E-07 ( -60.38%)
   displ. norm   :     0.0060525 α      lambda       -0.5647121E-07
   maximum displ.:     0.0052168 α      in ANC's #1, #2, #3, ...

........................................................................
.............................. CYCLE   27 ..............................
........................................................................

 iter      E             dE          RMSdq      gap      omega  full diag
   1    -59.6228568 -0.596229E+02  0.270E-03    3.38       0.0  T
   2    -59.6228568 -0.962245E-09  0.160E-03    3.38      13.4  T
   3    -59.6228568  0.397948E-08  0.478E-04    3.38      44.6  T
   4    -59.6228568 -0.481774E-08  0.111E-04    3.38     191.7  T
     SCC iter.                  ...        0 min,  0.011 sec
     gradient                   ...        0 min,  0.026 sec
 * total energy  :   -59.1035456 Eh     change       -0.7582284E-07 Eh
   gradient norm :     0.0000263 Eh/α   predicted    -0.2935986E-07 ( -61.28%)
   displ. norm   :     0.0035238 α      lambda       -0.2705255E-07
   maximum displ.:     0.0033241 α      in ANC's #1, #4, #2, ...

   *** GEOMETRY OPTIMIZATION CONVERGED AFTER 27 ITERATIONS ***

------------------------------------------------------------------------
 total energy gain   :        -0.0019672 Eh       -1.2345 kcal/mol
 total RMSD          :         0.2640955 a0        0.1398 Å
 total power (kW/mol):        -0.1912955 (step)   -3.5583 (real)
------------------------------------------------------------------------

 ANCopt (total)                0 d,  0 h,  0 min,  1.452 sec
 optimizer setup                ...        0 min,  0.001 sec (  0.038%)
 model hessian                  ...        0 min,  0.006 sec (  0.406%)
 ANC generation                 ...        0 min,  0.001 sec (  0.087%)
 coordinate transformation      ...        0 min,  0.000 sec (  0.024%)
 single point calculation       ...        0 min,  1.434 sec ( 98.774%)
 optimization log               ...        0 min,  0.006 sec (  0.395%)
 hessian update                 ...        0 min,  0.000 sec (  0.023%)
 rational function              ...        0 min,  0.002 sec (  0.152%)

================
 final structure:
================
$coord
        2.96654498466249       -0.66951533720923        3.61826804880363      C
        5.55444788859369       -0.89698923376090        3.87759779826136      C
        7.11646129662766       -0.46327081022383        1.81817466161490      C
        6.08628316077601        0.22210023171094       -0.50814249405306      C
        3.47315764520097        0.44280556475076       -0.74802900788912      C
        1.89392773206992       -0.02205392036878        1.31005779940100      C
       -0.87936757609816        0.18343623286461        1.04526157483518      C
       -2.18408111368179        2.07247680627954        2.31384119256101      C
       -4.77966719656229        2.30346557655332        2.06202948686785      C
       -6.12116206688079        0.62852297590108        0.53295961906548      C
       -4.82896486782290       -1.29538599289307       -0.72275303798833      C
       -2.21758518930562       -1.51703341440839       -0.46081782131245      C
       -0.66293631234519       -3.94512814281215       -1.94623103629279      Cl
       -6.46091729240672       -3.38731213051963       -2.57793548462537      Cl
       -9.32952215960927        0.90975183576593        0.20318263928806      Cl
       -6.34994474944304        4.66346719644871        3.63643678632941      Cl
        2.20134991263392        1.37075317403174       -3.58764420726542      Cl
        8.01178947986071        0.79873519877761       -3.05231433387685      Cl
       10.33234452331380       -0.75400993809793        2.13330870699381      Cl
        1.74436218122817       -1.02049555599045        5.21101076270877      H
        6.37933958972758       -1.41443206367764        5.66660554960802      H
       -1.16205724056139        3.38877169000642        3.48599582438852      H
$end
 
 Bond Distances (Angstroems)
 ---------------------------
C1-C2=1.3816         C1-C6=1.3898         C1-H20=1.0785        C2-C1=1.3816         C2-C3=1.3869         C2-H21=1.0779        
C3-C2=1.3869         C3-C4=1.3943         C3-Cl19=1.7168       C4-C3=1.3943         C4-C5=1.3935         C4-Cl18=1.7158       
C5-C4=1.3935         C5-C6=1.3946         C5-Cl17=1.7182       C6-C1=1.3898         C6-C5=1.3946         C6-C7=1.4782         
C7-C6=1.4782         C7-C8=1.3880         C7-C12=1.3951        C8-C7=1.3880         C8-C9=1.3854         C8-H22=1.0782        
C9-C8=1.3854         C9-C10=1.3944        C9-Cl16=1.7159       C10-C9=1.3944        C10-C11=1.3949       C10-Cl15=1.7132      
C11-C10=1.3949       C11-C12=1.3938       C11-Cl14=1.7132      C12-C7=1.3951        C12-C11=1.3938       C12-Cl13=1.7163      
Cl13-C12=1.7163      Cl14-C11=1.7132      Cl15-C10=1.7132      Cl16-C9=1.7159       Cl17-C5=1.7182       Cl18-C4=1.7158       
Cl19-C3=1.7168       H20-C1=1.0785        H21-C2=1.0779        H22-C8=1.0782        
 C  H  Rav=1.0782 sigma=0.0003  Rmin=1.0779  Rmax=1.0785     3
 C  C  Rav=1.3977 sigma=0.0236  Rmin=1.3816  Rmax=1.4782    13
 Cl C  Rav=1.7156 sigma=0.0017  Rmin=1.7132  Rmax=1.7182     7
 
 selected bond angles (degree)
 --------------------
C6-C1-C2=120.90                H20-C1-C2=120.12               H20-C1-C6=118.97               C3-C2-C1=119.89                
H21-C2-C1=120.72               H21-C2-C3=119.40               C4-C3-C2=120.25                Cl19-C3-C2=119.97              
Cl19-C3-C4=119.78              C5-C4-C3=119.35                Cl18-C4-C3=120.45              Cl18-C4-C5=120.19              
C6-C5-C4=120.58                Cl17-C5-C4=119.49              Cl17-C5-C6=119.91              C5-C6-C1=119.02                
C7-C6-C1=120.46                C7-C6-C5=120.52                C8-C7-C6=120.06                C12-C7-C6=120.71               
C12-C7-C8=119.23               C9-C8-C7=120.68                H22-C8-C7=119.60               H22-C8-C9=119.71               
C10-C9-C8=120.30               Cl16-C9-C8=119.84              Cl16-C9-C10=119.86             C11-C10-C9=119.39              
Cl15-C10-C9=120.56             Cl15-C10-C11=120.05            
 
 selected dihedral angles (degree)
 ---------------------------------
C3-C2-C1-C6=  0.34            C3-C2-C1-H20=179.48           H21-C2-C1-C6=180.51           H21-C2-C1-H20=359.65          
C4-C3-C2-C1=  0.53            C4-C3-C2-H21=180.37           Cl19-C3-C2-C1=180.20          Cl19-C3-C2-H21=  0.03         
C5-C4-C3-C2=359.39            C5-C4-C3-Cl19=179.73          Cl18-C4-C3-C2=179.20          Cl18-C4-C3-Cl19=359.54        
C6-C5-C4-C3=359.82            C6-C5-C4-Cl18=180.01          Cl17-C5-C4-C3=178.23          Cl17-C5-C4-Cl18=358.42        
C5-C6-C1-C2=358.88            C5-C6-C1-H20=179.73           C7-C6-C1-C2=179.19            C7-C6-C1-H20=  0.04           
C1-C6-C5-C4=  1.04            C1-C6-C5-Cl17=182.63          C7-C6-C5-C4=180.72            C7-C6-C5-Cl17=  2.31          
C8-C7-C6-C1= 66.43            C8-C7-C6-C5=246.75            C12-C7-C6-C1=246.84           C12-C7-C6-C5= 67.16           
C9-C8-C7-C6=179.32            C9-C8-C7-C12=358.92           H22-C8-C7-C6=  0.19           H22-C8-C7-C12=179.79          
C10-C9-C8-C7=  0.26           C10-C9-C8-H22=179.39          Cl16-C9-C8-C7=180.32          Cl16-C9-C8-H22=359.46         
C11-C10-C9-C8=  0.57          C11-C10-C9-Cl16=180.50        Cl15-C10-C9-C8=180.24         Cl15-C10-C9-Cl16=  0.18       
           -------------------------------------------------
          |                Final Singlepoint                |
           -------------------------------------------------

          ...................................................
          :                      SETUP                      :
          :.................................................:
          :  # basis functions                 121          :
          :  # atomic orbitals                 114          :
          :  # shells                           48          :
          :  # electrons                       100          :
          :  max. iterations                   250          :
          :  Hamiltonian                  GFN2-xTB          :
          :  restarted?                      false          :
          :  GBSA solvation                  false          :
          :  PC potential                    false          :
          :  electronic temp.          300.0000000     K    :
          :  accuracy                    1.0000000          :
          :  -> integral cutoff          0.2500000E+02      :
          :  -> integral neglect         0.1000000E-07      :
          :  -> SCF convergence          0.1000000E-05 Eh   :
          :  -> wf. convergence          0.1000000E-03 e    :
          :  Broyden damping             0.4000000          :
          :  net charge                          0          :
          :  unpaired electrons                  0          :
          ...................................................

 iter      E             dE          RMSdq      gap      omega  full diag
   1    -59.6228568 -0.596229E+02  0.900E-05    3.38       0.0  T
   2    -59.6228568 -0.303970E-10  0.781E-05    3.38     273.0  T
   3    -59.6228568 -0.228937E-10  0.659E-05    3.38     323.4  T

   *** convergence criteria satisfied after 3 iterations ***

         #    Occupation            Energy/Eh            Energy/eV
      -------------------------------------------------------------
         1        2.0000           -1.0797893             -29.3826
       ...           ...                  ...                  ...
        44        2.0000           -0.4404927             -11.9864
        45        2.0000           -0.4385709             -11.9341
        46        2.0000           -0.4362377             -11.8706
        47        2.0000           -0.4246353             -11.5549
        48        2.0000           -0.4196751             -11.4199
        49        2.0000           -0.4177042             -11.3663
        50        2.0000           -0.4146643             -11.2836 (HOMO)
        51                         -0.2904333              -7.9031 (LUMO)
        52                         -0.2807202              -7.6388
        53                         -0.2744928              -7.4693
        54                         -0.2670678              -7.2673
        55                         -0.1896269              -5.1600
       ...                                ...                  ...
       114                          0.6013033              16.3623
      -------------------------------------------------------------
                  HL-Gap            0.1242310 Eh            3.3805 eV
             Fermi-level           -0.3525488 Eh           -9.5933 eV

 SCC (total)                   0 d,  0 h,  0 min,  0.046 sec
 SCC setup                      ...        0 min,  0.000 sec (  0.513%)
 Dispersion                     ...        0 min,  0.000 sec (  0.233%)
 classical contributions        ...        0 min,  0.000 sec (  0.063%)
 integral evaluation            ...        0 min,  0.011 sec ( 23.306%)
 iterations                     ...        0 min,  0.009 sec ( 18.442%)
 molecular gradient             ...        0 min,  0.026 sec ( 56.754%)
 printout                       ...        0 min,  0.000 sec (  0.629%)

         :::::::::::::::::::::::::::::::::::::::::::::::::::::
         ::                     SUMMARY                     ::
         :::::::::::::::::::::::::::::::::::::::::::::::::::::
         :: total energy             -59.103545613800 Eh    ::
         :: gradient norm              0.000026560599 Eh/a0 ::
         :: HOMO-LUMO gap              3.380496688869 eV    ::
         ::.................................................::
         :: SCC energy               -59.622742112143 Eh    ::
         :: -> isotropic ES            0.022631708847 Eh    ::
         :: -> anisotropic ES         -0.002835855374 Eh    ::
         :: -> anisotropic XC          0.012706131819 Eh    ::
         :: -> dispersion             -0.039520246108 Eh    ::
         :: repulsion energy           0.519196498343 Eh    ::
         :: add. restraining           0.000000000000 Eh    ::
         :: total charge              -0.000000000000 e     ::
         :::::::::::::::::::::::::::::::::::::::::::::::::::::

           ------------------------------------------------- 
          |                Numerical Hessian                |
           ------------------------------------------------- 
step length          :   0.00500
SCC accuracy         :   0.30000
Hessian scale factor :   1.00000
frozen atoms in %    :   0.00000    0
RMS gradient         :   0.00003
estimated CPU  time      0.13 min
estimated wall time      0.13 min

writing file <hessian>.

 projected vibrational frequencies (cm⁻¹)
eigval :       -0.00    -0.00    -0.00    -0.00     0.00     0.00
eigval :       24.06    31.59    36.28    75.71    78.19    90.88
eigval :      121.35   146.71   172.09   174.61   176.48   179.11
eigval :      190.19   218.17   234.23   255.49   309.69   314.56
eigval :      317.09   323.41   356.18   433.89   472.27   478.19
eigval :      496.71   500.00   519.75   535.13   589.61   591.34
eigval :      632.28   653.66   671.92   727.66   757.66   797.58
eigval :      833.18   860.37   879.47   904.81   995.15  1048.55
eigval :     1146.13  1153.90  1162.12  1165.58  1270.86  1289.34
eigval :     1294.94  1332.42  1353.36  1376.27  1433.65  1505.78
eigval :     1529.44  1538.15  1554.87  3104.27  3113.08  3116.57
           -------------------------------------------------
          |                Property Printout                |
           -------------------------------------------------

    * Orbital Energies and Occupations

         #    Occupation            Energy/Eh            Energy/eV
      -------------------------------------------------------------
         1        2.0000           -1.0797890             -29.3826
       ...           ...                  ...                  ...
        38        2.0000           -0.4569900             -12.4353
        39        2.0000           -0.4529361             -12.3250
        40        2.0000           -0.4466768             -12.1547
        41        2.0000           -0.4452801             -12.1167
        42        2.0000           -0.4438773             -12.0785
        43        2.0000           -0.4420242             -12.0281
        44        2.0000           -0.4404927             -11.9864
        45        2.0000           -0.4385709             -11.9341
        46        2.0000           -0.4362377             -11.8706
        47        2.0000           -0.4246352             -11.5549
        48        2.0000           -0.4196750             -11.4199
        49        2.0000           -0.4177042             -11.3663
        50        2.0000           -0.4146642             -11.2836 (HOMO)
        51                         -0.2904333              -7.9031 (LUMO)
        52                         -0.2807202              -7.6388
        53                         -0.2744928              -7.4693
        54                         -0.2670677              -7.2673
        55                         -0.1896268              -5.1600
        56                         -0.1812078              -4.9309
        57                         -0.1708337              -4.6486
        58                         -0.1675852              -4.5602
        59                         -0.1580563              -4.3009
        60                         -0.1549835              -4.2173
        61                         -0.1499646              -4.0807
       ...                                ...                  ...
       114                          0.6013032              16.3623
      -------------------------------------------------------------
                  HL-Gap            0.1242309 Eh            3.3805 eV
             Fermi-level           -0.3525488 Eh           -9.5933 eV

     #   Z          covCN         q      C6AA      α(0)
     1   6 C        2.925    -0.033    28.817     8.803
     2   6 C        2.955    -0.042    29.050     8.840
     3   6 C        2.920     0.089    26.014     8.364
     4   6 C        2.956     0.078    26.253     8.404
     5   6 C        2.925     0.088    26.040     8.368
     6   6 C        3.012     0.009    27.796     8.648
     7   6 C        3.012     0.012    27.727     8.638
     8   6 C        2.963    -0.048    29.200     8.863
     9   6 C        2.917     0.085    26.109     8.379
    10   6 C        2.957     0.075    26.321     8.415
    11   6 C        2.957     0.077    26.288     8.410
    12   6 C        2.923     0.082    26.164     8.388
    13  17 Cl       1.003    -0.105   102.429    15.484
    14  17 Cl       1.030    -0.088   101.919    15.445
    15  17 Cl       1.022    -0.090   101.967    15.449
    16  17 Cl       0.997    -0.108   102.525    15.491
    17  17 Cl       1.003    -0.114   102.722    15.506
    18  17 Cl       1.021    -0.101   102.327    15.476
    19  17 Cl       0.996    -0.116   102.775    15.510
    20   1 H        0.926     0.074     2.040     2.234
    21   1 H        0.926     0.085     1.927     2.171
    22   1 H        0.926     0.091     1.872     2.139

 Mol. C6AA /au·bohr⁶  :      18902.073051
 Mol. C8AA /au·bohr⁸  :     652885.667992
 Mol. α(0) /au        :        217.425137


Wiberg/Mayer (AO) data.
largest (>0.10) Wiberg bond orders for each atom

 ---------------------------------------------------------------------------
     #   Z sym  total        # sym  WBO       # sym  WBO       # sym  WBO
 ---------------------------------------------------------------------------
     1   6 C    3.985 --     2 C    1.441     6 C    1.392    20 H    0.964
     2   6 C    3.984 --     1 C    1.441     3 C    1.392    21 H    0.962
     3   6 C    3.930 --     2 C    1.392     4 C    1.352    19 Cl   1.010
     4   6 C    3.934 --     5 C    1.359     3 C    1.352    18 Cl   1.017
     5   6 C    3.930 --     4 C    1.359     6 C    1.357    17 Cl   1.010
     6   6 C    3.987 --     1 C    1.392     5 C    1.357     7 C    1.018
     7   6 C    3.987 --     8 C    1.398    12 C    1.350     6 C    1.018
     8   6 C    3.981 --     7 C    1.398     9 C    1.395    22 H    0.960
     9   6 C    3.934 --     8 C    1.395    10 C    1.347    16 Cl   1.012
    10   6 C    3.935 --    11 C    1.351     9 C    1.347    15 Cl   1.023
    11   6 C    3.937 --    12 C    1.354    10 C    1.351    14 Cl   1.023
    12   6 C    3.932 --    11 C    1.354     7 C    1.350    13 Cl   1.015
    13  17 Cl   1.168 --    12 C    1.015
    14  17 Cl   1.185 --    11 C    1.023
    15  17 Cl   1.184 --    10 C    1.023
    16  17 Cl   1.161 --     9 C    1.012
    17  17 Cl   1.166 --     5 C    1.010
    18  17 Cl   1.179 --     4 C    1.017
    19  17 Cl   1.161 --     3 C    1.010
    20   1 H    0.994 --     1 C    0.964
    21   1 H    0.992 --     2 C    0.962
    22   1 H    0.991 --     8 C    0.960
 ---------------------------------------------------------------------------

Topologies differ in total number of bonds
Writing topology from bond orders to xtbtopo.mol

molecular dipole:
                 x           y           z       tot (Debye)
 q only:        0.249       0.084       1.486
   full:        0.159       0.038       0.935       2.413
molecular quadrupole (traceless):
                xx          xy          yy          xz          yz          zz
 q only:      -16.113       0.563       5.402       6.319      -2.985      10.711
  q+dip:       -8.862       0.737       0.749       4.674      -2.046       8.112
   full:      -10.149       0.489       2.300       4.205      -2.096       7.849

           -------------------------------------------------
          |                Geometry Summary                 |
           -------------------------------------------------

      molecular mass/u    :      395.3232161
   center of mass at/Å    :       -0.0000064       0.0008675       0.0003315
  moments of inertia/u·Å² :        0.1243893E+04   0.4611293E+04   0.5131368E+04
rotational constants/cm⁻¹ :        0.1355231E-01   0.3655728E-02   0.3285212E-02

 * 22 selected distances

     #   Z          #   Z                                           value/Å
     1   6 C        2   6 C                                       1.3815720
     2   6 C        3   6 C                                       1.3869312
     3   6 C        4   6 C                                       1.3943346
     4   6 C        5   6 C                                       1.3935239
     1   6 C        6   6 C                                       1.3897880
     5   6 C        6   6 C                                       1.3946389
     7   6 C        8   6 C                                       1.3880236
     8   6 C        9   6 C                                       1.3853768
     9   6 C       10   6 C                                       1.3943691
    10   6 C       11   6 C                                       1.3948628
     7   6 C       12   6 C                                       1.3951323
    11   6 C       12   6 C                                       1.3937610
    12   6 C       13  17 Cl                                      1.7162834
    11   6 C       14  17 Cl                                      1.7131884
    10   6 C       15  17 Cl                                      1.7132123
     9   6 C       16  17 Cl                                      1.7158843
     5   6 C       17  17 Cl                                      1.7181560 (max)
     4   6 C       18  17 Cl                                      1.7157827
     3   6 C       19  17 Cl                                      1.7168311
     1   6 C       20   1 H                                       1.0785026
     2   6 C       21   1 H                                       1.0778527 (min)
     8   6 C       22   1 H                                       1.0781604

 * 3 distinct bonds (by element types)

   Z      Z             #   av. dist./Å        max./Å        min./Å
   1 H    6 C           3     1.0781719     1.0785026     1.0778527
   6 C    6 C          12     1.3910262     1.3951323     1.3815720
   6 C   17 Cl          7     1.7156198     1.7181560     1.7131884

           -------------------------------------------------
          |               Frequency Printout                |
           -------------------------------------------------
 projected vibrational frequencies (cm⁻¹)
eigval :       -0.00    -0.00    -0.00    -0.00     0.00     0.00
eigval :       24.06    31.59    36.28    75.71    78.19    90.88
eigval :      121.35   146.71   172.09   174.61   176.48   179.11
eigval :      190.19   218.17   234.23   255.49   309.69   314.56
eigval :      317.09   323.41   356.18   433.89   472.27   478.19
eigval :      496.71   500.00   519.75   535.13   589.61   591.34
eigval :      632.28   653.66   671.92   727.66   757.66   797.58
eigval :      833.18   860.37   879.47   904.81   995.15  1048.55
eigval :     1146.13  1153.90  1162.12  1165.58  1270.86  1289.34
eigval :     1294.94  1332.42  1353.36  1376.27  1433.65  1505.78
eigval :     1529.44  1538.15  1554.87  3104.27  3113.08  3116.57
 reduced masses (amu)
   1: 28.98   2: 26.13   3: 30.39   4: 30.20   5: 30.83   6: 26.16   7: 30.92   8: 30.38
   9: 31.03  10: 33.07  11: 34.54  12: 32.14  13: 21.85  14: 31.45  15: 27.06  16: 29.57
  17: 34.77  18: 34.84  19: 29.67  20: 29.82  21: 14.03  22: 13.51  23: 32.00  24: 21.19
  25: 26.44  26: 32.62  27: 15.15  28: 16.11  29: 17.94  30: 12.56  31: 17.76  32: 15.35
  33: 13.18  34: 19.01  35: 12.03  36: 12.30  37: 17.47  38: 11.87  39: 11.76  40: 14.65
  41: 15.17  42: 14.79  43:  3.83  44:  3.59  45: 13.36  46:  3.44  47: 12.63  48: 12.04
  49:  6.47  50:  3.36  51: 10.03  52:  6.56  53: 10.14  54: 11.95  55: 11.90  56: 11.25
  57: 11.03  58:  9.98  59: 11.18  60: 11.92  61: 11.73  62: 11.72  63: 11.64  64:  1.80
  65:  1.84  66:  1.89
 IR intensities (km·mol⁻¹)
   1:  0.11   2:  0.11   3:  0.02   4:  0.18   5:  0.03   6:  0.05   7:  0.10   8:  0.45
   9:  0.36  10:  0.23  11:  0.09  12:  0.33  13:  0.06  14:  0.36  15:  0.25  16:  0.36
  17:  0.05  18:  0.08  19:  0.52  20:  0.30  21:  0.69  22:  0.16  23:  0.77  24:  0.61
  25:  0.70  26:  0.10  27:  0.52  28:  0.64  29:  1.30  30:  0.40  31:  1.18  32:  1.45
  33:  0.39  34:  2.97  35:  0.69  36:  0.25  37:  0.67  38:  1.21  39:  0.45  40:  0.73
  41:  4.54  42:  2.39  43: 16.02  44:  7.11  45:  2.15  46:  0.25  47:  4.34  48:  3.94
  49:  3.49  50:  1.34  51: 34.16  52:  4.57  53:  9.09  54:  1.80  55:  1.67  56: 64.33
  57: 26.83  58:138.94  59:  9.90  60: 24.41  61:  9.35  62:  4.48  63: 37.52  64:  3.28
  65:  1.31  66:  1.04
 Raman intensities (Ä⁴*amu⁻¹)
   1:  0.00   2:  0.00   3:  0.00   4:  0.00   5:  0.00   6:  0.00   7:  0.00   8:  0.00
   9:  0.00  10:  0.00  11:  0.00  12:  0.00  13:  0.00  14:  0.00  15:  0.00  16:  0.00
  17:  0.00  18:  0.00  19:  0.00  20:  0.00  21:  0.00  22:  0.00  23:  0.00  24:  0.00
  25:  0.00  26:  0.00  27:  0.00  28:  0.00  29:  0.00  30:  0.00  31:  0.00  32:  0.00
  33:  0.00  34:  0.00  35:  0.00  36:  0.00  37:  0.00  38:  0.00  39:  0.00  40:  0.00
  41:  0.00  42:  0.00  43:  0.00  44:  0.00  45:  0.00  46:  0.00  47:  0.00  48:  0.00
  49:  0.00  50:  0.00  51:  0.00  52:  0.00  53:  0.00  54:  0.00  55:  0.00  56:  0.00
  57:  0.00  58:  0.00  59:  0.00  60:  0.00  61:  0.00  62:  0.00  63:  0.00  64:  0.00
  65:  0.00  66:  0.00
 output can be read by thermo (or use thermo option).
 writing <g98.out> molden fake output.
 recommended (thermochemical) frequency scaling factor: 1.0
           -------------------------------------------------
          |             Thermodynamic Functions             |
           -------------------------------------------------

Molecule has no symmetry elements
It seems to be the C1 point group
c1  symmetry found (for desy threshold:  0.10E+00) used in thermo

          ...................................................
          :                      SETUP                      :
          :.................................................:
          :  # frequencies                          60      :
          :  # imaginary freq.                       0      :
          :  linear?                             false      :
          :  only rotor calc.                    false      :
          :  symmetry                               c1      :
          :  rotational number                       1      :
          :  scaling factor                  1.0000000      :
          :  rotor cutoff                    0.0000000 cm⁻¹ :
          :  imag. cutoff                 -100.0000000 cm⁻¹ :
          :.................................................:

    mode    ω/cm⁻¹     T·S(HO)/kcal·mol⁻¹    T·S(FR)/kcal·mol⁻¹   T·S(vib)
   ------------------------------------------------------------------------
       1     24.06    -1.86851 (100.00%)    -1.27315 (  0.00%)    -1.86851
       2     31.59    -1.70748 (100.00%)    -1.19253 (  0.00%)    -1.70748
       3     36.28    -1.62559 (100.00%)    -1.15150 (  0.00%)    -1.62559
       4     75.71    -1.19236 (100.00%)    -0.93364 (  0.00%)    -1.19236
       5     78.19    -1.17344 (100.00%)    -0.92407 (  0.00%)    -1.17344
       6     90.88    -1.08560 (100.00%)    -0.87954 (  0.00%)    -1.08560
       7    121.35    -0.91793 (100.00%)    -0.79387 (  0.00%)    -0.91793
       8    146.71    -0.80930 (100.00%)    -0.73765 (  0.00%)    -0.80930
       9    172.09    -0.71931 (100.00%)    -0.69040 (  0.00%)    -0.71931
      10    174.61    -0.71116 (100.00%)    -0.68608 (  0.00%)    -0.71116
      11    176.48    -0.70523 (100.00%)    -0.68293 (  0.00%)    -0.70523
      12    179.11    -0.69698 (100.00%)    -0.67855 (  0.00%)    -0.69698
      13    190.19    -0.66366 (100.00%)    -0.66076 (  0.00%)    -0.66366
      14    218.17    -0.58861 (100.00%)    -0.62010 (  0.00%)    -0.58861
      15    234.23    -0.55046 (100.00%)    -0.59906 (  0.00%)    -0.55046
      16    255.49    -0.50458 (100.00%)    -0.57332 (  0.00%)    -0.50458
   ------------------------------------------------------------------------

   temp. (K)  partition function   enthalpy   heat capacity  entropy
                                   cal/mol     cal/K/mol   cal/K/mol   J/K/mol
 298.15  VIB  0.263E+08             9940.940     59.452     67.298
         ROT  0.131E+08              888.752      2.981     35.549
         INT  0.345E+15            10829.693     62.433    102.847
         TR   0.760E+28             1481.254      4.968     43.795
         TOT                       12310.9465    67.4015   146.6428   613.5535

       T/K    H(0)-H(T)+PV         H(T)/Eh          T*S/Eh         G(T)/Eh
   ------------------------------------------------------------------------
    298.15    0.196187E-01    0.128164E+00    0.696747E-01    0.584896E-01
   ------------------------------------------------------------------------

         :::::::::::::::::::::::::::::::::::::::::::::::::::::
         ::                  THERMODYNAMIC                  ::
         :::::::::::::::::::::::::::::::::::::::::::::::::::::
         :: total free energy         -59.045056058391 Eh   ::
         ::.................................................::
         :: total energy              -59.103545613868 Eh   ::
         :: zero point energy           0.108545543812 Eh   ::
         :: G(RRHO) w/o ZPVE           -0.050055988335 Eh   ::
         :: G(RRHO) contrib.            0.058489555476 Eh   ::
         :::::::::::::::::::::::::::::::::::::::::::::::::::::

optimized geometry written to: xtbopt.coord


           -------------------------------------------------
          | TOTAL ENERGY              -59.103545613868 Eh   |
          | TOTAL ENTHALPY            -58.975381328025 Eh   |
          | TOTAL FREE ENERGY         -59.045056058391 Eh   |
          | GRADIENT NORM               0.000028176903 Eh/α |
          | HOMO-LUMO GAP               3.380495328185 eV   |
           -------------------------------------------------

------------------------------------------------------------------------
 * finished run on 2025/04/15 at 20:36:59.554     
------------------------------------------------------------------------
 total:
 * wall-time:     0 d,  0 h,  0 min, 10.265 sec
 *  cpu-time:     0 d,  0 h,  0 min,  9.702 sec
 * ratio c/w:     0.945 speedup
 SCF:
 * wall-time:     0 d,  0 h,  0 min,  0.087 sec
 *  cpu-time:     0 d,  0 h,  0 min,  0.087 sec
 * ratio c/w:     0.999 speedup
 ANC optimizer:
 * wall-time:     0 d,  0 h,  0 min,  1.503 sec
 *  cpu-time:     0 d,  0 h,  0 min,  1.499 sec
 * ratio c/w:     0.998 speedup
 analytical hessian:
 * wall-time:     0 d,  0 h,  0 min,  8.387 sec
 *  cpu-time:     0 d,  0 h,  0 min,  8.085 sec
 * ratio c/w:     0.964 speedup

