12
 energy: -211.313292798856 gnorm: 0.037710092466 xtb: 6.7.1 (edcfbbe)
C            2.41237567326899        0.04032914921787        0.08866962393929
C            0.98784990953774        0.42476039248822       -0.28845493902782
C           -0.03044850471349       -0.49735016412039        0.39466771357489
C           -1.37762690631046       -0.13519395185991        0.03856343311709
N           -2.44053934538147        0.16618186247364       -0.25490860631296
H            2.55976195763430        0.11711513935190        1.16407199221583
H            2.62837867636470       -0.98181964333507       -0.21574123919560
H            3.12319035248397        0.70056493831044       -0.40181959917806
H            0.79292002625136        1.45775598764597        0.00793235590352
H            0.86178771628188        0.35976380715942       -1.37141621510771
H            0.07002638013103       -0.43137503359115        1.48218778875680
H            0.13973282246192       -1.53588812208059        0.09528743764222
12
 energy: -211.314059856740 gnorm: 0.009957045373 xtb: 6.7.1 (edcfbbe)
C            2.42131235821035        0.04032723219392        0.08909099280783
C            0.99463067930240        0.42620675466595       -0.28928328645887
C           -0.03506639400970       -0.49178959237242        0.39007003382448
C           -1.39582451673561       -0.13749781043554        0.03941386761754
N           -2.47397153700306        0.16365155912684       -0.25451273002889
H            2.57393614104163        0.11509817030364        1.16915948178141
H            2.64282500473422       -0.98650182050672       -0.21420009604239
H            3.14124469353822        0.69936633521650       -0.39990482572038
H            0.78988790955617        1.46071519490601        0.00193398132823
H            0.85858282648556        0.36607463084406       -1.37318470793424
H            0.07020109751766       -0.43658516445999        1.47939544703368
H            0.13965048392810       -1.53422117888859        0.10106175644503
12
 energy: -211.314104421991 gnorm: 0.002253790480 xtb: 6.7.1 (edcfbbe)
C            2.42138252846786        0.03978260868932        0.08950627854084
C            0.99596004912315        0.42857431814925       -0.29109231114674
C           -0.03543654408354       -0.49007692529112        0.38872474565946
C           -1.40155284658595       -0.13913077992941        0.04055373806934
N           -2.47895658186176        0.15989110853231       -0.25193921438282
H            2.57602870918260        0.11380507099421        1.17086150135622
H            2.64499169738374       -0.98831236100335       -0.21337986466642
H            3.14526405507091        0.69764748467682       -0.39826510100095
H            0.79125504688947        1.46425095184649       -0.00154929027849
H            0.85985836685833        0.37030025363657       -1.37575626575728
H            0.06961611017495       -0.43773797518078        1.47905798905058
H            0.13899816883467       -1.53414938627733        0.10231778757085
12
 energy: -211.314107601617 gnorm: 0.000379833565 xtb: 6.7.1 (edcfbbe)
C            2.42089607273811        0.03970314651803        0.08954846718012
C            0.99634858985535        0.42935024250036       -0.29170699494691
C           -0.03500948108909       -0.48955641514751        0.38831676464736
C           -1.40315904950229       -0.14038668066518        0.04111597745203
N           -2.48049368426024        0.15833019149070       -0.25044859038198
H            2.57535849373395        0.11334353129748        1.17116837960770
H            2.64438264404397       -0.98868614021690       -0.21318676298225
H            3.14652097886359        0.69670519676482       -0.39734061707431
H            0.79244317025825        1.46541044646806       -0.00237880529564
H            0.86106834309538        0.37135585560153       -1.37664815418154
H            0.06974295413401       -0.43695673596321        1.47881501898604
H            0.13930974789643       -1.53376822900767        0.10178535328667
12
 energy: -211.314107601617 gnorm: 0.000379833565 xtb: 6.7.1 (edcfbbe)
C            2.42089607273811        0.03970314651803        0.08954846718012
C            0.99634858985535        0.42935024250036       -0.29170699494691
C           -0.03500948108909       -0.48955641514751        0.38831676464736
C           -1.40315904950229       -0.14038668066518        0.04111597745203
N           -2.48049368426024        0.15833019149070       -0.25044859038198
H            2.57535849373395        0.11334353129748        1.17116837960770
H            2.64438264404397       -0.98868614021690       -0.21318676298225
H            3.14652097886359        0.69670519676482       -0.39734061707431
H            0.79244317025825        1.46541044646806       -0.00237880529564
H            0.86106834309538        0.37135585560153       -1.37664815418154
H            0.06974295413401       -0.43695673596321        1.47881501898604
H            0.13930974789643       -1.53376822900767        0.10178535328667
