10
 energy: -230.206349690658 gnorm: 0.024492625510 xtb: 6.7.1 (edcfbbe)
C           -0.58521131595932        0.01302479670577        0.48880873231660
C            0.58523584395933       -0.01152230080511       -0.48889646481664
O            1.78012609848882        0.01258939050558        0.25880909631469
O           -1.78014720068883       -0.01390011630616       -0.25874120021466
H           -0.51810754602959        0.92262218170884        1.10004565048746
H           -0.51097422412643       -0.85775123068009        1.15340577041110
H            0.51236855982704        0.86055160108133       -1.15194134661046
H            0.51679814792901       -0.91991663080764       -1.10177436068823
H            2.52632510791948       -0.00111630690049       -0.34906663825468
H           -2.52636736561950       -0.00148818670066        0.34929863795478
10
 energy: -230.206911298699 gnorm: 0.010405505154 xtb: 6.7.1 (edcfbbe)
C           -0.57715794328234        0.01328295972915        0.49533654178364
C            0.57716331951379       -0.01176548721988       -0.49539722443233
O            1.77375452206038        0.01293715231937        0.26904091993136
O           -1.77377321441736       -0.01408066936910       -0.26898503949019
H           -0.50173605649417        0.92427098509649        1.10809221579838
H           -0.49472103214648       -0.85900555904037        1.16119085971436
H            0.49605406690952        0.86158995052401       -1.16002355895633
H            0.50045260568454       -0.92176655593316       -1.10945166993031
H            2.52139636674907       -0.00056780685782       -0.33544736390590
H           -2.52138653413725       -0.00180176885183        0.33559228829202
10
 energy: -230.206985879851 gnorm: 0.003720433425 xtb: 6.7.1 (edcfbbe)
C           -0.57470648185110        0.01325772491688        0.49533211073963
C            0.57470856430229       -0.01183258294309       -0.49537806458778
O            1.77689963540737        0.01312097982503        0.27157350261835
O           -1.77690485322698       -0.01400416498550       -0.27153232294285
H           -0.49930312682225        0.92415719794524        1.10893594763143
H           -0.49247674780537       -0.85912425384746        1.16175892620946
H            0.49367179912792        0.86140022093938       -1.16084788910239
H            0.49812920666545       -0.92194760063391       -1.10998648497790
H            2.52328226150582       -0.00026002232169       -0.33435538644763
H           -2.52325415874999       -0.00167429838799        0.33444763825106
10
 energy: -230.206999009019 gnorm: 0.000708894865 xtb: 6.7.1 (edcfbbe)
C           -0.57344385850231        0.01321704033005        0.49554677144695
C            0.57344881811578       -0.01192343653939       -0.49558135624394
O            1.77808393222612        0.01322043753007        0.27197540384547
O           -1.77807702173180       -0.01385235798997       -0.27194714936407
H           -0.50078752318169        0.92413872065235        1.10889142940003
H           -0.49417099882567       -0.85939739685343        1.16152300246530
H            0.49518711277342        0.86137393577909       -1.16078869137145
H            0.49978047366574       -0.92221515451437       -1.10973130599022
H            2.52325786235325       -0.00001607140428       -0.33571900809702
H           -2.52323269427904       -0.00145251879078        0.33577887301089
10
 energy: -230.207000320268 gnorm: 0.000492087920 xtb: 6.7.1 (edcfbbe)
C           -0.57344980128205        0.01313858591365        0.49520402037736
C            0.57345769293897       -0.01200703154869       -0.49523019013089
O            1.77907287024153        0.01330109983406        0.27195212773247
O           -1.77906079674655       -0.01368201376376       -0.27193389728232
H           -0.50209548575619        0.92411570651461        1.10792200722118
H           -0.49573878833974       -0.85972568000036        1.16039679857573
H            0.49653219055330        0.86139352250012       -1.15981219830208
H            0.50131174527571       -0.92248906225296       -1.10858829316107
H            2.52304872452857        0.00024766042546       -0.33738217855249
H           -2.52303224370324       -0.00119959241112        0.33741976311881
10
 energy: -230.207000320268 gnorm: 0.000492087920 xtb: 6.7.1 (edcfbbe)
C           -0.57344980128205        0.01313858591365        0.49520402037736
C            0.57345769293897       -0.01200703154869       -0.49523019013089
O            1.77907287024153        0.01330109983406        0.27195212773247
O           -1.77906079674655       -0.01368201376376       -0.27193389728232
H           -0.50209548575619        0.92411570651461        1.10792200722118
H           -0.49573878833974       -0.85972568000036        1.16039679857573
H            0.49653219055330        0.86139352250012       -1.15981219830208
H            0.50131174527571       -0.92248906225296       -1.10858829316107
H            2.52304872452857        0.00024766042546       -0.33738217855249
H           -2.52303224370324       -0.00119959241112        0.33741976311881
