
                                 *****************
                                 * O   R   C   A *
                                 *****************

                                            #,                                       
                                            ###                                      
                                            ####                                     
                                            #####                                    
                                            ######                                   
                                           ########,                                 
                                     ,,################,,,,,                         
                               ,,#################################,,                 
                          ,,##########################################,,             
                       ,#########################################, ''#####,          
                    ,#############################################,,   '####,        
                  ,##################################################,,,,####,       
                ,###########''''           ''''###############################       
              ,#####''   ,,,,##########,,,,          '''####'''          '####       
            ,##' ,,,,###########################,,,                        '##       
           ' ,,###''''                  '''############,,,                           
         ,,##''                                '''############,,,,        ,,,,,,###''
      ,#''                                            '''#######################'''  
     '                                                          ''''####''''         
             ,#######,   #######,   ,#######,      ##                                
            ,#'     '#,  ##    ##  ,#'     '#,    #''#        ,####,   ,####,        
            ##       ##  ##   ,#'  ##            #'  '#       #'       #'  '#        
            ##       ##  #######   ##           ,######,      #####,   #    #        
            '#,     ,#'  ##    ##  '#,     ,#' ,#      #,     #,   #   #,  ,#        
             '#######'   ##     ##  '#######'  #'      '#     '####' # '####'        



                #########################################################
                #                        -***-                          #
                #          Department of theory and spectroscopy        #
                #                                                       #
                #                      Frank Neese                      #
                #                                                       #
                #     Directorship, Architecture, Infrastructure        #
                #                    SHARK, DRIVERS                     #
                #        Core code/Algorithms in most modules           #
                #                                                       #
                #        Max Planck Institute fuer Kohlenforschung      #
                #                Kaiser Wilhelm Platz 1                 #
                #                 D-45470 Muelheim/Ruhr                 #
                #                      Germany                          #
                #                                                       #
                #                  All rights reserved                  #
                #                        -***-                          #
                #########################################################


                         Program Version 6.0.0  -   RELEASE  -


 With contributions from (in alphabetic order):
   Daniel Aravena         : Magnetic Suceptibility
   Michael Atanasov       : Ab Initio Ligand Field Theory (pilot matlab implementation)
   Alexander A. Auer      : GIAO ZORA, VPT2 properties, NMR spectrum
   Ute Becker             : All parallelization in ORCA, NUMFREQ, NUMCALC
   Giovanni Bistoni       : ED, misc. LED, open-shell LED, HFLD
   Martin Brehm           : Molecular dynamics
   Dmytro Bykov           : pre 5.0 version of the SCF Hessian
   Marcos Casanova-Páez   : Triplet and SCS-CIS(D). UHF-(DLPNO)-IP/EA/STEOM-CCSD. UHF-CVS-IP/STEOM-CCSD
   Vijay G. Chilkuri      : MRCI spin determinant printing, contributions to CSF-ICE
   Pauline Colinet        : FMM embedding
   Dipayan Datta          : RHF DLPNO-CCSD density
   Achintya Kumar Dutta   : EOM-CC, STEOM-CC
   Nicolas Foglia         : Exact transition moments, OPA infrastructure, MCD improvements
   Dmitry Ganyushin       : Spin-Orbit,Spin-Spin,Magnetic field MRCI
   Miquel Garcia          : C-PCM and meta-GGA Hessian, CCSD/C-PCM, Gaussian charge scheme
   Tiago L. C. Gouveia    : GS-ROHF, GS-ROCIS
   Yang Guo               : DLPNO-NEVPT2, F12-NEVPT2, CIM, IAO-localization
   Andreas Hansen         : Spin unrestricted coupled pair/coupled cluster methods
   Ingolf Harden          : AUTO-CI MPn and infrastructure 
   Benjamin Helmich-Paris : MC-RPA, TRAH-(SCF,CASSCF), AVAS, COSX integrals, SCF dyn. polar.
   Lee Huntington         : MR-EOM, pCC
   Robert Izsak           : Overlap fitted RIJCOSX, COSX-SCS-MP3, EOM
   Riya Kayal             : Wick's Theorem for AUTO-CI, AUTO-CI UHF-CCSDT
   Emily Kempfer          : AUTO-CI, RHF CISDT and CCSDT
   Christian Kollmar      : KDIIS, OOCD, Brueckner-CCSD(T), CCSD density, CASPT2, CASPT2-K, improved NEVPT2
   Axel Koslowski         : Symmetry handling
   Simone Kossmann        : Meta GGA functionals, TD-DFT gradient, OOMP2, (MP2 Hessian; deprecated post 5.0)
   Lucas Lang             : DCDCAS
   Marvin Lechner         : AUTO-CI (C++ implementation), FIC-MRCC
   Spencer Leger          : CASSCF response
   Dagmar Lenk            : GEPOL surface, SMD, ORCA-2-JSON
   Dimitrios Liakos       : Extrapolation schemes; Compound Job, initial MDCI parallelization
   Dimitrios Manganas     : Further ROCIS development; embedding schemes. LFT, Crystal Embedding
   Dimitrios Pantazis     : SARC Basis sets
   Anastasios Papadopoulos: AUTO-CI, single reference methods and gradients
   Taras Petrenko         : pre 6.0 DFT Hessian and TD-DFT gradient, (ASA, deprecated), ECA, 1-Electron XAS/XES, NRVS
   Peter Pinski           : DLPNO-MP2, DLPNO-MP2 Gradient
   Christoph Reimann      : Effective Core Potentials
   Marius Retegan         : Local ZFS, SOC
   Christoph Riplinger    : Optimizer, TS searches, QM/MM, DLPNO-CCSD(T), (RO)-DLPNO pert. Triples
   Michael Roemelt        : Original ROCIS implementation
   Masaaki Saitow         : Open-shell DLPNO-CCSD energy and density
   Barbara Sandhoefer     : DKH picture change effects
   Kantharuban Sivalingam : CASSCF convergence/infrastructure, NEVPT2 and variants, FIC-MRCI
   Bernardo de Souza      : ESD, SOC TD-DFT
   Georgi Stoychev        : AutoAux, RI-MP2 NMR, DLPNO-MP2 response, X2C
   Van Anh Tran           : RI-MP2 g-tensors
   Willem Van den Heuvel  : Paramagnetic NMR
   Zikuan Wang            : NOTCH, Electric field optimization 
   Frank Wennmohs         : Technical directorship and infrastructure
   Hang Xu                : AUTO-CI-Response properties 


 We gratefully acknowledge several colleagues who have allowed us to
 interface, adapt or use parts of their codes:
   Stefan Grimme, W. Hujo, H. Kruse, P. Pracht,  : VdW corrections, initial TS optimization,
                  C. Bannwarth, S. Ehlert,         DFT functionals, gCP, sTDA/sTD-DF
                  L. Wittmann, M. Mueller
   Ed Valeev, F. Pavosevic, A. Kumar             : LibInt (2-el integral package), F12 methods
   Garnet Chan, S. Sharma, J. Yang, R. Olivares  : DMRG
   Ulf Ekstrom                                   : XCFun DFT Library
   Mihaly Kallay                                 : mrcc  (arbitrary order and MRCC methods)
   Frank Weinhold                                : gennbo (NPA and NBO analysis)
   Simon Mueller                                 : openCOSMO-RS
   Christopher J. Cramer and Donald G. Truhlar   : smd solvation model
   Lars Goerigk                                  : TD-DFT with DH, B97 family of functionals
   V. Asgeirsson, H. Jonsson                     : NEB implementation
   FAccTs GmbH                                   : IRC, NEB, NEB-TS, DLPNO-Multilevel, CI-OPT
                                                   MM, QMMM, 2- and 3-layer-ONIOM, Crystal-QMMM,
                                                   LR-CPCM, SF, NACMEs, symmetry and pop. for TD-DFT,
                                                   nearIR, NL-DFT gradient (VV10), updates on ESD,
                                                   ML-optimized integration grids, MBIS, APM,
                                                   GOAT, DOCKER, SOLVATOR, interface openCOSMO-RS
   S Lehtola, MJT Oliveira, MAL Marques          : LibXC Library
   Liviu Ungur et al                             : ANISO software


 Your calculation uses the libint2 library for the computation of 2-el integrals
 For citations please refer to: http://libint.valeyev.net

 Your ORCA version has been built with support for libXC version: 6.2.2
 For citations please refer to: https://libxc.gitlab.io

 This ORCA versions uses:
   CBLAS   interface :  Fast vector & matrix operations
   LAPACKE interface :  Fast linear algebra routines
   SCALAPACK package :  Parallel linear algebra routines
   Shared memory     :  Shared parallel matrices
   BLAS/LAPACK       :  OpenBLAS 0.3.27  USE64BITINT DYNAMIC_ARCH NO_AFFINITY SkylakeX SINGLE_THREADED
        Core in use  :  SkylakeX
   Copyright (c) 2011-2014, The OpenBLAS Project




***************************************
The coordinates will be read from file: vacuum_censo.xyz
***************************************


Your calculation utilizes the geometrical counterpoise correction gCP
Please cite in your paper:
H.Kruse, S. Grimme J.Chem.Phys., 136, (2012), 154101 
   

Your calculation utilizes the atom-pairwise dispersion correction
based on EEQ partial charges (D4)


================================================================================

----- Orbital basis set information -----
Your calculation utilizes the basis: def2-TZVP
   F. Weigend and R. Ahlrichs, Phys. Chem. Chem. Phys. 7, 3297 (2005).

----- AuxJ basis set information -----
Your calculation utilizes the basis: def2-mTZVPP/J
   Stefan Grimme, Andreas Hansen, Sebastian Ehlert, and Jan-Michael Mewes 
   J. Chem. Phys. 154, 000000 (2021). DOI: 10.1063/5.0040021

================================================================================
                                        WARNINGS
                       Please study these warnings very carefully!
================================================================================

Using LibXC functional ID 497 : Re-regularized SCAN exchange by Furness et al
[ 1]  J. W. Furness, A. D. Kaplan, J. Ning, J. P. Perdew, and J. Sun.,  J. Phys. Chem. Lett. 11, 8208-8215 (2020)
[ 2]  J. W. Furness, A. D. Kaplan, J. Ning, J. P. Perdew, and J. Sun.,  J. Phys. Chem. Lett. 11, 9248-9248 (2020)
Using LibXC functional ID 498 : Re-regularized SCAN correlation by Furness et al
[ 1]  J. W. Furness, A. D. Kaplan, J. Ning, J. P. Perdew, and J. Sun.,  J. Phys. Chem. Lett. 11, 8208-8215 (2020)
[ 2]  J. W. Furness, A. D. Kaplan, J. Ning, J. P. Perdew, and J. Sun.,  J. Phys. Chem. Lett. 11, 9248-9248 (2020)
Using LibXC functional ID 497 : Re-regularized SCAN exchange by Furness et al
[ 1]  J. W. Furness, A. D. Kaplan, J. Ning, J. P. Perdew, and J. Sun.,  J. Phys. Chem. Lett. 11, 8208-8215 (2020)
[ 2]  J. W. Furness, A. D. Kaplan, J. Ning, J. P. Perdew, and J. Sun.,  J. Phys. Chem. Lett. 11, 9248-9248 (2020)
Using LibXC functional ID 498 : Re-regularized SCAN correlation by Furness et al
[ 1]  J. W. Furness, A. D. Kaplan, J. Ning, J. P. Perdew, and J. Sun.,  J. Phys. Chem. Lett. 11, 8208-8215 (2020)
[ 2]  J. W. Furness, A. D. Kaplan, J. Ning, J. P. Perdew, and J. Sun.,  J. Phys. Chem. Lett. 11, 9248-9248 (2020)

================================================================================
                                       INPUT FILE
================================================================================
NAME = vacuum_censo.inp
|  1> ! r2SCAN-3c DEF2-TZVP FREQ
|  2> * xyzfile 0 1 vacuum_censo.xyz
|  3> 
|  4>                          ****END OF INPUT****
================================================================================

                       ****************************
                       * Single Point Calculation *
                       ****************************

---------------------------------
CARTESIAN COORDINATES (ANGSTROEM)
---------------------------------
  C     -0.000025    0.818909    0.000020
  Cl    -1.491734   -0.176809   -0.000023
  Cl     1.491721   -0.176772   -0.000021
  H     -0.000029    1.427032    0.903820
  H     -0.000027    1.427105   -0.903732

----------------------------
CARTESIAN COORDINATES (A.U.)
----------------------------
  NO LB      ZA    FRAG     MASS         X           Y           Z
   0 C     6.0000    0    12.011   -0.000046    1.547514    0.000037
   1 Cl   17.0000    0    35.453   -2.818969   -0.334120   -0.000044
   2 Cl   17.0000    0    35.453    2.818945   -0.334051   -0.000039
   3 H     1.0000    0     1.008   -0.000055    2.696700    1.707973
   4 H     1.0000    0     1.008   -0.000052    2.696838   -1.707806

--------------------------------
INTERNAL COORDINATES (ANGSTROEM)
--------------------------------
 C      0   0   0     0.000000000000     0.00000000     0.00000000
 Cl     1   0   0     1.793502580141     0.00000000     0.00000000
 Cl     1   2   0     1.793512447139   112.55530504     0.00000000
 H      1   2   3     1.089343568248   108.05587256   240.76502344
 H      1   2   3     1.089343781587   108.05580740   119.23484587

---------------------------
INTERNAL COORDINATES (A.U.)
---------------------------
 C      0   0   0     0.000000000000     0.00000000     0.00000000
 Cl     1   0   0     3.389228696947     0.00000000     0.00000000
 Cl     1   2   0     3.389247342871   112.55530504     0.00000000
 H      1   2   3     2.058561009736   108.05587256   240.76502344
 H      1   2   3     2.058561412889   108.05580740   119.23484587

---------------------
BASIS SET INFORMATION
---------------------
There are 3 groups of distinct atoms

 Group   1 Type C   : 11s6p2d1f contracted to 5s3p2d1f pattern {62111/411/11/1}
 Group   2 Type Cl  : 14s9p3d1f contracted to 5s5p2d1f pattern {73211/51111/21/1}
 Group   3 Type H   : 5s1p contracted to 3s1p pattern {311/1}

Atom   0C    basis set group =>   1
Atom   1Cl   basis set group =>   2
Atom   2Cl   basis set group =>   2
Atom   3H    basis set group =>   3
Atom   4H    basis set group =>   3
---------------------------------
AUXILIARY/J BASIS SET INFORMATION
---------------------------------
There are 3 groups of distinct atoms

 Group   1 Type C   : 8s3p3d contracted to 6s3p3d pattern {311111/111/111}
 Group   2 Type Cl  : 14s5p5d2f contracted to 8s4p3d1f pattern {71111111/2111/311/2}
 Group   3 Type H   : 5s2p1d contracted to 3s1p1d pattern {311/2/1}

Atom   0C    basis set group =>   1
Atom   1Cl   basis set group =>   2
Atom   2Cl   basis set group =>   2
Atom   3H    basis set group =>   3
Atom   4H    basis set group =>   3
------------------------------------------------------------------------------
                             ORCA STARTUP CALCULATIONS
                           -- RI-GTO INTEGRALS CHOSEN --
------------------------------------------------------------------------------
------------------------------------------------------------------------------
                   ___                                                        
                  /   \      - P O W E R E D   B Y -                         
                 /     \                                                     
                 |  |  |   _    _      __       _____    __    __             
                 |  |  |  | |  | |    /  \     |  _  \  |  |  /  |          
                  \  \/   | |  | |   /    \    | | | |  |  | /  /          
                 / \  \   | |__| |  /  /\  \   | |_| |  |  |/  /          
                |  |  |   |  __  | /  /__\  \  |    /   |      \           
                |  |  |   | |  | | |   __   |  |    \   |  |\   \          
                \     /   | |  | | |  |  |  |  | |\  \  |  | \   \       
                 \___/    |_|  |_| |__|  |__|  |_| \__\ |__|  \__/        
                                                                              
                      - O R C A' S   B I G   F R I E N D -                    
                                      &                                       
                       - I N T E G R A L  F E E D E R -                       
                                                                              
 v1 FN, 2020, v2 2021, v3 2022-2024                                           
------------------------------------------------------------------------------


----------------------
SHARK INTEGRAL PACKAGE
----------------------

Number of atoms                             ...      5
Number of basis functions                   ...    117
Number of shells                            ...     45
Maximum angular momentum                    ...      3
Integral batch strategy                     ... SHARK/LIBINT Hybrid
RI-J (if used) integral strategy            ... SPLIT-RIJ (Revised 2003 algorithm where possible)
Printlevel                                  ...      1
Contraction scheme used                     ... SEGMENTED contraction
Prescreening option                         ... SCHWARTZ
   Thresh                                   ... 1.000e-10
   Tcut                                     ... 1.000e-11
   Tpresel                                  ... 1.000e-11 
Coulomb Range Separation                    ... NOT USED
Exchange Range Separation                   ... NOT USED
Multipole approximations                    ... NOT USED
Finite Nucleus Model                        ... NOT USED
CABS basis                                  ... NOT available
Auxiliary Coulomb fitting basis             ... AVAILABLE
   # of basis functions in Aux-J            ...    136
   # of shells in Aux-J                     ...     54
   Maximum angular momentum in Aux-J        ...      3
Auxiliary J/K fitting basis                 ... NOT available
Auxiliary Correlation fitting basis         ... NOT available
Auxiliary 'external' fitting basis          ... NOT available

Checking pre-screening integrals            ... done (  0.0 sec) Dimension = 45
Check shell pair data                       ... done (  0.0 sec)
Shell pair information
Shell pair cut-off parameter TPreSel        ...   1.0e-11
Total number of shell pairs                 ...      1035
Shell pairs after pre-screening             ...       992
Total number of primitive shell pairs       ...      3841
Primitive shell pairs kept                  ...      2924
          la=0 lb=0:    216 shell pairs
          la=1 lb=0:    295 shell pairs
          la=1 lb=1:    114 shell pairs
          la=2 lb=0:    124 shell pairs
          la=2 lb=1:     90 shell pairs
          la=2 lb=2:     21 shell pairs
          la=3 lb=0:     63 shell pairs
          la=3 lb=1:     45 shell pairs
          la=3 lb=2:     18 shell pairs
          la=3 lb=3:      6 shell pairs

Calculating one electron integrals          ... done (  0.0 sec)
Calculating RI/J V-Matrix + Cholesky decomp.... done (  0.0 sec)
Calculating Nuclear repulsion               ... done (  0.0 sec) ENN=    132.759176537342 Eh

Diagonalization of the overlap matrix:
Smallest eigenvalue                        ... 2.409e-03
Time for diagonalization                   ...    0.001 sec
Threshold for overlap eigenvalues          ... 1.000e-07
Number of eigenvalues below threshold      ... 0
Time for construction of square roots      ...    0.014 sec
Total time needed                          ...    0.026 sec

-------------------
DFT GRID GENERATION
-------------------

General Integration Accuracy     IntAcc      ... 4.388
Radial Grid Type                 RadialGrid  ... OptM3 with GC (2021)
Angular Grid (max. ang.)         AngularGrid ... 4 (Lebedev-302)
Angular grid pruning method      GridPruning ... 4 (adaptive)
Weight generation scheme         WeightScheme... mBecke (2022)
Basis function cutoff            BFCut       ... 1.0000e-10
Integration weight cutoff        WCut        ... 1.0000e-14
Partially contracted basis set               ... off
Rotationally invariant grid construction     ... off
Angular grids for H and He will be reduced by one unit

Total number of grid points                  ...    27352
Total number of batches                      ...      429
Average number of points per batch           ...       63
Average number of grid points per atom       ...     5470
Initializing property integral containers    ... done (  0.0 sec)

SHARK setup successfully completed in   0.4 seconds

Maximum memory used throughout the entire STARTUP-calculation: 13.9 MB
-------------------------------------------------------------------------------
                                 ORCA GUESS
                   Start orbitals & Density for SCF / CASSCF
-------------------------------------------------------------------------------

------------
SCF SETTINGS
------------
Hamiltonian:
 Density Functional     Method          .... DFT(GTOs)
  Functional kind                       .... Exchange
  Functional name                       .... Re-regularized SCAN exchange by Furness et al
  Functional family                     .... MGGA
  Functional refs                              
    [ 0] J. W. Furness, A. D. Kaplan, J. Ning, J. P. Perdew, and J. Sun.,  J. Phys. Chem. Lett. 11, 8208-8215 (2020), doi: 10.1021/acs.jpclett.0c02405
    [ 1] J. W. Furness, A. D. Kaplan, J. Ning, J. P. Perdew, and J. Sun.,  J. Phys. Chem. Lett. 11, 9248-9248 (2020), doi: 10.1021/acs.jpclett.0c03077
  Functional external parameters        .... 6
    Parameter  0 _c1        =  6.670000e-01 : c1 parameter        
    Parameter  1 _c2        =  8.000000e-01 : c2 parameter        
    Parameter  2 _d         =  1.240000e+00 : d parameter         
    Parameter  3 _k1        =  6.500000e-02 : k1 parameter        
    Parameter  4 _eta       =  1.000000e-03 : eta parameter       
    Parameter  5 _dp2       =  3.610000e-01 : dp2 parameter       
  Functional kind                       .... Correlation
  Functional name                       .... Re-regularized SCAN correlation by Furness et al
  Functional family                     .... MGGA
  Functional refs                              
    [ 0] J. W. Furness, A. D. Kaplan, J. Ning, J. P. Perdew, and J. Sun.,  J. Phys. Chem. Lett. 11, 8208-8215 (2020), doi: 10.1021/acs.jpclett.0c02405
    [ 1] J. W. Furness, A. D. Kaplan, J. Ning, J. P. Perdew, and J. Sun.,  J. Phys. Chem. Lett. 11, 9248-9248 (2020), doi: 10.1021/acs.jpclett.0c03077
  Functional external parameters        .... 1
    Parameter  0 _eta       =  1.000000e-03 : Regularization parameter
 Gradients option       PostSCFGGA      .... off
 RI-approximation to the Coulomb term is turned on
   Number of AuxJ basis functions       .... 136


General Settings:
 Integral files         IntName         .... vacuum_censo
 Hartree-Fock type      HFTyp           .... RHF
 Total Charge           Charge          ....    0
 Multiplicity           Mult            ....    1
 Number of Electrons    NEL             ....   42
 Basis Dimension        Dim             ....  117
 Nuclear Repulsion      ENuc            ....    132.7591765373 Eh

Convergence Acceleration:
 AO-DIIS                CNVDIIS         .... on
   Start iteration      DIISMaxIt       ....    12
   Startup error        DIISStart       ....  0.200000
   # of expansion vecs  DIISMaxEq       ....     5
   Bias factor          DIISBfac        ....   1.050
   Max. coefficient     DIISMaxC        ....  10.000
 MO-DIIS                CNVKDIIS        .... off
 Trust-Rad. Augm. Hess. CNVTRAH         .... auto
   Auto Start mean grad. ratio tolernc. ....  1.125000
   Auto Start start iteration           ....    50
   Auto Start num. interpolation iter.  ....    10
   Max. Number of Micro iterations      ....    24
   Max. Number of Macro iterations      .... Maxiter - #DIIS iter
   Number of Davidson start vectors     ....     2
   Converg. threshold    (grad. norm)   ....   5.000e-05
   Grad. Scal. Fac. for Micro threshold ....   0.100
   Minimum threshold for Micro iter.    ....   1.000e-02
   NR start threshold (gradient norm)   ....   1.000e-04
   Initial trust radius                 ....   0.400
   Minimum AH scaling param. (alpha)    ....   1.000
   Maximum AH scaling param. (alpha)    .... 1000.000
   Quad. conv. algorithm                .... NR
   White noise on init. David. guess    .... on
   Maximum white noise                  ....   0.010
   Pseudo random numbers                .... off
   Inactive MOs                         .... canonical
   Orbital update algorithm             .... Taylor
   Preconditioner                       .... Diag
   Full preconditioner red. dimension   ....   250
   COSX micro iterations for RIJONX calc.... off
 SOSCF                  CNVSOSCF        .... on
   Start iteration      SOSCFMaxIt      ....   150
   Startup grad/error   SOSCFStart      ....  0.003300
   Hessian update       SOSCFHessUp     .... L-BFGS
 Level Shifting         CNVShift        .... on
   Level shift para.    LevelShift      ....    0.2500
   Turn off err/grad.   ShiftErr        ....    0.0010
 Zerner damping         CNVZerner       .... off
 Static damping         CNVDamp         .... on
   Fraction old density DampFac         ....    0.7000
   Max. Damping (<1)    DampMax         ....    0.9800
   Min. Damping (>=0)   DampMin         ....    0.0000
   Turn off err/grad.   DampErr         ....    0.1000

SCF Procedure:
 Maximum # iterations   MaxIter         ....   125
 SCF integral mode      SCFMode         .... Direct
   Integral package                     .... SHARK and LIBINT hybrid scheme
 Reset frequency        DirectResetFreq ....    20
 Integral Threshold     Thresh          ....  1.000e-10 Eh
 Primitive CutOff       TCut            ....  1.000e-11 Eh

Convergence Tolerance:
 Convergence Check Mode ConvCheckMode   .... Total+1el-Energy
 Convergence forced     ConvForced      .... 0
 Energy Change          TolE            ....  1.000e-06 Eh
 1-El. energy change                    ....  1.000e-03 Eh
 Orbital Gradient       TolG            ....  5.000e-05
 Orbital Rotation angle TolX            ....  5.000e-05
 DIIS Error             TolErr          ....  1.000e-06

------------------------------
INITIAL GUESS: MODEL POTENTIAL
------------------------------
Loading Hartree-Fock densities                     ... done
Calculating cut-offs                               ... done
Initializing the effective Hamiltonian             ... done
Setting up the integral package (SHARK)            ... done
Starting the Coulomb interaction                   ... done (   0.0 sec)
Making the grid                                    ... done (   0.0 sec)
Mapping shells                                     ... done
Starting the XC term evaluation                    ... done (   0.1 sec)
  promolecular density results
     # of electrons  =     41.999166139
     EX              =    -60.452322638
     EC              =     -1.588034916
     EX+EC           =    -62.040357553
Transforming the Hamiltonian                       ... done (   0.0 sec)
Diagonalizing the Hamiltonian                      ... done (   0.0 sec)
Back transforming the eigenvectors                 ... done (   0.0 sec)
Now organizing SCF variables                       ... done
                      ------------------
                      INITIAL GUESS DONE (   0.2 sec)
                      ------------------
             **** ENERGY FILE WAS UPDATED (vacuum_censo.en.tmp) ****
Finished Guess after   0.4 sec
Maximum memory used throughout the entire GUESS-calculation: 8.9 MB

-------------------------------------------------------------------------------------------
                                      ORCA LEAN-SCF
                              memory conserving SCF solver
-------------------------------------------------------------------------------------------

----------------------------------------D-I-I-S--------------------------------------------
Iteration    Energy (Eh)           Delta-E    RMSDP     MaxDP     DIISErr   Damp  Time(sec)
-------------------------------------------------------------------------------------------
               ***  Starting incremental Fock matrix formation  ***
    1    -959.6456105273282446     0.00e+00  9.99e-04  3.35e-02  5.74e-02  0.700   0.7
    2    -959.6511816294018899    -5.57e-03  7.53e-04  2.47e-02  3.50e-02  0.700   0.7
                               ***Turning on AO-DIIS***
    3    -959.6541003413992712    -2.92e-03  3.92e-04  1.23e-02  2.49e-02  0.700   0.7
    4    -959.6559022518188158    -1.80e-03  7.60e-04  2.25e-02  1.74e-02  0.000   0.7
                              *** Initializing SOSCF ***
---------------------------------------S-O-S-C-F--------------------------------------
Iteration    Energy (Eh)           Delta-E    RMSDP     MaxDP     MaxGrad    Time(sec)
--------------------------------------------------------------------------------------
    5    -959.6598236633203669    -3.92e-03  6.68e-05  1.15e-03  2.28e-03     0.8
               *** Restarting incremental Fock matrix formation ***
    6    -959.6598436416636559    -2.00e-05  2.66e-05  5.70e-04  2.15e-04     0.7
    7    -959.6598426168818605     1.02e-06  1.53e-05  2.22e-04  4.76e-04     0.7
    8    -959.6598442394495123    -1.62e-06  3.31e-06  7.72e-05  2.17e-05     0.7
    9    -959.6598442433228229    -3.87e-09  1.41e-06  2.66e-05  1.84e-05     0.7
                 **** Energy Check signals convergence ****

               *****************************************************
               *                     SUCCESS                       *
               *           SCF CONVERGED AFTER   9 CYCLES          *
               *****************************************************

             **** ENERGY FILE WAS UPDATED (vacuum_censo.en.tmp) ****

----------------
TOTAL SCF ENERGY
----------------

Total Energy       :       -959.65984424332282 Eh          -26113.67196 eV

Components:
Nuclear Repulsion  :        132.75917653734200 Eh            3612.56085 eV
Electronic Energy  :      -1092.41902078066460 Eh          -29726.23281 eV
One Electron Energy:      -1587.54658671351035 Eh          -43199.33884 eV
Two Electron Energy:        495.12756593284564 Eh           13473.10603 eV

Virial components:
Potential Energy   :      -1917.77775348466366 Eh          -52185.38573 eV
Kinetic Energy     :        958.11790924134095 Eh           26071.71377 eV
Virial Ratio       :          2.00160933741777

DFT components:
N(Alpha)           :       20.999998362658 electrons
N(Beta)            :       20.999998362658 electrons
N(Total)           :       41.999996725316 electrons
E(X)               :      -61.009530099877 Eh       
E(C)               :       -1.567962786628 Eh       
E(XC)              :      -62.577492886505 Eh       

---------------
SCF CONVERGENCE
---------------

  Last Energy change         ...    3.8733e-09  Tolerance :   1.0000e-06
  Last MAX-Density change    ...    2.6583e-05  Tolerance :   1.0000e-05
  Last RMS-Density change    ...    1.4062e-06  Tolerance :   1.0000e-06
  Last DIIS Error            ...    2.2826e-03  Tolerance :   1.0000e-06
  Last Orbital Gradient      ...    1.8353e-05  Tolerance :   5.0000e-05
  Last Orbital Rotation      ...    1.5543e-05  Tolerance :   5.0000e-05


----------------
ORBITAL ENERGIES
----------------

  NO   OCC          E(Eh)            E(eV) 
   0   2.0000    -101.199122     -2753.7681 
   1   2.0000    -101.199118     -2753.7680 
   2   2.0000     -10.162952      -276.5480 
   3   2.0000      -9.375171      -255.1114 
   4   2.0000      -9.375167      -255.1113 
   5   2.0000      -7.120265      -193.7523 
   6   2.0000      -7.120263      -193.7522 
   7   2.0000      -7.110055      -193.4744 
   8   2.0000      -7.110054      -193.4744 
   9   2.0000      -7.109554      -193.4608 
  10   2.0000      -7.109553      -193.4608 
  11   2.0000      -0.863526       -23.4977 
  12   2.0000      -0.788769       -21.4635 
  13   2.0000      -0.636259       -17.3135 
  14   2.0000      -0.466035       -12.6815 
  15   2.0000      -0.434955       -11.8357 
  16   2.0000      -0.422717       -11.5027 
  17   2.0000      -0.306345        -8.3361 
  18   2.0000      -0.302018        -8.2183 
  19   2.0000      -0.286862        -7.8059 
  20   2.0000      -0.280743        -7.6394 
  21   0.0000      -0.042607        -1.1594 
  22   0.0000      -0.001566        -0.0426 
  23   0.0000       0.054810         1.4915 
  24   0.0000       0.086339         2.3494 
  25   0.0000       0.170071         4.6279 
  26   0.0000       0.176063         4.7909 
  27   0.0000       0.235055         6.3962 
  28   0.0000       0.245021         6.6674 
  29   0.0000       0.295014         8.0277 
  30   0.0000       0.306108         8.3296 
  31   0.0000       0.320530         8.7221 
*Only the first 10 virtual orbitals were printed.

                    ********************************
                    * MULLIKEN POPULATION ANALYSIS *
                    ********************************

-----------------------
MULLIKEN ATOMIC CHARGES
-----------------------
   0 C :   -0.059589
   1 Cl:   -0.118421
   2 Cl:   -0.118427
   3 H :    0.148219
   4 H :    0.148219
Sum of atomic charges:    0.0000000

--------------------------------
MULLIKEN REDUCED ORBITAL CHARGES
--------------------------------
  0 C s       :     3.226303  s :     3.226303
      pz      :     1.084954  p :     2.699763
      px      :     0.725931
      py      :     0.888878
      dz2     :     0.010852  d :     0.126535
      dxz     :     0.028029
      dyz     :     0.020372
      dx2y2   :     0.038175
      dxy     :     0.029108
      f0      :     0.000719  f :     0.006987
      f+1     :     0.000445
      f-1     :     0.001416
      f+2     :    -0.000038
      f-2     :     0.000956
      f+3     :     0.001829
      f-3     :     0.001660

  1 Cls       :     5.931142  s :     5.931142
      pz      :     3.961120  p :    11.129308
      px      :     3.440079
      py      :     3.728109
      dz2     :     0.007052  d :     0.053028
      dxz     :     0.008210
      dyz     :     0.006003
      dx2y2   :     0.012434
      dxy     :     0.019329
      f0      :     0.000435  f :     0.004943
      f+1     :     0.000753
      f-1     :     0.000344
      f+2     :     0.000066
      f-2     :     0.000713
      f+3     :     0.000937
      f-3     :     0.001696

  2 Cls       :     5.931144  s :     5.931144
      pz      :     3.961121  p :    11.129314
      px      :     3.440064
      py      :     3.728129
      dz2     :     0.007052  d :     0.053027
      dxz     :     0.008210
      dyz     :     0.006003
      dx2y2   :     0.012434
      dxy     :     0.019328
      f0      :     0.000435  f :     0.004943
      f+1     :     0.000753
      f-1     :     0.000344
      f+2     :     0.000066
      f-2     :     0.000713
      f+3     :     0.000937
      f-3     :     0.001696

  3 H s       :     0.828622  s :     0.828622
      pz      :     0.011208  p :     0.023159
      px      :     0.004277
      py      :     0.007674

  4 H s       :     0.828622  s :     0.828622
      pz      :     0.011208  p :     0.023159
      px      :     0.004277
      py      :     0.007674



                     *******************************
                     * LOEWDIN POPULATION ANALYSIS *
                     *******************************

----------------------
LOEWDIN ATOMIC CHARGES
----------------------
   0 C :   -0.744347
   1 Cl:    0.263745
   2 Cl:    0.263734
   3 H :    0.108434
   4 H :    0.108434

-------------------------------
LOEWDIN REDUCED ORBITAL CHARGES
-------------------------------
  0 C s       :     2.992318  s :     2.992318
      pz      :     1.148808  p :     3.172925
      px      :     0.985964
      py      :     1.038152
      dz2     :     0.066828  d :     0.534876
      dxz     :     0.080466
      dyz     :     0.101572
      dx2y2   :     0.134197
      dxy     :     0.151813
      f0      :     0.004534  f :     0.044228
      f+1     :     0.005098
      f-1     :     0.003905
      f+2     :     0.004140
      f-2     :     0.005345
      f+3     :     0.011009
      f-3     :     0.010196

  1 Cls       :     5.612974  s :     5.612974
      pz      :     3.895940  p :    11.021125
      px      :     3.435057
      py      :     3.690128
      dz2     :     0.012992  d :     0.091413
      dxz     :     0.014478
      dyz     :     0.009086
      dx2y2   :     0.020309
      dxy     :     0.034549
      f0      :     0.001089  f :     0.010743
      f+1     :     0.001498
      f-1     :     0.000721
      f+2     :     0.000202
      f-2     :     0.001695
      f+3     :     0.002171
      f-3     :     0.003366

  2 Cls       :     5.612981  s :     5.612981
      pz      :     3.895942  p :    11.021132
      px      :     3.435043
      py      :     3.690146
      dz2     :     0.012992  d :     0.091411
      dxz     :     0.014478
      dyz     :     0.009085
      dx2y2   :     0.020309
      dxy     :     0.034548
      f0      :     0.001089  f :     0.010742
      f+1     :     0.001498
      f-1     :     0.000721
      f+2     :     0.000202
      f-2     :     0.001695
      f+3     :     0.002171
      f-3     :     0.003366

  3 H s       :     0.824172  s :     0.824172
      pz      :     0.034809  p :     0.067395
      px      :     0.010337
      py      :     0.022248

  4 H s       :     0.824172  s :     0.824172
      pz      :     0.034807  p :     0.067395
      px      :     0.010337
      py      :     0.022250



                      *****************************
                      * MAYER POPULATION ANALYSIS *
                      *****************************

  NA   - Mulliken gross atomic population
  ZA   - Total nuclear charge
  QA   - Mulliken gross atomic charge
  VA   - Mayer's total valence
  BVA  - Mayer's bonded valence
  FA   - Mayer's free valence

  ATOM       NA         ZA         QA         VA         BVA        FA
  0 C      6.0596     6.0000    -0.0596     4.0839     4.0839     0.0000
  1 Cl    17.1184    17.0000    -0.1184     1.1492     1.1492    -0.0000
  2 Cl    17.1184    17.0000    -0.1184     1.1492     1.1492     0.0000
  3 H      0.8518     1.0000     0.1482     0.9653     0.9653     0.0000
  4 H      0.8518     1.0000     0.1482     0.9653     0.9653     0.0000

  Mayer bond orders larger than 0.100000
B(  0-C ,  1-Cl) :   1.0873 B(  0-C ,  2-Cl) :   1.0873 B(  0-C ,  3-H ) :   0.9547 
B(  0-C ,  4-H ) :   0.9547 

-------
TIMINGS
-------

Total SCF time: 0 days 0 hours 0 min 6 sec 

Total time                  ....       6.715 sec
Sum of individual times     ....       6.177 sec  ( 92.0%)

SCF preparation             ....       0.224 sec  (  3.3%)
Fock matrix formation       ....       5.184 sec  ( 77.2%)
  Startup                   ....       0.048 sec  (  0.9% of F)
  Split-RI-J                ....       0.420 sec  (  8.1% of F)
  XC integration            ....       4.251 sec  ( 82.0% of F)
    Basis function eval.    ....       0.618 sec  ( 14.5% of XC)
    Density eval.           ....       0.951 sec  ( 22.4% of XC)
    XC-Functional eval.     ....       0.677 sec  ( 15.9% of XC)
    XC-Potential eval.      ....       1.324 sec  ( 31.1% of XC)
Diagonalization             ....       0.000 sec  (  0.0%)
Density matrix formation    ....       0.185 sec  (  2.8%)
Total Energy calculation    ....       0.026 sec  (  0.4%)
Population analysis         ....       0.035 sec  (  0.5%)
Orbital Transformation      ....       0.046 sec  (  0.7%)
Orbital Orthonormalization  ....       0.000 sec  (  0.0%)
DIIS solution               ....       0.310 sec  (  4.6%)
SOSCF solution              ....       0.166 sec  (  2.5%)
Finished LeanSCF after   6.8 sec

Maximum memory used throughout the entire LEANSCF-calculation: 9.6 MB

------------------------------------------------------------------------------
                         ORCA PROPERTY INTEGRAL CALCULATIONS
------------------------------------------------------------------------------

GBWName                                   ... vacuum_censo.gbw
Number of atoms                           ...      5
Number of basis functions                 ...    117
Max core memory                           ...   1024 MB

Dipole integrals                          ... YES
Quadrupole integrals                      ...  NO
Linear momentum integrals                 ...  NO
Angular momentum integrals                ...  NO
Higher moments length integrals           ...  NO
Higher moments velocity integrals         ...  NO
Kinetic energy integrals                  ...  NO
GIAO right hand sides                     ...  NO
GIAO dipole derivative integrals          ...  NO
SOC integrals                             ...  NO
EPR diamagnetic integrals (GIAO)          ...  NO
EPR gauge integrals                       ...  NO
Field gradient integrals                  ...  NO (   0 nuclei)
Spin-dipole/Fermi contact integrals       ...  NO (   0 nuclei)
Contact density integrals                 ...  NO (   0 nuclei)
Nucleus-orbit integrals                   ...  NO (   0 nuclei)
Geometric perturbations                   ... YES (   5 nuclei)

Choice of electric origin   ... Center of mass
Position of electric origin ... ( -0.0000,  0.0039, -0.0000) 
Choice of magnetic origin   ... GIAO
Position of magnetic origin ... (  0.0000,  0.0000,  0.0000) 

Calculating integrals                     ... Electric Dipole (Length)     done (  0.0 sec)
Calculating integrals                     ... Geometrical perturbation right hand sides

-----------------------
GEOMETRIC PERTURBATIONS (5 nuclei)
-----------------------

MaxCore                            ...   1024 MB
Number of batches                  ...      1

BATCH   0: Atoms    0 -    4 ( 15 perturbations)
   => H(core) and overlap derivative integrals     ... done (     0.0 sec)
   => Making and storing internal U-coefficients   ... done (     0.3 sec)
   => RI-J derivative integrals                    ... done (     0.4 sec)
   => RI-J response operators                      ... done (     0.1 sec)
   => XC derivative integrals                      ... done (    13.1 sec)
   => XC response operators                        ... done (     3.1 sec)
   => Completing and storing right hand sides      ... done (     0.1 sec)
   => Total time for right hand sides =  18.0 sec

  geometrical perturbations done ( 18.0 sec)

Property integrals calculated in  18.0 sec

Maximum memory used throughout the entire PROPINT-calculation: 21.0 MB


-------------------------------------------------------------------------------
                          DFT DISPERSION CORRECTION                            
                                                                               
                                DFTD4 V3.4.0                                   
-------------------------------------------------------------------------------
The R2SCAN3C composite method is recognized
Using three-body term ABC
Active option DFTDOPT                   ...         5   

-------------------------   ----------------
Dispersion correction           -0.000955066
-------------------------   ----------------

------------------   -----------------
gCP correction             0.006751241
------------------   -----------------

-------------------------   --------------------
FINAL SINGLE POINT ENERGY      -959.654048068501
-------------------------   --------------------

------------------------------------------------------------------------------
                            ORCA SCF RESPONSE CALCULATION
------------------------------------------------------------------------------

GBWName                                 ... vacuum_censo.gbw
Number of atoms                         ...      5
Number of basis functions               ...    117
Max core memory                         ...   1024 MB

Electric field perturbation             ...  NO
Quadrupolar field perturbation          ...  NO
Magnetic field perturbation (no GIAO)   ...  NO
Magnetic field perturbation (with GIAO) ...  NO
Linear momentum (velocity) perturbation ...  NO
Spin-orbit coupling perturbation        ...  NO
Choice of electric origin               ... Center of mass
Position of electric origin             ...    -0.000018     0.003947    -0.000028
Choice of magnetic origin               ... GIAO
Position of magnetic origin             ...     0.000000     0.000000     0.000000
Nuclear geometric perturbations         ... YES (  15 perturbations)
Nucleus-orbit perturbations             ...  NO (   0 perturbations)
Spin-dipole/Fermi contact perturbations ...  NO (   0 perturbations)

Total number of real perturbations      ...     15
Total number of imaginary perturbations ...      0
Total number of triplet perturbations   ...      0
Total number of SOC perturbations       ...      0


                                **********************
                                * REAL PERTURBATIONS *
                                **********************



-------------------
SHARK CP-SCF DRIVER
-------------------

Dimension of the orbital basis          ...    117
Dimension of the CPSCF-problem          ...   2016
Number of operators                     ...      1
Max. number of iterations               ...    128
Convergence Tolerance                   ... 1.0e-03
Number of perturbations                 ...     15
Perturbation type                       ... REAL

----------------------------
POPLE LINEAR EQUATION SOLVER
----------------------------

  ITERATION   0:   ||err||_max =   1.4574e-01 (   2.1 sec   0/ 15 done)
  ITERATION   1:   ||err||_max =   1.9084e-02 (   2.1 sec   0/ 15 done)
  ITERATION   2:   ||err||_max =   5.0413e-03 (   2.1 sec   4/ 15 done)
  ITERATION   3:   ||err||_max =   1.0183e-03 (   2.2 sec  13/ 15 done)
  ITERATION   4:   ||err||_max =   1.9043e-04 (   0.5 sec  15/ 15 done)

CP-SCF equations solved in  10.4 sec
Response densities calculated in   0.2 sec

Maximum memory used throughout the entire SCFRESP-calculation: 11.2 MB

------------------------------------------------------------------------------
                              ORCA PROPERTY CALCULATIONS
------------------------------------------------------------------------------

GBWName                                 ... vacuum_censo.gbw
Number of atoms                         ...      5
Number of basis functions               ...    117
Max core memory                         ...   1024 MB

Electric properties:
Dipole moment                           ... YES
Quadrupole moment                       ...  NO
Static polarizability (Dipole/Dipole)   ...  NO
Static polarizability (Dipole/Quad.)    ...  NO
Static polarizability (Quad./Quad.)     ...  NO
Static polarizability (Velocity)        ...  NO

Atomic electric properties:
Dipole moment                           ...  NO
Quadrupole moment                       ...  NO
Static polarizability                   ...  NO

Choice of electric origin               ... Center of mass
Position of electric origin             ...    -0.000018     0.003947    -0.000028

General magnetic properties:
Magnetizability                         ...  NO

EPR properties:
g-Tensor (aka g-matrix)                 ...  NO
Zero-Field splitting spin-orbit         ...  NO
Zero-field splitting spin-spin          ...  NO
Hyperfine couplings                     ...  NO (   0 nuclei)
Quadrupole couplings                    ...  NO (   0 nuclei)
Contact density                         ...  NO (   0 nuclei)

NMR properties:
Chemical shifts                         ...  NO (   0 nuclei)
Spin-rotation constants                 ...  NO (   0 nuclei)
Spin-spin couplings                     ...  NO (   0 nuclei,    0 pairs)

Choice of magnetic origin               ... GIAO
Position of magnetic origin             ...     0.000000     0.000000     0.000000

Properties with geometric perturbations:
SCF Hessian                             ... YES
IR spectrum                             ... YES
VCD spectrum                            ...  NO
X-ray spectroscopy properties:
SCF XES/XAS/RIXS spectra                ...  NO


-------------
DIPOLE MOMENT
-------------

Method             : SCF
Type of density    : Electron Density
Multiplicity       :   1
Irrep              :   0
Energy             :  -959.6598442433228229 Eh
Relativity type    : 
Basis              : AO
                                X                 Y                 Z
Electronic contribution:      0.000019443      -2.473074360      -0.000102046
Nuclear contribution   :     -0.000043398       3.153950773       0.000130187
                        -----------------------------------------
Total Dipole Moment    :     -0.000023954       0.680876413       0.000028141
                        -----------------------------------------
Magnitude (a.u.)       :      0.680876414
Magnitude (Debye)      :      1.730650308



--------------------
Rotational spectrum 
--------------------
 
Rotational constants in cm-1:             1.052101             0.105737             0.097919 
Rotational constants in MHz :         31541.201582          3169.906970          2935.524920 

Dipole components along the rotational axes: 
x,y,z [a.u.] :    -0.000016     0.680876    -0.000000 
x,y,z [Debye]:    -0.000041     1.730650    -0.000001 

 

Dipole moment calculation done in   0.0 sec 

-----------
SCF HESSIAN
-----------

Occupied/Occupied contributions to the Hessian:
   => Occupied/Occupied contributions              ... done (  0.0 sec)
Perturbed density contributions to the Hessian:
   => Perturbed density contributions              ... done (  0.0 sec)
Explicit contributions to the Hessian:
   => Nuclear repulsion Hessian                    ... done (  0.0 sec)
   => HCore and overlap Hessian                    ... done (  0.4 sec)
   => RI-J Hessian                                 ... done (  1.1 sec)
   => XC-Hessian                                   ... done (  7.1 sec)
   => Van der Waals-Hessian                        ... done (  0.9 sec)
   => GCP-Hessian                                  ... done (  0.0 sec)
   => Explicit contributions done
Dipole derivatives                                 ... done (  0.0 sec)
Mass weighting the Hessian           ... done
Calculating normal modes             ... done
Scaling frequencies                  ... done

-----------------------
VIBRATIONAL FREQUENCIES
-----------------------

Scaling factor for frequencies =  1.000000000  (already applied!)

     0:       0.00 cm**-1
     1:       0.00 cm**-1
     2:       0.00 cm**-1
     3:       0.00 cm**-1
     4:       0.00 cm**-1
     5:       0.00 cm**-1
     6:     278.16 cm**-1
     7:     673.45 cm**-1
     8:     688.01 cm**-1
     9:     910.68 cm**-1
    10:    1176.16 cm**-1
    11:    1289.21 cm**-1
    12:    1455.32 cm**-1
    13:    3083.26 cm**-1
    14:    3169.68 cm**-1


------------
NORMAL MODES
------------

These modes are the Cartesian displacements weighted by the diagonal matrix
M(i,i)=1/sqrt(m[i]) where m[i] is the mass of the displaced atom
Thus, these vectors are normalized but *not* orthogonal

                  0          1          2          3          4          5    
      0       0.000000   0.000000   0.000000   0.000000   0.000000   0.000000
      1       0.000000   0.000000   0.000000   0.000000   0.000000   0.000000
      2       0.000000   0.000000   0.000000   0.000000   0.000000   0.000000
      3       0.000000   0.000000   0.000000   0.000000   0.000000   0.000000
      4       0.000000   0.000000   0.000000   0.000000   0.000000   0.000000
      5       0.000000   0.000000   0.000000   0.000000   0.000000   0.000000
      6       0.000000   0.000000   0.000000   0.000000   0.000000   0.000000
      7       0.000000   0.000000   0.000000   0.000000   0.000000   0.000000
      8       0.000000   0.000000   0.000000   0.000000   0.000000   0.000000
      9       0.000000   0.000000   0.000000   0.000000   0.000000   0.000000
     10       0.000000   0.000000   0.000000   0.000000   0.000000   0.000000
     11       0.000000   0.000000   0.000000   0.000000   0.000000   0.000000
     12       0.000000   0.000000   0.000000   0.000000   0.000000   0.000000
     13       0.000000   0.000000   0.000000   0.000000   0.000000   0.000000
     14       0.000000   0.000000   0.000000   0.000000   0.000000   0.000000
                  6          7          8          9         10         11    
      0       0.000000   0.757162   0.000354   0.000000  -0.000000  -0.082895
      1      -0.398895  -0.000372   0.643219   0.000007   0.000000   0.000000
      2      -0.000016   0.000001   0.000027  -0.168149   0.000001  -0.000000
      3      -0.494742  -0.140380  -0.119659  -0.000000  -0.000000  -0.005989
      4       0.079266  -0.098647  -0.123399  -0.000001   0.000000  -0.012165
      5       0.000003  -0.000004  -0.000005   0.021176  -0.012179  -0.000000
      6       0.494742  -0.140521   0.119528  -0.000000  -0.000000  -0.005990
      7       0.079277   0.098790  -0.123301  -0.000001  -0.000000   0.012165
      8       0.000004   0.000004  -0.000005   0.021176   0.012179   0.000000
      9       0.000005   0.428814   0.000200   0.000014   0.707005   0.704539
     10      -0.411564  -0.000290   0.506231  -0.647586   0.000012  -0.000002
     11      -0.001512  -0.000051   0.085709   0.256999  -0.000003   0.000005
     12       0.000005   0.428813   0.000201  -0.000014  -0.706999   0.704546
     13      -0.411565  -0.000290   0.506239   0.647563  -0.000012  -0.000002
     14       0.001477   0.000052  -0.085666   0.257051  -0.000004  -0.000003
                 12         13         14    
      0      -0.000001   0.000000   0.000000
      1      -0.075199  -0.063151   0.000003
      2      -0.000003  -0.000002  -0.099718
      3      -0.003876  -0.000285  -0.000000
      4      -0.003614   0.000040  -0.000000
      5      -0.000000   0.000000   0.000196
      6       0.003876   0.000285   0.000000
      7      -0.003613   0.000040  -0.000000
      8      -0.000000   0.000000   0.000196
      9       0.000004  -0.000003  -0.000003
     10       0.575137   0.374791   0.387539
     11      -0.407874   0.597937   0.587240
     12       0.000003  -0.000002   0.000002
     13       0.575105   0.374846  -0.387580
     14       0.407921  -0.597917   0.587198


-----------
IR SPECTRUM
-----------

 Mode   freq       eps      Int      T**2         TX        TY        TZ
       cm**-1   L/(mol*cm) km/mol    a.u.
----------------------------------------------------------------------------
  6:    278.16   0.000068    0.34  0.000076  (-0.000001 -0.008723 -0.000000)
  7:    673.45   0.033222  167.89  0.015394  ( 0.124074 -0.000018  0.000000)
  8:    688.01   0.002778   14.04  0.001260  ( 0.000065  0.035499  0.000001)
  9:    910.68   0.000319    1.61  0.000109  (-0.000000 -0.000001  0.010461)
 10:   1176.16   0.000000    0.00  0.000000  (-0.000000 -0.000000 -0.000000)
 11:   1289.21   0.008087   40.87  0.001958  (-0.044244 -0.000001 -0.000000)
 12:   1455.32   0.000003    0.02  0.000001  (-0.000001  0.000852  0.000000)
 13:   3083.26   0.001370    6.93  0.000139  (-0.000000 -0.011777 -0.000001)
 14:   3169.68   0.000002    0.01  0.000000  ( 0.000000 -0.000000 -0.000440)

* The epsilon (eps) is given for a Dirac delta lineshape.
** The dipole moment derivative (T) already includes vibrational overlap.

The first frequency considered to be a vibration is 6
The total number of vibrations considered is 9


--------------------------
THERMOCHEMISTRY AT 298.15K
--------------------------

Temperature         ...   298.15 K
Pressure            ...     1.00 atm
Total Mass          ...    84.93 AMU
Quasi RRHO          ...     True
Cut-Off Frequency   ...     1.00 cm^-1

Throughout the following assumptions are being made:
  (1) The electronic state is orbitally nondegenerate
  (2) There are no thermally accessible electronically excited states
  (3) Hindered rotations indicated by low frequency modes are not
      treated as such but are treated as vibrations and this may
      cause some error
  (4) All equations used are the standard statistical mechanics
      equations for an ideal gas
  (5) All vibrations are strictly harmonic

freq.     278.16  E(vib)   ...       0.28 
freq.     673.45  E(vib)   ...       0.08 
freq.     688.01  E(vib)   ...       0.07 
freq.     910.68  E(vib)   ...       0.03 
freq.    1176.16  E(vib)   ...       0.01 
freq.    1289.21  E(vib)   ...       0.01 
freq.    1455.32  E(vib)   ...       0.00 
freq.    3083.26  E(vib)   ...       0.00 
freq.    3169.68  E(vib)   ...       0.00 

------------
INNER ENERGY
------------

The inner energy is: U= E(el) + E(ZPE) + E(vib) + E(rot) + E(trans)
    E(el)   - is the total energy from the electronic structure calculation
              = E(kin-el) + E(nuc-el) + E(el-el) + E(nuc-nuc)
    E(ZPE)  - the the zero temperature vibrational energy from the frequency calculation
    E(vib)  - the the finite temperature correction to E(ZPE) due to population
              of excited vibrational states
    E(rot)  - is the rotational thermal energy
    E(trans)- is the translational thermal energy

Summary of contributions to the inner energy U:
Electronic energy                ...   -959.65404807 Eh
Zero point energy                ...      0.02898721 Eh      18.19 kcal/mol
Thermal vibrational correction   ...      0.00077750 Eh       0.49 kcal/mol
Thermal rotational correction    ...      0.00141627 Eh       0.89 kcal/mol
Thermal translational correction ...      0.00141627 Eh       0.89 kcal/mol
-----------------------------------------------------------------------
Total thermal energy                   -959.62145081 Eh


Summary of corrections to the electronic energy:
(perhaps to be used in another calculation)
Total thermal correction                  0.00361005 Eh       2.27 kcal/mol
Non-thermal (ZPE) correction              0.02898721 Eh      18.19 kcal/mol
-----------------------------------------------------------------------
Total correction                          0.03259726 Eh      20.46 kcal/mol


--------
ENTHALPY
--------

The enthalpy is H = U + kB*T
                kB is Boltzmann's constant
Total thermal energy              ...   -959.62145081 Eh 
Thermal Enthalpy correction       ...      0.00094421 Eh       0.59 kcal/mol
-----------------------------------------------------------------------
Total Enthalpy                    ...   -959.62050660 Eh


Note: Rotational entropy computed according to Herzberg 
Infrared and Raman Spectra, Chapter V,1, Van Nostrand Reinhold, 1945 
Point Group:  C2v, Symmetry Number:   2  
Rotational constants in cm-1:     1.052101     0.105737     0.097919 

Vibrational entropy computed according to the QRRHO of S. Grimme
Chem.Eur.J. 2012 18 9955 using a reference frequency of 100.0 cm-1


-------
ENTROPY
-------

The entropy contributions are T*S = T*(S(el)+S(vib)+S(rot)+S(trans))
     S(el)   - electronic entropy
     S(vib)  - vibrational entropy
     S(rot)  - rotational entropy
     S(trans)- translational entropy
The entropies will be listed as multiplied by the temperature to get
units of energy

Electronic entropy                ...      0.00000000 Eh      0.00 kcal/mol
Vibrational entropy               ...      0.00115580 Eh      0.73 kcal/mol
Rotational entropy                ...      0.01099003 Eh      6.90 kcal/mol
Translational entropy             ...      0.01863995 Eh     11.70 kcal/mol
-----------------------------------------------------------------------
Final entropy term                ...      0.03078578 Eh     19.32 kcal/mol

In case the symmetry of your molecule has not been determined correctly
or in case you have a reason to use a different symmetry number we print 
out the resulting rotational entropy values for sn=1,12:

 non-linear molecules -----------------------------------
|  sn= 1 | S(rot)=       0.01164449 Eh      7.31 kcal/mol|
|  sn= 2 | S(rot)=       0.01099003 Eh      6.90 kcal/mol|
|  sn= 3 | S(rot)=       0.01060720 Eh      6.66 kcal/mol|
|  sn= 4 | S(rot)=       0.01033557 Eh      6.49 kcal/mol|
|  sn= 5 | S(rot)=       0.01012489 Eh      6.35 kcal/mol|
|  sn= 6 | S(rot)=       0.00995274 Eh      6.25 kcal/mol|
|  sn= 7 | S(rot)=       0.00980719 Eh      6.15 kcal/mol|
|  sn= 8 | S(rot)=       0.00968112 Eh      6.07 kcal/mol|
|  sn= 9 | S(rot)=       0.00956991 Eh      6.01 kcal/mol|
|  sn=10 | S(rot)=       0.00947043 Eh      5.94 kcal/mol|
|  sn=11 | S(rot)=       0.00938044 Eh      5.89 kcal/mol|
|  sn=12 | S(rot)=       0.00929828 Eh      5.83 kcal/mol|
 linear molecules ---------------------------------------
|  Dinfh | S(rot)=       0.00751972 Eh      4.72 kcal/mol|
|  Cinfv | S(rot)=       0.00817418 Eh      5.13 kcal/mol|
 --------------------------------------------------------


-------------------
GIBBS FREE ENERGY
-------------------

The Gibbs free energy is G = H - T*S

Total enthalpy                    ...   -959.62050660 Eh 
Total entropy correction          ...     -0.03078578 Eh    -19.32 kcal/mol
-----------------------------------------------------------------------
Final Gibbs free energy         ...   -959.65129238 Eh

For completeness - the Gibbs free energy minus the electronic energy
G-E(el)                           ...      0.00275569 Eh      1.73 kcal/mol


Maximum memory used throughout the entire PROP-calculation: 27.8 MB

--------------------------------
SUGGESTED CITATIONS FOR THIS RUN
--------------------------------

Below you find a list of papers that are relevant to this ORCA run
We neither can nor want to force you to cite these papers, but we appreciate if you do
You receive ORCA, which is the product of decades of hard work by many enthusiastic individuals, for free
The only thing we kindly ask in return is that you cite our papers,
We deeply appreciate it, if you show your appreciation for ORCA by not just citing the generic ORCA reference.

Please note that relegating all ORCA citations to the supporting information does *not* help us.
SI sections are not indexed - citations you put there will not count into any citation statistics
But we need these citations in order to attract the funding resources that allow us to do what we are doing

Therefore, if you are a happy ORCA user, please consider citing a few of the papers listed below in the main body of your paper

In addition to the list printed below, the program has created the file vacuum_censo.bibtex that contains the list in bibtex format
You can import this file easily into all common literature databanks and citation aid programs


List of essential papers. We consider these as the minimum necessary citations

  1. Neese,F.
     Software update: the ORCA program system, version 5.0
     WIRES Comput. Molec. Sci., 2022 12(1)e1606
     doi.org/10.1002/wcms.1606
  2. Grimme,S.; Hansen,A.; Ehlert,S.; Mewes,J.
     r2SCAN-3c: A 'Swiss army knife' composite electronic-structure method
     J. Chem. Phys., 2021 154 064103
     doi.org/10.1063/5.0040021

List of papers to cite with high priority. The work reported in these papers was absolutely
necessary for this run to complete.
Our perspective: the developers of density functionals and basis sets usually get cited in chemistry papers
Good! But without the algorithms to do something with them, the functionals or basis sets would not do anything.
Hence, in our opinion, the algorithm design and method developments papers are equally worthy of getting cited

  1. Neese,F.
     An improvement of the resolution of the identity approximation for the formation of the Coulomb matrix
     J. Comp. Chem., 2003 24(14)1740-1747
     doi.org/10.1002/jcc.10318
  2. Bykov,D.; Petrenko,T.; Izsak,R.; Kossmann,S.; Becker,U.; Valeev,E.; Neese,F.
     Efficient implementation of the analytic second derivatives of Hartree-Fock and hybrid DFT energies: a detailed analysis of different approximations
     Molec. Phys., 2015 113 1961-1977
     doi.org/10.1080/00268976.2015.1025114
  3. Neese,F.
     The SHARK Integral Generation and Digestion System
     J. Comp. Chem., 2022  1-16
     doi.org/10.1002/jcc.26942
  4. Lehtola,S.; Steigemann,C.; Oliveira,M.; Marques,M.
     Recent developments in Libxc - A comprehensive library of functionals for density functional theory
     Software X, 2018 7 
     doi.org/10.1016/j.softx.2017.11.002
  5. Caldeweyher,E.; Bannwarth,C.; Grimme,S.
     Extension of the D3 dispersion coefficient model
     J. Chem. Phys., 2017 147 034112-XXXX
     doi.org/10.1063/1.4993215
  6. Caldeweyher,E.; Ehlert,S.; Hansen,A.; Neugebauer,H.; Spicher,S.; Bannwarth,C.; Grimme,S.
     A generally applicable atomic-charge dependent London dispersion correction
     J. Chem. Phys., 2019 150 154122-XXXX
     doi.org/10.1063/1.5090222
  7. Caldeweyher,E.; Mewes,J.; Ehlert,S.; Grimme,S.
     Extension and evaluation of the D4 London-dispersion model for periodic systems
     Phys. Chem. Chem. Phys., 2020 22(16)8499-8512
     doi.org/10.1039/D0CP00502A

List of suggested additional citations. These are papers that are important in the 'surrounding' of 
of this run, or papers that preceded the highly important papers. If you like your results we are grateful for a citation.

  1. Neese,F.
     The ORCA program system
     WIRES Comput. Molec. Sci., 2012 2(1)73-78
     doi.org/10.1002/wcms.81
  2. Neese,F.
     Software update: the ORCA program system, version 4.0
     WIRES Comput. Molec. Sci., 2018 8(1)1-6
     doi.org/10.1002/wcms.1327
  3. Neese,F.; Wennmohs,F.; Becker,U.; Riplinger,C.
     The ORCA quantum chemistry program package
     J. Chem. Phys., 2020 152 Art. No. L224108
     doi.org/10.1063/5.0004608

List of optional additional citations

  1. Neese,F.
     Approximate second-order SCF convergence for spin unrestricted wavefunctions
     Chem. Phys. Lett., 2000 325(1-3)93-98
     doi.org/10.1016/s0009-2614(00)00662-x

Timings for individual modules:

Sum of individual times          ...       46.607 sec (=   0.777 min)
Startup calculation              ...        0.464 sec (=   0.008 min)   1.0 %
SCF iterations                   ...        7.212 sec (=   0.120 min)  15.5 %
Property integrals               ...       18.059 sec (=   0.301 min)  38.7 %
SCF Response                     ...       11.185 sec (=   0.186 min)  24.0 %
Property calculations            ...        9.688 sec (=   0.161 min)  20.8 %
                             ****ORCA TERMINATED NORMALLY****
TOTAL RUN TIME: 0 days 0 hours 0 minutes 47 seconds 344 msec
