
                                 *****************
                                 * O   R   C   A *
                                 *****************

                                            #,                                       
                                            ###                                      
                                            ####                                     
                                            #####                                    
                                            ######                                   
                                           ########,                                 
                                     ,,################,,,,,                         
                               ,,#################################,,                 
                          ,,##########################################,,             
                       ,#########################################, ''#####,          
                    ,#############################################,,   '####,        
                  ,##################################################,,,,####,       
                ,###########''''           ''''###############################       
              ,#####''   ,,,,##########,,,,          '''####'''          '####       
            ,##' ,,,,###########################,,,                        '##       
           ' ,,###''''                  '''############,,,                           
         ,,##''                                '''############,,,,        ,,,,,,###''
      ,#''                                            '''#######################'''  
     '                                                          ''''####''''         
             ,#######,   #######,   ,#######,      ##                                
            ,#'     '#,  ##    ##  ,#'     '#,    #''#        ,####,   ,####,        
            ##       ##  ##   ,#'  ##            #'  '#       #'       #'  '#        
            ##       ##  #######   ##           ,######,      #####,   #    #        
            '#,     ,#'  ##    ##  '#,     ,#' ,#      #,     #,   #   #,  ,#        
             '#######'   ##     ##  '#######'  #'      '#     '####' # '####'        



                #########################################################
                #                        -***-                          #
                #          Department of theory and spectroscopy        #
                #                                                       #
                #                      Frank Neese                      #
                #                                                       #
                #     Directorship, Architecture, Infrastructure        #
                #                    SHARK, DRIVERS                     #
                #        Core code/Algorithms in most modules           #
                #                                                       #
                #        Max Planck Institute fuer Kohlenforschung      #
                #                Kaiser Wilhelm Platz 1                 #
                #                 D-45470 Muelheim/Ruhr                 #
                #                      Germany                          #
                #                                                       #
                #                  All rights reserved                  #
                #                        -***-                          #
                #########################################################


                         Program Version 6.0.1  -  RELEASE   -


 With contributions from (in alphabetic order):
[Max-Planck-Institut fuer Kohlenforschung]                               
  Daniel Aravena         : Magnetic Suceptibility                        
  Michael Atanasov       : Ab Initio Ligand Field Theory (pilot matlab implementation)
  Alexander A. Auer      : GIAO ZORA, VPT2 properties, NMR spectrum      
  Ute Becker             : All parallelization in ORCA, NUMFREQ, NUMCALC 
  Giovanni Bistoni       : ED, misc. LED, open-shell LED, HFLD           
  Martin Brehm           : Molecular dynamics                            
  Dmytro Bykov           : pre 5.0 version of the SCF Hessian            
  Marcos Casanova-Páez   : Triplet and SCS-CIS(D). UHF-(DLPNO)-IP/EA/STEOM-CCSD. UHF-CVS-IP/STEOM-CCSD   
  Vijay G. Chilkuri      : MRCI spin determinant printing, contributions to CSF-ICE 
  Pauline Colinet        : FMM embedding                                 
  Dipayan Datta          : RHF DLPNO-CCSD density                        
  Achintya Kumar Dutta   : EOM-CC, STEOM-CC                              
  Nicolas Foglia         : Exact transition moments, OPA infrastructure, MCD improvements    
  Dmitry Ganyushin       : Spin-Orbit,Spin-Spin,Magnetic field MRCI      
  Miquel Garcia-Rates    : C-PCM and meta-GGA Hessian, CCSD/C-PCM, Gaussian charge scheme 
  Tiago L. C. Gouveia    : GS-ROHF, GS-ROCIS                             
  Yang Guo               : DLPNO-NEVPT2, F12-NEVPT2, CIM, IAO-localization        
  Andreas Hansen         : Spin unrestricted coupled pair/coupled cluster methods 
  Ingolf Harden          : AUTO-CI MPn and infrastructure                
  Benjamin Helmich-Paris : MC-RPA, TRAH-(SCF,CASSCF), AVAS, COSX integrals, SCF dyn. polar. 
  Lee Huntington         : MR-EOM, pCC                                   
  Robert Izsak           : Overlap fitted RIJCOSX, COSX-SCS-MP3, EOM     
  Riya Kayal             : Wick's Theorem for AUTO-CI, AUTO-CI UHF-CCSDT 
  Emily Kempfer          : AUTO-CI, RHF CISDT and CCSDT                  
  Christian Kollmar      : KDIIS, OOCD, Brueckner-CCSD(T), CCSD density, CASPT2, CASPT2-K, improved NEVPT2 
  Axel Koslowski         : Symmetry handling                             
  Simone Kossmann        : meta-GGA functionals, TD-DFT gradient, OOMP2, (MP2 Hessian; deprecated post 5.0) 
  Lucas Lang             : DCDCAS                                        
  Marvin Lechner         : AUTO-CI (C++ implementation), FIC-MRCC        
  Spencer Leger          : CASSCF response                               
  Dagmar Lenk            : GEPOL surface, SMD, ORCA-2-JSON               
  Dimitrios Liakos       : Extrapolation schemes; Compound Job, initial MDCI parallelization 
  Dimitrios Manganas     : Further ROCIS development; embedding schemes. LFT, Crystal Embedding 
  Dimitrios Pantazis     : SARC Basis sets                               
  Anastasios Papadopoulos: AUTO-CI, single reference methods and gradients 
  Taras Petrenko         : pre 6.0 DFT Hessian and TD-DFT gradient, (ASA, deprecated), ECA, 1-Electron XAS/XES, NRVS 
  Peter Pinski           : DLPNO-MP2, DLPNO-MP2 Gradient                 
  Christoph Reimann      : Effective Core Potentials                     
  Marius Retegan         : Local ZFS, SOC                                
  Christoph Riplinger    : Optimizer, TS searches, QM/MM, DLPNO-CCSD(T), (RO)-DLPNO pert. Triples 
  Michael Roemelt        : Original ROCIS implementation                 
  Masaaki Saitow         : Open-shell DLPNO-CCSD energy and density      
  Barbara Sandhoefer     : DKH picture change effects                    
  Kantharuban Sivalingam : CASSCF convergence/infrastructure, NEVPT2 and variants, FIC-MRCI 
  Bernardo de Souza      : ESD, SOC TD-DFT                               
  Georgi L. Stoychev     : AutoAux, RI-MP2 NMR, DLPNO-MP2 response, X2C  
  Van Anh Tran           : RI-MP2 g-tensors                              
  Willem Van den Heuvel  : Paramagnetic NMR                              
  Zikuan Wang            : NOTCH, Electric field optimization            
  Frank Wennmohs         : Technical directorship and infrastructure     
  Hang Xu                : AUTO-CI-Response properties                   
                                                                         
[FACCTs GmbH]                                                            
  Markus Bursch, Miquel Garcia-Rates, Christoph Riplinger, Bernardo de Souza, Georgi L. Stoychev 
                                                                 
  APM, Basis sets (HGBS, AHGBS, def-TZVP (Ac-Lr), def2-XVPD (La-Lu)), CI-OPT, improved COSX, DLPNO-Multilevel,           
  DOCKER, DRACO, updates on ESD, GOAT, IRC, LR-CPCM, MBIS, meta-GGA TD-DFT gradient, ML-optimized integration grids, 
  MM, NACMEs, nearIR, NEB, NEB-TS, NL-DFT gradient (VV10), 2- and 3-layer-ONIOM, interface openCOSMO-RS, QMMM,   
  Crystal-QMMM, SF, symmetry and pop. for TD-DFT, r2SCAN hybrids, SOLVATOR                                   
                                                                         
[Other institutions]                                                     
  V. Asgeirsson          : NEB                                           
  Christoph Bannwarth    : sTDA-DFT, sTD-DFT, PBEh-3c, B97-3c, D3        
  Sebastian Ehlert       : rSCAN, r2SCAN, r2SCAN-3c, D4, dhf basis sets  
  Marvin Friede          : D4 for Fr, Ra, Ac-Lr                          
  Lars Goerigk           : TD-DFT with DH, B97 family of functionals     
  Stefan Grimme          : VdW corrections, initial TS optimization, DFT functionals, gCP, sTDA/sTD-DF 
  Waldemar Hujo          : DFT-NL                                        
  H. Jonsson             : NEB                                           
  Holger Kruse           : gCP                                           
  Marcel Mueller         : wB97X-3c, vDZP basis set                      
  Hagen Neugebauer       : wr2SCAN                                       
  Tobias Risthaus        : range-separated hybrid DFT                    
  Lukas Wittmann         : regularized MP2, r2SCAN double-hybrids, wr2SCAN        
                                                                         
We gratefully acknowledge several colleagues who have allowed us to      
interface, adapt or use parts of their codes:                            
  Ed Valeev, F. Pavosevic, A. Kumar             : LibInt (2-el integral package), F12 methods 
  Garnet Chan, S. Sharma, J. Yang, R. Olivares  : DMRG                   
  Ulf Ekstrom                                   : XCFun DFT Library      
  Mihaly Kallay                                 : mrcc  (arbitrary order and MRCC methods)
  Frank Weinhold                                : gennbo (NPA and NBO analysis)           
  Simon Mueller                                 : openCOSMO-RS                            
  Christopher J. Cramer and Donald G. Truhlar   : smd solvation model                     
  S Lehtola, MJT Oliveira, MAL Marques          : LibXC Library                           
  Liviu Ungur et al                             : ANISO software                          


 Your calculation uses the libint2 library for the computation of 2-el integrals
 For citations please refer to: http://libint.valeyev.net

 Your ORCA version has been built with support for libXC version: 6.2.2
 For citations please refer to: https://libxc.gitlab.io

 This ORCA versions uses:
   CBLAS   interface :  Fast vector & matrix operations
   LAPACKE interface :  Fast linear algebra routines
   SCALAPACK package :  Parallel linear algebra routines
   Shared memory     :  Shared parallel matrices
   BLAS/LAPACK       :  OpenBLAS 0.3.27  USE64BITINT DYNAMIC_ARCH NO_AFFINITY Zen SINGLE_THREADED
        Core in use  :  Zen
   Copyright (c) 2011-2014, The OpenBLAS Project


Your calculation utilizes the geometrical counterpoise correction gCP
Please cite in your paper:
H.Kruse, S. Grimme J.Chem.Phys., 136, (2012), 154101 
   

Your calculation utilizes the atom-pairwise dispersion correction
based on EEQ partial charges (D4)


================================================================================

----- Orbital basis set information -----
Your calculation utilizes the basis: def2-mTZVPP
   Stefan Grimme, Andreas Hansen, Sebastian Ehlert, and Jan-Michael Mewes 
   J. Chem. Phys. 154, 064103 (2021). DOI: 10.1063/5.0040021

----- AuxJ basis set information -----
Your calculation utilizes the auxiliary basis: def2/J
   F. Weigend, Phys. Chem. Chem. Phys. 8, 1057 (2006).

================================================================================
                                        WARNINGS
                       Please study these warnings very carefully!
================================================================================



WARNING: SCAN, rSCAN, or r2SCAN functional requested.
  ===> : libXC variant has now been activated.



================================================================================
                                       INPUT FILE
================================================================================
NAME = sp.inp
|  1> ! r2scan-3c def2/J RI DEFGRID2 scfconv6 printgap
|  2> %output
|  3>     printlevel normal
|  4> end
|  5> * xyz 0 1
|  6> C -2.832031137 1.3416034847 -0.2497440797
|  7> C -2.3707624595 -0.0466156401 0.1775989947
|  8> C -0.8850672795 -0.2893853225 0.1028386758
|  9> C -0.4182311212 -1.5985204391 0.1680434416
| 10> C 0.9365803021 -1.8697319608 0.1202954964
| 11> C 1.8548172491 -0.8438473837 0.0042722387
| 12> C 1.4013021388 0.4674101173 -0.061743609
| 13> C 0.0387168153 0.7381306764 -0.0107106525
| 14> O 2.3232476369 1.4645347907 -0.1762321826
| 15> H -3.9191364877 1.3817575179 -0.2554977717
| 16> H -2.4765851143 1.5730301831 -1.2515262093
| 17> H -2.4736867258 2.1046075121 0.4373826524
| 18> H -2.8683081398 -0.7939445102 -0.4464395068
| 19> H -2.693958365 -0.2275781053 1.2081326318
| 20> H -1.1265226155 -2.4093988128 0.2572351158
| 21> H 1.2828044271 -2.8913244067 0.1715892158
| 22> H 2.9149958703 -1.0343310245 -0.0372032312
| 23> H -0.287567205 1.7675858682 -0.0622145207
| 24> H 1.8757241451 2.3183746298 -0.2132990795
| 25> *
| 26> 
| 27>                          ****END OF INPUT****
================================================================================

                       ****************************
                       * Single Point Calculation *
                       ****************************

---------------------------------
CARTESIAN COORDINATES (ANGSTROEM)
---------------------------------
  C     -2.832031    1.341603   -0.249744
  C     -2.370762   -0.046616    0.177599
  C     -0.885067   -0.289385    0.102839
  C     -0.418231   -1.598520    0.168043
  C      0.936580   -1.869732    0.120295
  C      1.854817   -0.843847    0.004272
  C      1.401302    0.467410   -0.061744
  C      0.038717    0.738131   -0.010711
  O      2.323248    1.464535   -0.176232
  H     -3.919136    1.381758   -0.255498
  H     -2.476585    1.573030   -1.251526
  H     -2.473687    2.104608    0.437383
  H     -2.868308   -0.793945   -0.446440
  H     -2.693958   -0.227578    1.208133
  H     -1.126523   -2.409399    0.257235
  H      1.282804   -2.891324    0.171589
  H      2.914996   -1.034331   -0.037203
  H     -0.287567    1.767586   -0.062215
  H      1.875724    2.318375   -0.213299

----------------------------
CARTESIAN COORDINATES (A.U.)
----------------------------
  NO LB      ZA    FRAG     MASS         X           Y           Z
   0 C     6.0000    0    12.011   -5.351763    2.535263   -0.471948
   1 C     6.0000    0    12.011   -4.480092   -0.088091    0.335613
   2 C     6.0000    0    12.011   -1.672535   -0.546859    0.194337
   3 C     6.0000    0    12.011   -0.790342   -3.020766    0.317556
   4 C     6.0000    0    12.011    1.769880   -3.533281    0.227326
   5 C     6.0000    0    12.011    3.505097   -1.594640    0.008073
   6 C     6.0000    0    12.011    2.648077    0.883277   -0.116679
   7 C     6.0000    0    12.011    0.073164    1.394865   -0.020240
   8 O     8.0000    0    15.999    4.390302    2.767570   -0.333031
   9 H     1.0000    0     1.008   -7.406095    2.611143   -0.482821
  10 H     1.0000    0     1.008   -4.680068    2.972596   -2.365042
  11 H     1.0000    0     1.008   -4.674590    3.977132    0.826533
  12 H     1.0000    0     1.008   -5.420317   -1.500338   -0.843648
  13 H     1.0000    0     1.008   -5.090844   -0.430060    2.283040
  14 H     1.0000    0     1.008   -2.128819   -4.553104    0.486104
  15 H     1.0000    0     1.008    2.424149   -5.463811    0.324257
  16 H     1.0000    0     1.008    5.508544   -1.954602   -0.070304
  17 H     1.0000    0     1.008   -0.543423    3.340253   -0.117568
  18 H     1.0000    0     1.008    3.544605    4.381093   -0.403077

--------------------------------
INTERNAL COORDINATES (ANGSTROEM)
--------------------------------
 C      0   0   0     0.000000000000     0.00000000     0.00000000
 C      1   0   0     1.523989250139     0.00000000     0.00000000
 C      2   1   0     1.507254587603   115.54070677     0.00000000
 C      3   2   1     1.391410224806   118.68101992   194.94019896
 C      4   3   2     1.382515659397   120.78005204   180.80878051
 C      5   4   3     1.381687248510   120.56421769   359.88453608
 C      6   5   4     1.389039337581   119.20392894     0.11334932
 C      3   2   1     1.386383652442   122.78465082    15.80734792
 O      7   6   5     1.362845827398   118.28137191   180.01087952
 H      1   2   3     1.087861891452   109.72871718   174.32274270
 H      1   2   3     1.087872982922   110.67750953    54.87340062
 H      1   2   3     1.087533451823   111.23456902   293.59280614
 H      2   1   3     1.093378340477   108.95572159   238.15870480
 H      2   1   3     1.095081085736   108.97054790   121.91826319
 H      4   3   2     1.080349819539   119.34653709     0.79432720
 H      5   4   3     1.079885788360   119.87632325   180.02861823
 H      6   5   4     1.077953125542   121.71169777   180.16232487
 H      8   3   2     1.081153042944   120.56516031   359.24108007
 H      9   7   6     0.964724676471   109.69227793   179.88658759

---------------------------
INTERNAL COORDINATES (A.U.)
---------------------------
 C      0   0   0     0.000000000000     0.00000000     0.00000000
 C      1   0   0     2.879922313804     0.00000000     0.00000000
 C      2   1   0     2.848298384666   115.54070677     0.00000000
 C      3   2   1     2.629384264821   118.68101992   194.94019896
 C      4   3   2     2.612575972118   120.78005204   180.80878051
 C      5   4   3     2.611010502415   120.56421769   359.88453608
 C      6   5   4     2.624903937271   119.20392894     0.11334932
 C      3   2   1     2.619885419661   122.78465082    15.80734792
 O      7   6   5     2.575405376539   118.28137191   180.01087952
 H      1   2   3     2.055761046375   109.72871718   174.32274270
 H      1   2   3     2.055782006214   110.67750953    54.87340062
 H      1   2   3     2.055140385423   111.23456902   293.59280614
 H      2   1   3     2.066185624263   108.95572159   238.15870480
 H      2   1   3     2.069403346479   108.97054790   121.91826319
 H      4   3   2     2.041565287761   119.34653709     0.79432720
 H      5   4   3     2.040688395914   119.87632325   180.02861823
 H      6   5   4     2.037036192478   121.71169777   180.16232487
 H      8   3   2     2.043083160019   120.56516031   359.24108007
 H      9   7   6     1.823065433167   109.69227793   179.88658759

---------------------
BASIS SET INFORMATION
---------------------
There are 3 groups of distinct atoms

 Group   1 Type C   : 11s6p1d contracted to 5s3p1d pattern {62111/411/1}
 Group   2 Type O   : 11s6p2d contracted to 5s3p2d pattern {62111/411/11}
 Group   3 Type H   : 4s1p contracted to 2s1p pattern {31/1}

Atom   0C    basis set group =>   1
Atom   1C    basis set group =>   1
Atom   2C    basis set group =>   1
Atom   3C    basis set group =>   1
Atom   4C    basis set group =>   1
Atom   5C    basis set group =>   1
Atom   6C    basis set group =>   1
Atom   7C    basis set group =>   1
Atom   8O    basis set group =>   2
Atom   9H    basis set group =>   3
Atom  10H    basis set group =>   3
Atom  11H    basis set group =>   3
Atom  12H    basis set group =>   3
Atom  13H    basis set group =>   3
Atom  14H    basis set group =>   3
Atom  15H    basis set group =>   3
Atom  16H    basis set group =>   3
Atom  17H    basis set group =>   3
Atom  18H    basis set group =>   3
---------------------------------
AUXILIARY/J BASIS SET INFORMATION
---------------------------------
There are 3 groups of distinct atoms

 Group   1 Type C   : 12s5p4d2f1g contracted to 6s4p3d1f1g pattern {711111/2111/211/2/1}
 Group   2 Type O   : 12s5p4d2f1g contracted to 6s4p3d1f1g pattern {711111/2111/211/2/1}
 Group   3 Type H   : 5s2p1d contracted to 3s1p1d pattern {311/2/1}

Atom   0C    basis set group =>   1
Atom   1C    basis set group =>   1
Atom   2C    basis set group =>   1
Atom   3C    basis set group =>   1
Atom   4C    basis set group =>   1
Atom   5C    basis set group =>   1
Atom   6C    basis set group =>   1
Atom   7C    basis set group =>   1
Atom   8O    basis set group =>   2
Atom   9H    basis set group =>   3
Atom  10H    basis set group =>   3
Atom  11H    basis set group =>   3
Atom  12H    basis set group =>   3
Atom  13H    basis set group =>   3
Atom  14H    basis set group =>   3
Atom  15H    basis set group =>   3
Atom  16H    basis set group =>   3
Atom  17H    basis set group =>   3
Atom  18H    basis set group =>   3

Checking for AutoStart:
The File: sp.gbw exists
Trying to determine its content:
     ... Fine, the file contains calculation information
     ... Fine, the calculation information was read
     ... Fine, the file contains a basis set
     ... Fine, the basis set was read
     ... Fine, the file contains a geometry
     ... Fine, the geometry was read
     ... Fine, the file contains a set of orbitals
     ... Fine, the orbitals can be read
     => possible old guess file was deleted
     => GBW file was renamed to GES file
     => GES file is set as startup file
     => Guess is set to MORead
     ... now leaving AutoStart

------------------------------------------------------------------------------
                             ORCA STARTUP CALCULATIONS
                           -- RI-GTO INTEGRALS CHOSEN --
------------------------------------------------------------------------------
------------------------------------------------------------------------------
                   ___                                                        
                  /   \      - P O W E R E D   B Y -                         
                 /     \                                                     
                 |  |  |   _    _      __       _____    __    __             
                 |  |  |  | |  | |    /  \     |  _  \  |  |  /  |          
                  \  \/   | |  | |   /    \    | | | |  |  | /  /          
                 / \  \   | |__| |  /  /\  \   | |_| |  |  |/  /          
                |  |  |   |  __  | /  /__\  \  |    /   |      \           
                |  |  |   | |  | | |   __   |  |    \   |  |\   \          
                \     /   | |  | | |  |  |  |  | |\  \  |  | \   \       
                 \___/    |_|  |_| |__|  |__|  |_| \__\ |__|  \__/        
                                                                              
                      - O R C A' S   B I G   F R I E N D -                    
                                      &                                       
                       - I N T E G R A L  F E E D E R -                       
                                                                              
 v1 FN, 2020, v2 2021, v3 2022-2024                                           
------------------------------------------------------------------------------


----------------------
SHARK INTEGRAL PACKAGE
----------------------

Number of atoms                             ...     19
Number of basis functions                   ...    226
Number of shells                            ...    112
Maximum angular momentum                    ...      2
Integral batch strategy                     ... SHARK/LIBINT Hybrid
RI-J (if used) integral strategy            ... SPLIT-RIJ (Revised 2003 algorithm where possible)
Printlevel                                  ...      1
Contraction scheme used                     ... SEGMENTED contraction
Prescreening option                         ... SCHWARTZ
   Thresh                                   ... 1.000e-10
   Tcut                                     ... 1.000e-11
   Tpresel                                  ... 1.000e-11 
Coulomb Range Separation                    ... NOT USED
Exchange Range Separation                   ... NOT USED
Multipole approximations                    ... NOT USED
Finite Nucleus Model                        ... NOT USED
CABS basis                                  ... NOT available
Auxiliary Coulomb fitting basis             ... AVAILABLE
   # of basis functions in Aux-J            ...    551
   # of shells in Aux-J                     ...    185
   Maximum angular momentum in Aux-J        ...      4
Auxiliary J/K fitting basis                 ... NOT available
Auxiliary Correlation fitting basis         ... NOT available
Auxiliary 'external' fitting basis          ... NOT available

Checking pre-screening integrals            ... done (  0.0 sec) Dimension = 112
Check shell pair data                       ... done (  0.0 sec)
Shell pair information
Shell pair cut-off parameter TPreSel        ...   1.0e-11
Total number of shell pairs                 ...      6328
Shell pairs after pre-screening             ...      5560
Total number of primitive shell pairs       ...     23019
Primitive shell pairs kept                  ...     14263
          la=0 lb=0:   1837 shell pairs
          la=1 lb=0:   2126 shell pairs
          la=1 lb=1:    637 shell pairs
          la=2 lb=0:    573 shell pairs
          la=2 lb=1:    336 shell pairs
          la=2 lb=2:     51 shell pairs

Calculating one electron integrals          ... done (  0.0 sec)
Calculating RI/J V-Matrix + Cholesky decomp.... done (  0.0 sec)
Calculating Nuclear repulsion               ... done (  0.0 sec) ENN=    422.671040615117 Eh

Diagonalization of the overlap matrix:
Smallest eigenvalue                        ... 2.683e-05
Time for diagonalization                   ...    0.004 sec
Threshold for overlap eigenvalues          ... 1.000e-07
Number of eigenvalues below threshold      ... 0
Time for construction of square roots      ...    0.004 sec
Total time needed                          ...    0.010 sec

-------------------
DFT GRID GENERATION
-------------------

General Integration Accuracy     IntAcc      ... 4.388
Radial Grid Type                 RadialGrid  ... OptM3 with GC (2021)
Angular Grid (max. ang.)         AngularGrid ... 4 (Lebedev-302)
Angular grid pruning method      GridPruning ... 4 (adaptive)
Weight generation scheme         WeightScheme... mBecke (2022)
Basis function cutoff            BFCut       ... 1.0000e-10
Integration weight cutoff        WCut        ... 1.0000e-14
Partially contracted basis set               ... off
Rotationally invariant grid construction     ... off
Angular grids for H and He will be reduced by one unit
Diffuse basis detected: some atoms will have their outermost
                        angular grid increased by 1.

Total number of grid points                  ...    86414
Total number of batches                      ...     1361
Average number of points per batch           ...       63
Average number of grid points per atom       ...     4548
Initializing property integral containers    ... done (  0.0 sec)

SHARK setup successfully completed in   0.9 seconds

Maximum memory used throughout the entire STARTUP-calculation: 39.6 MB
-------------------------------------------------------------------------------
                                 ORCA GUESS
                   Start orbitals & Density for SCF / CASSCF
-------------------------------------------------------------------------------

------------
SCF SETTINGS
------------
Hamiltonian:
 Density Functional     Method          .... DFT(GTOs)
  Functional kind                       .... Exchange
  Functional name                       .... Re-regularized SCAN exchange by Furness et al
  Functional family                     .... MGGA
  Functional refs                              
    [ 0] J. W. Furness, A. D. Kaplan, J. Ning, J. P. Perdew, and J. Sun.,  J. Phys. Chem. Lett. 11, 8208-8215 (2020), doi: 10.1021/acs.jpclett.0c02405
    [ 1] J. W. Furness, A. D. Kaplan, J. Ning, J. P. Perdew, and J. Sun.,  J. Phys. Chem. Lett. 11, 9248-9248 (2020), doi: 10.1021/acs.jpclett.0c03077
  Functional external parameters        .... 6
    Parameter  0 _c1        =  6.670000e-01 : c1 parameter        
    Parameter  1 _c2        =  8.000000e-01 : c2 parameter        
    Parameter  2 _d         =  1.240000e+00 : d parameter         
    Parameter  3 _k1        =  6.500000e-02 : k1 parameter        
    Parameter  4 _eta       =  1.000000e-03 : eta parameter       
    Parameter  5 _dp2       =  3.610000e-01 : dp2 parameter       
  Functional kind                       .... Correlation
  Functional name                       .... Re-regularized SCAN correlation by Furness et al
  Functional family                     .... MGGA
  Functional refs                              
    [ 0] J. W. Furness, A. D. Kaplan, J. Ning, J. P. Perdew, and J. Sun.,  J. Phys. Chem. Lett. 11, 8208-8215 (2020), doi: 10.1021/acs.jpclett.0c02405
    [ 1] J. W. Furness, A. D. Kaplan, J. Ning, J. P. Perdew, and J. Sun.,  J. Phys. Chem. Lett. 11, 9248-9248 (2020), doi: 10.1021/acs.jpclett.0c03077
  Functional external parameters        .... 1
    Parameter  0 _eta       =  1.000000e-03 : Regularization parameter
 Gradients option       PostSCFGGA      .... off
 RI-approximation to the Coulomb term is turned on
   Number of AuxJ basis functions       .... 551


General Settings:
 Integral files         IntName         .... sp
 Hartree-Fock type      HFTyp           .... RHF
 Total Charge           Charge          ....    0
 Multiplicity           Mult            ....    1
 Number of Electrons    NEL             ....   66
 Basis Dimension        Dim             ....  226
 Nuclear Repulsion      ENuc            ....    422.6710406151 Eh

Convergence Acceleration:
 AO-DIIS                CNVDIIS         .... on
   Start iteration      DIISMaxIt       ....    12
   Startup error        DIISStart       ....  0.200000
   # of expansion vecs  DIISMaxEq       ....     5
   Bias factor          DIISBfac        ....   1.050
   Max. coefficient     DIISMaxC        ....  10.000
 MO-DIIS                CNVKDIIS        .... off
 Trust-Rad. Augm. Hess. CNVTRAH         .... auto
   Auto Start mean grad. ratio tolernc. ....  1.125000
   Auto Start start iteration           ....     1
   Auto Start num. interpolation iter.  ....    10
   Max. Number of Micro iterations      ....    24
   Max. Number of Macro iterations      .... Maxiter - #DIIS iter
   Number of Davidson start vectors     ....     2
   Converg. threshold    (grad. norm)   ....   3.330e-04
   Grad. Scal. Fac. for Micro threshold ....   0.100
   Minimum threshold for Micro iter.    ....   1.000e-02
   NR start threshold (gradient norm)   ....   1.000e-04
   Initial trust radius                 ....   0.400
   Minimum AH scaling param. (alpha)    ....   1.000
   Maximum AH scaling param. (alpha)    .... 1000.000
   Quad. conv. algorithm                .... NR
   White noise on init. David. guess    .... on
   Maximum white noise                  ....   0.010
   Pseudo random numbers                .... off
   Inactive MOs                         .... canonical
   Orbital update algorithm             .... Taylor
   Preconditioner                       .... Diag
   Full preconditioner red. dimension   ....   250
   COSX micro iterations for RIJONX calc.... off
 SOSCF                  CNVSOSCF        .... on
   Start iteration      SOSCFMaxIt      ....   150
   Startup grad/error   SOSCFStart      ....  0.003300
   Hessian update       SOSCFHessUp     .... L-BFGS
 Level Shifting         CNVShift        .... on
   Level shift para.    LevelShift      ....    0.2500
   Turn off err/grad.   ShiftErr        ....    0.0010
 Zerner damping         CNVZerner       .... off
 Static damping         CNVDamp         .... on
   Fraction old density DampFac         ....    0.7000
   Max. Damping (<1)    DampMax         ....    0.9800
   Min. Damping (>=0)   DampMin         ....    0.0000
   Turn off err/grad.   DampErr         ....    0.1000

SCF Procedure:
 Maximum # iterations   MaxIter         ....   125
 SCF integral mode      SCFMode         .... Direct
   Integral package                     .... SHARK and LIBINT hybrid scheme
 Reset frequency        DirectResetFreq ....    20
 Integral Threshold     Thresh          ....  1.000e-10 Eh
 Primitive CutOff       TCut            ....  1.000e-11 Eh

Convergence Tolerance:
 Convergence Check Mode ConvCheckMode   .... Total+1el-Energy
 Convergence forced     ConvForced      .... 0
 Energy Change          TolE            ....  1.000e-06 Eh
 1-El. energy change                    ....  1.000e-03 Eh
 Orbital Gradient       TolG            ....  3.330e-04
 Orbital Rotation angle TolX            ....  3.330e-04
 DIIS Error             TolErr          ....  1.000e-06

---------------------
INITIAL GUESS: MOREAD
---------------------
Guess MOs are being read from file: sp.ges
Input Geometry matches current geometry (good)
Atom 0: N(Shells)= 9 and 6 - projection required
Input basis set needs projection
NBasis(read)= 146
NBasis(calc)= 226
Basis set overlap was calculated
Using GuessMode=FMatrix for the initial guess
C*T matrix was formed
Effective Fockian was calculated
Effective Fockian was diagonalized
Initial density was built
                      ------------------
                      INITIAL GUESS DONE (   0.0 sec)
                      ------------------
             **** ENERGY FILE WAS UPDATED (sp.en.tmp) ****
Finished Guess after   0.1 sec
Maximum memory used throughout the entire GUESS-calculation: 16.7 MB

-------------------------------------------------------------------------------------------
                                      ORCA LEAN-SCF
                              memory conserving SCF solver
-------------------------------------------------------------------------------------------

----------------------------------------D-I-I-S--------------------------------------------
Iteration    Energy (Eh)           Delta-E    RMSDP     MaxDP     DIISErr   Damp  Time(sec)
-------------------------------------------------------------------------------------------
               ***  Starting incremental Fock matrix formation  ***
    1    -385.8123852574136095     0.00e+00  1.33e-02  5.16e-01  6.21e-01  0.700   2.0
    2    -385.8685129658609299    -5.61e-02  9.83e-03  3.65e-01  4.36e-01  0.700   1.7
    3    -385.9081709183518001    -3.97e-02  6.95e-03  2.54e-01  3.06e-01  0.700   1.7
    4    -385.9360081690436459    -2.78e-02  4.89e-03  1.77e-01  2.14e-01  0.700   1.7
                               ***Turning on AO-DIIS***
    5    -385.9555341370991641    -1.95e-02  3.43e-03  1.23e-01  1.50e-01  0.700   1.7
    6    -385.9692220954281652    -1.37e-02  2.40e-03  8.59e-02  1.05e-01  0.700   1.7
    7    -385.9788182771777088    -9.60e-03  1.68e-03  6.00e-02  7.34e-02  0.700   1.6
    8    -385.9855424499534706    -6.72e-03  3.92e-03  1.40e-01  5.14e-02  0.000   1.6
                              *** Initializing SOSCF ***
---------------------------------------S-O-S-C-F--------------------------------------
Iteration    Energy (Eh)           Delta-E    RMSDP     MaxDP     MaxGrad    Time(sec)
--------------------------------------------------------------------------------------
    9    -386.0012542468189736    -1.57e-02  1.19e-05  5.24e-04  1.57e-04     1.7
               *** Restarting incremental Fock matrix formation ***
   10    -386.0012543859228913    -1.39e-07  1.14e-05  5.01e-04  3.75e-05     2.0
                  *** Gradient check signals convergence ***

               *****************************************************
               *                     SUCCESS                       *
               *           SCF CONVERGED AFTER  10 CYCLES          *
               *****************************************************

             **** ENERGY FILE WAS UPDATED (sp.en.tmp) ****

----------------
TOTAL SCF ENERGY
----------------

Total Energy       :       -386.00125438592289 Eh          -10503.62813 eV

Components:
Nuclear Repulsion  :        422.67104061511731 Eh           11501.46374 eV
Electronic Energy  :       -808.67229500104020 Eh          -22005.09186 eV
One Electron Energy:      -1359.43875851663711 Eh          -36992.20927 eV
Two Electron Energy:        550.76646351559691 Eh           14987.11740 eV

Virial components:
Potential Energy   :       -770.44296239670064 Eh          -20964.81884 eV
Kinetic Energy     :        384.44170801077775 Eh           10461.19071 eV
Virial Ratio       :          2.00405665239397

DFT components:
N(Alpha)           :       32.999994608682 electrons
N(Beta)            :       32.999994608682 electrons
N(Total)           :       65.999989217364 electrons
E(X)               :      -53.530429437784 Eh       
E(C)               :       -2.120293717152 Eh       
E(XC)              :      -55.650723154935 Eh       

---------------
SCF CONVERGENCE
---------------

  Last Energy change         ...    1.3910e-07  Tolerance :   1.0000e-06
  Last MAX-Density change    ...    5.0060e-04  Tolerance :   1.0000e-05
  Last RMS-Density change    ...    1.1369e-05  Tolerance :   1.0000e-06
  Last DIIS Error            ...    1.5702e-04  Tolerance :   1.0000e-06
  Last Orbital Gradient      ...    3.7483e-05  Tolerance :   3.3300e-04
  Last Orbital Rotation      ...    1.8452e-04  Tolerance :   3.3300e-04


----------------
ORBITAL ENERGIES
----------------

  NO   OCC          E(Eh)            E(eV) 
   0   2.0000     -18.983014      -516.5541 
   1   2.0000     -10.093611      -274.6611 
   2   2.0000     -10.043125      -273.2873 
   3   2.0000     -10.037204      -273.1262 
   4   2.0000     -10.032417      -272.9960 
   5   2.0000     -10.029759      -272.9236 
   6   2.0000     -10.025318      -272.8028 
   7   2.0000     -10.024340      -272.7762 
   8   2.0000     -10.021139      -272.6891 
   9   2.0000      -1.027633       -27.9633 
  10   2.0000      -0.824595       -22.4384 
  11   2.0000      -0.757114       -20.6021 
  12   2.0000      -0.707067       -19.2403 
  13   2.0000      -0.695143       -18.9158 
  14   2.0000      -0.615493       -16.7484 
  15   2.0000      -0.581059       -15.8114 
  16   2.0000      -0.545670       -14.8484 
  17   2.0000      -0.510831       -13.9004 
  18   2.0000      -0.466100       -12.6832 
  19   2.0000      -0.433681       -11.8010 
  20   2.0000      -0.424261       -11.5447 
  21   2.0000      -0.405949       -11.0464 
  22   2.0000      -0.398052       -10.8316 
  23   2.0000      -0.378507       -10.2997 
  24   2.0000      -0.365712        -9.9515 
  25   2.0000      -0.342970        -9.3327 
  26   2.0000      -0.339854        -9.2479 
  27   2.0000      -0.334393        -9.0993 
  28   2.0000      -0.314217        -8.5503 
  29   2.0000      -0.299760        -8.1569 
  30   2.0000      -0.298300        -8.1172 
  31   2.0000      -0.229954        -6.2574 
  32   2.0000      -0.200865        -5.4658 
  33   0.0000      -0.026810        -0.7295 
  34   0.0000      -0.015034        -0.4091 
  35   0.0000       0.057106         1.5539 
  36   0.0000       0.085553         2.3280 
  37   0.0000       0.100158         2.7254 
  38   0.0000       0.105247         2.8639 
  39   0.0000       0.118069         3.2128 
  40   0.0000       0.132337         3.6011 
  41   0.0000       0.142587         3.8800 
  42   0.0000       0.148633         4.0445 
  43   0.0000       0.167700         4.5633 
*Only the first 10 virtual orbitals were printed.

                    ********************************
                    * MULLIKEN POPULATION ANALYSIS *
                    ********************************

-----------------------
MULLIKEN ATOMIC CHARGES
-----------------------
   0 C :   -0.490841
   1 C :   -0.307302
   2 C :    0.196966
   3 C :   -0.251396
   4 C :   -0.119001
   5 C :   -0.304679
   6 C :    0.429548
   7 C :   -0.405694
   8 O :   -0.410427
   9 H :    0.151439
  10 H :    0.165480
  11 H :    0.143112
  12 H :    0.153524
  13 H :    0.164609
  14 H :    0.144949
  15 H :    0.145558
  16 H :    0.156635
  17 H :    0.130384
  18 H :    0.307137
Sum of atomic charges:   -0.0000000

--------------------------------
MULLIKEN REDUCED ORBITAL CHARGES
--------------------------------
  0 C s       :     3.339211  s :     3.339211
      pz      :     1.059526  p :     3.124582
      px      :     1.113965
      py      :     0.951091
      dz2     :     0.005887  d :     0.027047
      dxz     :     0.002170
      dyz     :     0.006939
      dx2y2   :     0.008003
      dxy     :     0.004048

  1 C s       :     3.274334  s :     3.274334
      pz      :     1.088885  p :     2.995564
      px      :     0.936721
      py      :     0.969958
      dz2     :     0.007210  d :     0.037403
      dxz     :     0.005885
      dyz     :     0.006432
      dx2y2   :     0.009874
      dxy     :     0.008002

  2 C s       :     3.119872  s :     3.119872
      pz      :     0.938432  p :     2.634811
      px      :     0.802165
      py      :     0.894214
      dz2     :     0.003724  d :     0.048351
      dxz     :     0.006664
      dyz     :     0.007770
      dx2y2   :     0.014801
      dxy     :     0.015392

  3 C s       :     3.210375  s :     3.210375
      pz      :     1.042801  p :     3.004185
      px      :     0.990374
      py      :     0.971011
      dz2     :     0.003290  d :     0.036836
      dxz     :     0.004717
      dyz     :     0.003960
      dx2y2   :     0.011421
      dxy     :     0.013448

  4 C s       :     3.169296  s :     3.169296
      pz      :     0.979845  p :     2.910881
      px      :     0.922184
      py      :     1.008851
      dz2     :     0.003363  d :     0.038824
      dxz     :     0.007670
      dyz     :     0.002978
      dx2y2   :     0.012462
      dxy     :     0.012350

  5 C s       :     3.220285  s :     3.220285
      pz      :     1.051450  p :     3.048962
      px      :     1.044515
      py      :     0.952997
      dz2     :     0.003454  d :     0.035432
      dxz     :     0.002723
      dyz     :     0.006032
      dx2y2   :     0.013179
      dxy     :     0.010044

  6 C s       :     3.075388  s :     3.075388
      pz      :     0.938086  p :     2.421268
      px      :     0.707166
      py      :     0.776016
      dz2     :     0.005093  d :     0.073796
      dxz     :     0.011805
      dyz     :     0.012509
      dx2y2   :     0.021207
      dxy     :     0.023181

  7 C s       :     3.216072  s :     3.216072
      pz      :     1.098728  p :     3.154168
      px      :     0.964763
      py      :     1.090676
      dz2     :     0.003477  d :     0.035454
      dxz     :     0.005988
      dyz     :     0.002634
      dx2y2   :     0.013479
      dxy     :     0.009877

  8 O s       :     3.750891  s :     3.750891
      pz      :     1.844792  p :     4.624141
      px      :     1.583249
      py      :     1.196100
      dz2     :     0.004391  d :     0.035394
      dxz     :     0.006183
      dyz     :     0.003024
      dx2y2   :     0.010300
      dxy     :     0.011497

  9 H s       :     0.830302  s :     0.830302
      pz      :     0.003728  p :     0.018258
      px      :     0.010898
      py      :     0.003632

 10 H s       :     0.816352  s :     0.816352
      pz      :     0.009804  p :     0.018167
      px      :     0.004434
      py      :     0.003930

 11 H s       :     0.838574  s :     0.838574
      pz      :     0.006491  p :     0.018315
      px      :     0.004523
      py      :     0.007301

 12 H s       :     0.828550  s :     0.828550
      pz      :     0.005986  p :     0.017926
      px      :     0.004994
      py      :     0.006947

 13 H s       :     0.817460  s :     0.817460
      pz      :     0.010032  p :     0.017931
      px      :     0.004162
      py      :     0.003737

 14 H s       :     0.835359  s :     0.835359
      pz      :     0.004600  p :     0.019692
      px      :     0.006930
      py      :     0.008161

 15 H s       :     0.834976  s :     0.834976
      pz      :     0.004128  p :     0.019466
      px      :     0.004090
      py      :     0.011247

 16 H s       :     0.823555  s :     0.823555
      pz      :     0.004500  p :     0.019810
      px      :     0.011990
      py      :     0.003321

 17 H s       :     0.849293  s :     0.849293
      pz      :     0.004806  p :     0.020323
      px      :     0.004361
      py      :     0.011156

 18 H s       :     0.649754  s :     0.649754
      pz      :     0.012286  p :     0.043109
      px      :     0.011472
      py      :     0.019350


------------------------
MULLIKEN OVERLAP CHARGES
------------------------
B(  0-C ,  1-C ) :   0.2623 B(  0-C ,  9-H ) :   0.8009 B(  0-C , 10-H ) :   0.9033 
B(  0-C , 11-H ) :   0.7913 B(  0-C , 12-H ) :  -0.0957 B(  1-C ,  2-C ) :   0.0773 
B(  1-C ,  3-C ) :  -0.2565 B(  1-C ,  6-C ) :   0.0580 B(  1-C ,  7-C ) :   0.0561 
B(  1-C ,  9-H ) :  -0.0810 B(  1-C , 10-H ) :  -0.1503 B(  1-C , 12-H ) :   0.9585 
B(  1-C , 13-H ) :   0.7722 B(  2-C ,  3-C ) :   1.0215 B(  2-C ,  4-C ) :  -0.1529 
B(  2-C ,  5-C ) :  -0.0913 B(  2-C ,  6-C ) :  -0.0608 B(  2-C ,  7-C ) :   0.5489 
B(  2-C , 12-H ) :  -0.1582 B(  2-C , 14-H ) :  -0.1023 B(  3-C ,  4-C ) :   0.9453 
B(  3-C ,  5-C ) :  -0.1706 B(  3-C ,  6-C ) :  -0.1941 B(  3-C ,  7-C ) :  -0.0584 
B(  3-C , 14-H ) :   0.8257 B(  3-C , 15-H ) :  -0.0627 B(  4-C ,  5-C ) :   0.8998 
B(  4-C ,  6-C ) :  -0.1114 B(  4-C ,  7-C ) :  -0.0906 B(  4-C , 15-H ) :   0.8003 
B(  4-C , 16-H ) :  -0.0593 B(  5-C ,  6-C ) :   1.0624 B(  5-C ,  7-C ) :  -0.2643 
B(  5-C , 15-H ) :  -0.0539 B(  5-C , 16-H ) :   0.7858 B(  6-C ,  7-C ) :   0.6607 
B(  6-C ,  8-O ) :   0.4268 B(  6-C , 17-H ) :  -0.1035 B(  6-C , 18-H ) :  -0.1178 
B(  7-C ,  8-O ) :  -0.1499 B(  7-C , 17-H ) :   0.7740 B(  8-O , 18-H ) :   0.6016 
B( 10-H , 11-H ) :  -0.0565 B( 12-H , 13-H ) :  -0.0537 


                     *******************************
                     * LOEWDIN POPULATION ANALYSIS *
                     *******************************

----------------------
LOEWDIN ATOMIC CHARGES
----------------------
   0 C :   -0.420476
   1 C :   -0.285279
   2 C :   -0.077943
   3 C :   -0.189839
   4 C :   -0.147690
   5 C :   -0.154291
   6 C :    0.185883
   7 C :   -0.172626
   8 O :   -0.496381
   9 H :    0.153942
  10 H :    0.155094
  11 H :    0.149779
  12 H :    0.164882
  13 H :    0.168196
  14 H :    0.168407
  15 H :    0.167840
  16 H :    0.178793
  17 H :    0.171288
  18 H :    0.280423

-------------------------------
LOEWDIN REDUCED ORBITAL CHARGES
-------------------------------
  0 C s       :     2.970148  s :     2.970148
      pz      :     1.149442  p :     3.387274
      px      :     1.150363
      py      :     1.087469
      dz2     :     0.014104  d :     0.063054
      dxz     :     0.005365
      dyz     :     0.016022
      dx2y2   :     0.018975
      dxy     :     0.008589

  1 C s       :     2.921429  s :     2.921429
      pz      :     1.137342  p :     3.283596
      px      :     1.056894
      py      :     1.089360
      dz2     :     0.016586  d :     0.080254
      dxz     :     0.012192
      dyz     :     0.013665
      dx2y2   :     0.021028
      dxy     :     0.016784

  2 C s       :     2.865807  s :     2.865807
      pz      :     0.940050  p :     3.112365
      px      :     1.064924
      py      :     1.107391
      dz2     :     0.006760  d :     0.099770
      dxz     :     0.010884
      dyz     :     0.014374
      dx2y2   :     0.033896
      dxy     :     0.033855

  3 C s       :     2.893706  s :     2.893706
      pz      :     1.035111  p :     3.214888
      px      :     1.095576
      py      :     1.084201
      dz2     :     0.005695  d :     0.081246
      dxz     :     0.008329
      dyz     :     0.006922
      dx2y2   :     0.027372
      dxy     :     0.032927

  4 C s       :     2.900486  s :     2.900486
      pz      :     0.963771  p :     3.162753
      px      :     1.100273
      py      :     1.098709
      dz2     :     0.005671  d :     0.084451
      dxz     :     0.014335
      dyz     :     0.004815
      dx2y2   :     0.030147
      dxy     :     0.029483

  5 C s       :     2.891035  s :     2.891035
      pz      :     1.033170  p :     3.185993
      px      :     1.101579
      py      :     1.051245
      dz2     :     0.005772  d :     0.077262
      dxz     :     0.004221
      dyz     :     0.010815
      dx2y2   :     0.031055
      dxy     :     0.025399

  6 C s       :     2.784952  s :     2.784952
      pz      :     0.895828  p :     2.869235
      px      :     1.001892
      py      :     0.971515
      dz2     :     0.011137  d :     0.159930
      dxz     :     0.021901
      dyz     :     0.023898
      dx2y2   :     0.049536
      dxy     :     0.053457

  7 C s       :     2.884482  s :     2.884482
      pz      :     1.070441  p :     3.209911
      px      :     1.042623
      py      :     1.096848
      dz2     :     0.005951  d :     0.078232
      dxz     :     0.010783
      dyz     :     0.004265
      dx2y2   :     0.031906
      dxy     :     0.025326

  8 O s       :     3.486380  s :     3.486380
      pz      :     1.809651  p :     4.748258
      px      :     1.621104
      py      :     1.317504
      dz2     :     0.032320  d :     0.261743
      dxz     :     0.032918
      dyz     :     0.038325
      dx2y2   :     0.084119
      dxy     :     0.074062

  9 H s       :     0.802639  s :     0.802639
      pz      :     0.008055  p :     0.043420
      px      :     0.027221
      py      :     0.008144

 10 H s       :     0.801320  s :     0.801320
      pz      :     0.024673  p :     0.043585
      px      :     0.010116
      py      :     0.008796

 11 H s       :     0.806609  s :     0.806609
      pz      :     0.015759  p :     0.043612
      px      :     0.010366
      py      :     0.017486

 12 H s       :     0.792064  s :     0.792064
      pz      :     0.014483  p :     0.043055
      px      :     0.011592
      py      :     0.016980

 13 H s       :     0.788526  s :     0.788526
      pz      :     0.025080  p :     0.043279
      px      :     0.009592
      py      :     0.008607

 14 H s       :     0.786619  s :     0.786619
      pz      :     0.010207  p :     0.044973
      px      :     0.015920
      py      :     0.018846

 15 H s       :     0.787940  s :     0.787940
      pz      :     0.008788  p :     0.044219
      px      :     0.009275
      py      :     0.026156

 16 H s       :     0.775809  s :     0.775809
      pz      :     0.010023  p :     0.045398
      px      :     0.028245
      py      :     0.007130

 17 H s       :     0.782961  s :     0.782961
      pz      :     0.010770  p :     0.045751
      px      :     0.009292
      py      :     0.025689

 18 H s       :     0.598002  s :     0.598002
      pz      :     0.031107  p :     0.121575
      px      :     0.034411
      py      :     0.056057


---------------------------------
LOEWDIN BOND ORDERS (THRESH 0.050000)
---------------------------------
B(  0-C ,  1-C ) :   1.1366 B(  0-C ,  2-C ) :   0.0647 B(  0-C ,  9-H ) :   0.9269 
B(  0-C , 10-H ) :   0.9262 B(  0-C , 11-H ) :   0.9276 B(  1-C ,  2-C ) :   1.0721 
B(  1-C ,  3-C ) :   0.0933 B(  1-C ,  7-C ) :   0.0789 B(  1-C , 12-H ) :   0.8804 
B(  1-C , 13-H ) :   0.8762 B(  2-C ,  3-C ) :   1.4277 B(  2-C ,  4-C ) :   0.0902 
B(  2-C ,  5-C ) :   0.1197 B(  2-C ,  6-C ) :   0.0951 B(  2-C ,  7-C ) :   1.4489 
B(  2-C , 14-H ) :   0.0521 B(  2-C , 17-H ) :   0.0507 B(  3-C ,  4-C ) :   1.5093 
B(  3-C ,  5-C ) :   0.0929 B(  3-C ,  6-C ) :   0.1080 B(  3-C ,  7-C ) :   0.0868 
B(  3-C , 14-H ) :   0.8671 B(  3-C , 15-H ) :   0.0553 B(  4-C ,  5-C ) :   1.5069 
B(  4-C ,  6-C ) :   0.0953 B(  4-C ,  7-C ) :   0.1182 B(  4-C , 14-H ) :   0.0537 
B(  4-C , 15-H ) :   0.8717 B(  4-C , 16-H ) :   0.0531 B(  5-C ,  6-C ) :   1.3238 
B(  5-C ,  7-C ) :   0.0863 B(  5-C ,  8-O ) :   0.2261 B(  5-C , 15-H ) :   0.0550 
B(  5-C , 16-H ) :   0.8626 B(  6-C ,  7-C ) :   1.3212 B(  6-C ,  8-O ) :   1.4884 
B(  6-C , 16-H ) :   0.0551 B(  6-C , 17-H ) :   0.0551 B(  6-C , 18-H ) :   0.0503 
B(  7-C ,  8-O ) :   0.2212 B(  7-C , 17-H ) :   0.8519 B(  8-O , 18-H ) :   0.9490 


------------------------------------------
LOEWDIN REDUCED ORBITAL POPULATIONS PER MO
-------------------------------------------
THRESHOLD FOR PRINTING IS 0.1%%
                      0         1         2         3         4         5   
                 -18.98301 -10.09361 -10.04313 -10.03720 -10.03242 -10.02976
                   2.00000   2.00000   2.00000   2.00000   2.00000   2.00000
                  --------  --------  --------  --------  --------  --------
 1 C  s               0.0       0.0       0.0      99.7       0.0       0.0
 2 C  s               0.0       0.0      99.5       0.0       0.0       0.1
 3 C  px              0.0       0.0       0.0       0.0       0.1       0.0
 3 C  py              0.0       0.0       0.1       0.0       0.0       0.0
 4 C  s               0.0       0.0       0.0       0.0      99.4       0.0
 5 C  s               0.0       0.0       0.0       0.0       0.1       0.0
 5 C  py              0.0       0.1       0.0       0.0       0.1       0.0
 6 C  s               0.0      99.2       0.0       0.0       0.0       0.0
 6 C  px              0.0       0.0       0.0       0.0       0.0       0.1
 7 C  s               0.0       0.0       0.1       0.0       0.0      99.6
 7 C  px              0.0       0.1       0.1       0.0       0.0       0.0
 8 O  s              99.9       0.0       0.0       0.0       0.0       0.0
 8 O  dxy             0.0       0.2       0.0       0.0       0.0       0.0

                      6         7         8         9        10        11   
                 -10.02532 -10.02434 -10.02114  -1.02763  -0.82460  -0.75711
                   2.00000   2.00000   2.00000   2.00000   2.00000   2.00000
                  --------  --------  --------  --------  --------  --------
 0 C  s              99.7       0.0       0.0       0.0       1.1      12.5
 0 C  pz              0.0       0.0       0.0       0.0       0.0       0.2
 0 C  px              0.0       0.0       0.0       0.0       0.2       0.3
 0 C  py              0.0       0.0       0.0       0.0       0.4       1.7
 1 C  s               0.0       0.0       0.0       0.0       4.5      20.2
 1 C  px              0.0       0.0       0.0       0.0       1.6       0.1
 1 C  py              0.1       0.0       0.0       0.0       0.0       0.7
 2 C  s               0.0       0.0       0.0       0.1      16.3       6.9
 2 C  px              0.0       0.0       0.0       0.1       1.0       5.3
 2 C  py              0.0       0.0       0.1       0.0       0.1       0.6
 2 C  dz2             0.0       0.0       0.0       0.0       0.2       0.1
 3 C  s               0.0       0.0      99.5       0.0      12.4       0.0
 3 C  px              0.0       0.0       0.0       0.0       0.6       3.9
 3 C  py              0.0       0.0       0.0       0.0       2.1       1.1
 3 C  dz2             0.0       0.0       0.0       0.0       0.1       0.0
 4 C  s               0.0       0.1       0.1       0.1      10.2       6.3
 4 C  px              0.0       0.1       0.1       0.0       0.5       0.8
 4 C  py              0.0       0.1       0.0       0.1       2.0       0.8
 4 C  dz2             0.0       0.0       0.0       0.0       0.1       0.1
 5 C  s               0.0      99.5       0.0       0.8       8.5       9.8
 5 C  px              0.0       0.0       0.0       0.0       2.5       0.6
 5 C  py              0.0       0.0       0.0       1.5       0.0       0.0
 6 C  s               0.0       0.0       0.0       9.9       6.0       2.6
 6 C  px              0.0       0.0       0.0       3.6       2.6       0.3
 6 C  py              0.0       0.1       0.0       5.6       2.8       3.1
 6 C  dz2             0.0       0.0       0.0       0.3       0.1       0.0
 6 C  dxy             0.0       0.0       0.0       0.6       0.1       0.0
 7 C  s               0.0       0.0       0.0       0.9      11.5       0.4
 7 C  px              0.0       0.0       0.0       1.7       0.0       3.8
 7 C  py              0.0       0.0       0.0       0.0       2.9       0.0
 7 C  dz2             0.0       0.0       0.0       0.0       0.1       0.0
 8 O  s               0.0       0.0       0.0      58.8       1.4       0.5
 8 O  px              0.0       0.0       0.0       2.8       0.2       0.0
 8 O  py              0.0       0.0       0.0       0.0       0.9       1.0
 8 O  dz2             0.0       0.0       0.0       0.2       0.1       0.1
 8 O  dxy             0.0       0.0       0.0       0.1       0.3       0.2
 9 H  s               0.0       0.0       0.0       0.0       0.1       1.8
 9 H  px              0.0       0.0       0.0       0.0       0.0       0.2
10 H  s               0.0       0.0       0.0       0.0       0.1       1.8
10 H  pz              0.0       0.0       0.0       0.0       0.0       0.1
11 H  s               0.0       0.0       0.0       0.0       0.1       1.8
12 H  s               0.0       0.0       0.0       0.0       0.5       2.9
12 H  py              0.0       0.0       0.0       0.0       0.0       0.1
13 H  s               0.0       0.0       0.0       0.0       0.5       2.9
13 H  pz              0.0       0.0       0.0       0.0       0.0       0.2
14 H  s               0.0       0.0       0.0       0.0       1.2       0.0
15 H  s               0.0       0.0       0.0       0.0       0.9       0.8
16 H  s               0.0       0.0       0.0       0.1       0.7       1.2
16 H  px              0.0       0.0       0.0       0.0       0.0       0.1
17 H  s               0.0       0.0       0.0       0.1       1.1       0.2
18 H  s               0.0       0.0       0.0       9.8       0.4       0.3
18 H  px              0.0       0.0       0.0       0.3       0.0       0.0
18 H  py              0.0       0.0       0.0       1.9       0.1       0.0

                     12        13        14        15        16        17   
                  -0.70707  -0.69514  -0.61549  -0.58106  -0.54567  -0.51083
                   2.00000   2.00000   2.00000   2.00000   2.00000   2.00000
                  --------  --------  --------  --------  --------  --------
 0 C  s               0.2      16.9      11.1       3.5       2.3       0.0
 0 C  pz              0.0       0.0       0.2       0.2       0.5       0.0
 0 C  px              0.0       0.0       0.2       0.6       0.0       1.4
 0 C  py              0.1       0.2       2.9       1.2       3.7       0.5
 1 C  s               0.6       4.3       6.2       1.9       6.0       0.7
 1 C  pz              0.0       0.1       0.4       0.1       0.4       0.0
 1 C  px              0.0       3.8       1.1       0.5       2.6       4.3
 1 C  py              0.2       3.1       6.2       0.3       1.6       1.0
 1 C  dx2y2           0.0       0.1       0.1       0.0       0.0       0.0
 2 C  s               0.0       6.9       2.0       0.3       5.4       1.6
 2 C  pz              0.1       0.0       0.1       0.0       0.0       0.0
 2 C  px              1.3       2.9       6.2       0.7       2.8       0.2
 2 C  py              9.4       0.6       1.4       8.1       0.1       5.6
 2 C  dx2y2           0.0       0.1       0.0       0.1       0.1       0.0
 2 C  dxy             0.3       0.0       0.0       0.1       0.0       0.0
 3 C  s              12.8       5.3       0.2       8.7       0.1       0.2
 3 C  px              1.1       0.9       4.2       1.2       1.4       0.3
 3 C  py              1.1       1.2       1.2       0.4       7.8       0.7
 3 C  dx2y2           0.1       0.1       0.0       0.0       0.2       0.0
 4 C  s              13.0       1.1       3.3       2.5       3.7       2.0
 4 C  px              1.8       5.5       0.8      10.7       0.9       0.5
 4 C  py              0.4       0.5       0.6       0.1       4.7       5.7
 4 C  dxy             0.0       0.1       0.0       0.1       0.0       0.0
 5 C  s               0.0      11.5       2.4       3.2       2.9       0.2
 5 C  px              0.2       0.2       1.6       0.1       1.1       3.7
 5 C  py              6.9       0.1       2.6       8.2       0.4       1.9
 5 C  dxy             0.2       0.0       0.0       0.1       0.0       0.1
 6 C  s               9.1       1.9       0.7       3.8       1.7       0.7
 6 C  px              4.8       3.0       6.9       1.6       2.7       9.1
 6 C  py              0.2       3.6       2.0       0.3       5.7       4.0
 6 C  dx2y2           0.1       0.1       0.0       0.0       0.1       0.1
 6 C  dxy             0.1       0.0       0.0       0.0       0.0       0.2
 7 C  s              15.9       3.3       4.4       1.6       0.9       0.7
 7 C  px              1.5       1.2       0.1       2.9       6.4      12.5
 7 C  py              0.3       0.5       1.2       0.2       5.8       1.5
 7 C  dx2y2           0.1       0.0       0.0       0.0       0.1       0.0
 7 C  dxy             0.0       0.1       0.0       0.0       0.1       0.2
 8 O  s               2.3       0.2       0.0       0.3       1.0       0.4
 8 O  pz              0.0       0.0       0.0       0.1       0.0       0.1
 8 O  px              1.1       0.0       0.1       0.5       3.7       0.4
 8 O  py              2.9       2.2       5.7      16.8       2.0      22.4
 8 O  dz2             0.2       0.0       0.0       0.0       0.0       0.1
 8 O  dx2y2           0.2       0.3       0.4       0.0       0.8       0.0
 8 O  dxy             0.8       0.2       0.1       0.6       0.2       0.2
 9 H  s               0.0       3.5       3.5       1.6       0.9       0.2
 9 H  px              0.0       0.3       0.3       0.1       0.1       0.0
10 H  s               0.0       3.1       3.6       1.2       1.5       0.1
10 H  pz              0.0       0.2       0.2       0.1       0.1       0.0
11 H  s               0.0       3.2       3.8       1.2       1.4       0.1
11 H  pz              0.0       0.1       0.1       0.0       0.1       0.0
11 H  py              0.0       0.1       0.1       0.0       0.0       0.0
12 H  s               0.2       0.8       2.3       0.4       3.5       1.4
12 H  pz              0.0       0.0       0.1       0.0       0.1       0.0
13 H  s               0.1       0.8       2.2       0.6       3.5       0.9
13 H  pz              0.0       0.1       0.2       0.0       0.2       0.1
14 H  s               2.4       0.9       0.0       3.7       0.5       0.0
14 H  px              0.1       0.0       0.0       0.1       0.0       0.0
14 H  py              0.1       0.1       0.0       0.2       0.0       0.0
15 H  s               2.4       0.2       1.1       1.3       3.3       4.0
15 H  py              0.2       0.0       0.1       0.1       0.2       0.2
16 H  s               0.0       2.3       1.2       1.2       1.8       0.7
16 H  px              0.0       0.2       0.1       0.1       0.1       0.0
17 H  s               2.9       0.5       2.3       1.1       1.3       2.4
17 H  py              0.2       0.0       0.1       0.1       0.1       0.2
18 H  s               1.1       0.6       1.4       4.2       0.4       5.6
18 H  px              0.1       0.0       0.0       0.2       0.1       0.1
18 H  py              0.1       0.0       0.1       0.2       0.0       0.1

                     18        19        20        21        22        23   
                  -0.46610  -0.43368  -0.42426  -0.40595  -0.39805  -0.37851
                   2.00000   2.00000   2.00000   2.00000   2.00000   2.00000
                  --------  --------  --------  --------  --------  --------
 0 C  s               0.1       0.2       0.1       0.0       0.1       0.0
 0 C  pz              0.3       5.9      16.2       0.1       0.0       3.0
 0 C  px              0.1       1.2       0.6      20.9       1.1       0.0
 0 C  py              1.3       0.2       4.8       3.0       0.0       0.1
 1 C  s               0.5       0.2       0.1       0.1       0.0       0.0
 1 C  pz              0.2       6.2      26.2       0.0       0.1       0.4
 1 C  px              0.6       0.3       0.1      18.4       0.5       0.0
 1 C  py              0.7       2.9       0.4       1.2       0.1       0.2
 2 C  s               0.3       1.4       0.2       0.0       0.9       0.0
 2 C  pz              0.0       0.8       5.9       0.0       0.0       2.6
 2 C  px              2.4       0.2       0.0      12.0       0.0       0.0
 2 C  py              2.6       6.3       1.9       0.1       1.7       0.0
 2 C  dx2y2           0.2       0.0       0.0       0.1       0.1       0.0
 2 C  dxy             0.0       0.0       0.0       0.1       0.2       0.0
 3 C  s               2.6       0.8       0.0       0.2       0.7       0.0
 3 C  pz              0.1       0.3       0.9       0.0       0.1       2.3
 3 C  px             14.9       1.9       0.6       0.0       2.8       0.0
 3 C  py              3.9      10.0       3.1       0.4       2.7       0.0
 3 C  dx2y2           0.0       0.1       0.0       0.1       0.2       0.0
 4 C  s               1.7       0.4       0.0       0.2       0.3       0.0
 4 C  pz              0.0       0.1       0.1       0.0       0.2       3.5
 4 C  px              1.3      10.6       2.3       0.1       1.3       0.0
 4 C  py              0.6       0.0       0.2       0.1      27.9       0.1
 4 C  dx2y2           0.0       0.1       0.0       0.1       0.2       0.0
 4 C  dxy             0.1       0.0       0.0       0.0       0.1       0.0
 5 C  s               4.0       0.2       0.0       0.1       0.5       0.0
 5 C  pz              0.0       0.0       0.3       0.0       0.0       9.2
 5 C  px             11.8       0.2       0.0       7.8       2.1       0.0
 5 C  py              0.2      10.3       2.8       1.0       2.5       0.1
 5 C  dx2y2           0.0       0.0       0.0       0.1       0.1       0.0
 5 C  dxy             0.1       0.1       0.0       0.0       0.3       0.0
 6 C  s               0.2       0.1       0.0       1.3       1.3       0.0
 6 C  pz              0.0       0.2       0.4       0.0       0.1      27.8
 6 C  px              0.4       1.1       0.2       0.1       1.7       0.1
 6 C  py              0.1       8.6       2.6       0.6       1.2       0.1
 6 C  dx2y2           0.0       0.0       0.0       0.3       0.1       0.0
 6 C  dxy             0.6       0.2       0.0       0.0       0.0       0.0
 7 C  s               0.9       0.5       0.1       2.2       0.1       0.0
 7 C  pz              0.1       0.3       1.3       0.0       0.1       8.7
 7 C  px              0.4       3.8       0.9       1.2       1.5       0.0
 7 C  py             11.3       0.5       0.0       0.1      16.9       0.2
 7 C  dxz             0.0       0.0       0.0       0.0       0.0       0.1
 7 C  dx2y2           0.0       0.0       0.0       0.2       0.3       0.0
 8 O  s               1.0       0.5       0.2       0.6       0.0       0.0
 8 O  pz              0.0       0.0       0.4       0.0       0.0      36.3
 8 O  px              1.2       7.6       2.4       3.2       0.3       0.4
 8 O  py              4.0       1.7       0.3       0.9       1.6       0.1
 8 O  dz2             0.2       0.0       0.0       0.0       0.0       0.0
 8 O  dxz             0.0       0.0       0.0       0.0       0.0       0.7
 8 O  dyz             0.0       0.0       0.0       0.0       0.0       0.4
 8 O  dx2y2           0.0       0.6       0.2       0.0       0.2       0.0
 8 O  dxy             0.1       0.0       0.0       0.1       0.2       0.0
 9 H  s               0.0       0.7       0.4       7.9       0.5       0.0
 9 H  px              0.0       0.0       0.0       0.2       0.0       0.0
10 H  s               0.4       1.9       3.6       2.0       0.0       1.0
10 H  pz              0.0       0.0       0.0       0.1       0.0       0.0
11 H  s               0.2       0.5       5.9       2.5       0.0       0.7
11 H  py              0.0       0.0       0.1       0.0       0.0       0.0
12 H  s               0.0       1.1       5.3       2.6       0.3       0.1
12 H  py              0.0       0.0       0.2       0.1       0.0       0.0
13 H  s               0.4       2.4       6.6       0.8       0.0       0.1
13 H  pz              0.0       0.1       0.1       0.1       0.0       0.0
14 H  s              10.1       2.3       0.3       0.0       1.1       0.0
14 H  px              0.1       0.2       0.0       0.0       0.0       0.0
14 H  py              0.3       0.0       0.0       0.0       0.0       0.0
15 H  s               0.0       1.0       0.0       0.0      14.2       0.0
15 H  py              0.0       0.1       0.0       0.0       0.2       0.0
16 H  s               9.4       0.0       0.1       4.6       0.1       0.1
16 H  px              0.4       0.0       0.0       0.1       0.0       0.0
17 H  s               5.6       1.6       0.1       0.5      10.2       0.1
17 H  py              0.1       0.1       0.0       0.1       0.1       0.0
18 H  s               1.2       0.2       0.0       0.5       0.2       0.0
18 H  pz              0.0       0.0       0.0       0.0       0.0       0.5
18 H  px              0.0       0.1       0.0       0.0       0.0       0.0

                     24        25        26        27        28        29   
                  -0.36571  -0.34297  -0.33985  -0.33439  -0.31422  -0.29976
                   2.00000   2.00000   2.00000   2.00000   2.00000   2.00000
                  --------  --------  --------  --------  --------  --------
 0 C  s               0.2       0.2       0.1       0.0       0.3       0.0
 0 C  pz              0.2       4.0       4.3      19.6       0.2       0.7
 0 C  px              2.6      13.6       9.1       0.0       0.7       3.3
 0 C  py              7.6       3.0       6.4       3.2      12.6       0.4
 0 C  dz2             0.0       0.0       0.3       0.1       0.1       0.0
 0 C  dyz             0.0       0.0       0.0       0.4       0.1       0.0
 0 C  dx2y2           0.1       0.4       0.1       0.0       0.0       0.2
 0 C  dxy             0.0       0.0       0.1       0.0       0.1       0.0
 1 C  s               0.3       0.1       0.1       0.0       0.2       0.1
 1 C  pz              0.5       1.8       1.8       9.0       0.2       2.1
 1 C  px              0.1       2.5       1.0       0.0       1.8       8.1
 1 C  py              9.7       6.2       5.5       2.1      11.3       0.1
 1 C  dz2             0.0       0.0       0.2       0.1       0.1       0.0
 1 C  dyz             0.0       0.0       0.0       0.3       0.1       0.0
 1 C  dx2y2           0.0       0.3       0.0       0.0       0.0       0.2
 1 C  dxy             0.0       0.0       0.1       0.0       0.5       0.0
 2 C  s               0.1       0.7       0.2       0.1       0.2       0.0
 2 C  pz              0.1       1.1       0.5       6.5       0.5       2.6
 2 C  px              1.2       2.3       1.2       0.1       2.3       6.5
 2 C  py              0.5       0.6       3.1       0.9       9.3       0.7
 2 C  dxz             0.0       0.0       0.0       0.0       0.0       0.1
 2 C  dx2y2           0.0       0.0       0.0       0.0       0.0       0.3
 2 C  dxy             0.1       0.0       0.0       0.0       0.7       0.0
 3 C  s               0.5       0.2       0.1       0.1       0.2       0.0
 3 C  pz              0.0       0.3       0.0       4.5       0.1       8.0
 3 C  px              4.4       3.8       5.4       0.8       0.5       2.4
 3 C  py              0.1       0.2       4.8       1.3       8.6       1.8
 3 C  dx2y2           0.0       0.1       0.0       0.0       0.0       0.2
 3 C  dxy             0.0       0.2       0.3       0.2       0.6       0.0
 4 C  s               0.2       0.2       0.0       0.0       0.1       0.1
 4 C  pz              0.0       0.1       0.2       0.8       0.3       9.6
 4 C  px              4.7       3.2       3.6       0.8       0.1       3.2
 4 C  py              0.1       0.8       2.7       1.7       2.8       0.9
 4 C  dx2y2           0.3       0.0       0.0       0.0       0.1       0.3
 4 C  dxy             0.0       0.1       0.4       0.1       0.3       0.0
 5 C  s               0.2       0.0       0.4       0.0       0.1       0.0
 5 C  pz              0.0       0.1       0.0       0.0       0.0       3.8
 5 C  px             11.2       0.1       8.0       0.2       0.2       1.5
 5 C  py              0.1       6.0       0.7       2.0       2.2       1.6
 5 C  dx2y2           0.3       0.0       0.1       0.0       0.0       0.3
 6 C  s               0.0       0.1       0.1       0.0       0.2       0.0
 6 C  pz              0.1       0.3       0.0       0.9       0.0       0.0
 6 C  px              0.1       4.1       0.8       0.4       0.2       3.4
 6 C  py              3.1       1.1       0.0       0.4       1.0       1.2
 6 C  dyz             0.0       0.0       0.0       0.0       0.0       0.2
 6 C  dx2y2           0.1       0.6       0.3       0.0       0.0       0.3
 6 C  dxy             0.0       0.1       0.1       0.0       0.4       0.0
 7 C  s               0.6       0.4       0.1       0.1       0.2       0.1
 7 C  pz              0.0       0.0       0.0       0.4       0.0       1.6
 7 C  px              0.0       3.3       2.1       0.1       2.5       3.3
 7 C  py              2.1       1.7       0.0       0.6       8.0       0.3
 7 C  dx2y2           0.0       0.0       0.0       0.0       0.1       0.3
 7 C  dxy             0.2       0.0       0.0       0.0       0.2       0.0
 8 O  s               3.4       2.4       0.2       0.2       0.2       0.4
 8 O  pz              0.6       1.0       0.4       6.5       0.6      10.9
 8 O  px             25.8      13.9       4.1       0.2       6.1       4.9
 8 O  py              0.8       1.3       0.1       0.5       0.2       0.0
 8 O  dz2             0.1       0.1       0.0       0.0       0.1       0.0
 8 O  dx2y2           0.1       0.6       0.0       0.1       0.0       0.3
 8 O  dxy             0.2       0.1       0.0       0.0       0.0       0.0
 9 H  s               1.5       7.8       5.6       0.0       0.7       2.3
 9 H  pz              0.0       0.0       0.0       0.2       0.0       0.0
 9 H  py              0.1       0.0       0.1       0.0       0.1       0.0
10 H  s               0.1       0.4       6.9       9.3       0.9       0.1
10 H  pz              0.0       0.0       0.1       0.1       0.0       0.0
10 H  px              0.0       0.1       0.0       0.1       0.0       0.0
11 H  s               0.7       1.2       1.3      10.1       3.6       0.8
11 H  pz              0.0       0.0       0.1       0.0       0.1       0.0
11 H  py              0.0       0.1       0.0       0.1       0.0       0.0
12 H  s               0.9       0.0       1.3       5.2       5.4       2.7
12 H  pz              0.0       0.0       0.1       0.0       0.1       0.0
13 H  s               0.2       0.5       3.2       4.4       1.1       0.5
13 H  px              0.0       0.0       0.0       0.0       0.0       0.1
14 H  s               0.7       2.6       6.5       2.2       4.5       0.1
15 H  s               0.9       0.3       0.9       1.0       2.6       2.2
16 H  s               7.3       0.2       3.8       0.0       0.0       2.0
16 H  px              0.1       0.0       0.0       0.0       0.0       0.0
17 H  s               2.6       1.0       0.1       0.5       2.8       1.1
17 H  px              0.0       0.0       0.0       0.0       0.1       0.0
18 H  s               1.1       1.7       0.1       0.2       0.1       0.4
18 H  pz              0.0       0.0       0.0       0.1       0.0       0.2
18 H  px              0.2       0.1       0.0       0.0       0.0       0.0

                     30        31        32        33        34        35   
                  -0.29830  -0.22995  -0.20087  -0.02681  -0.01503   0.05711
                   2.00000   2.00000   2.00000   0.00000   0.00000   0.00000
                  --------  --------  --------  --------  --------  --------
 0 C  s               0.0       0.0       0.0       0.1       0.0       0.9
 0 C  pz              1.7       0.0       0.1       0.2       0.1       0.0
 0 C  px              1.3       0.1       0.0       0.0       0.0       0.1
 0 C  py              0.9       0.1       0.0       0.1       0.0       0.3
 0 C  dyz             0.1       0.0       0.0       0.0       0.0       0.0
 1 C  s               0.2       0.0       0.0       0.0       0.0       0.6
 1 C  pz              5.3       1.5       0.6       0.0       0.1       0.0
 1 C  px              5.0       0.0       0.0       0.0       0.1       0.1
 1 C  py              0.8       0.0       0.0       0.1       0.1       0.2
 1 C  dz2             0.1       0.0       0.0       0.1       0.0       0.0
 1 C  dxz             0.1       0.3       0.1       0.6       0.3       0.0
 2 C  s               0.0       0.0       0.0       0.0       0.0       1.7
 2 C  pz              2.5      17.8       5.9      22.3       9.2       0.0
 2 C  px              4.2       0.1       0.0       0.1       0.0       0.7
 2 C  py              1.5       0.1       0.0       0.1       0.0       0.2
 2 C  dz2             0.0       0.0       0.0       0.0       0.0       0.1
 2 C  dxz             0.1       0.2       0.0       0.2       0.0       0.0
 2 C  dyz             0.0       0.2       0.4       0.3       1.0       0.0
 2 C  dx2y2           0.4       0.0       0.0       0.0       0.0       0.2
 3 C  s               0.0       0.0       0.0       0.0       0.0       0.5
 3 C  pz              7.7       0.3      27.1       0.1      28.9       0.0
 3 C  px              3.2       0.0       0.1       0.0       0.1       0.3
 3 C  py              1.2       0.0       0.1       0.0       0.1       0.1
 3 C  dxz             0.1       0.3       0.0       0.8       0.1       0.0
 3 C  dyz             0.0       0.2       0.0       0.6       0.2       0.0
 3 C  dx2y2           0.2       0.0       0.0       0.0       0.0       0.0
 4 C  s               0.1       0.0       0.0       0.0       0.0       0.3
 4 C  pz             10.0      21.5       1.6      23.5       8.1       0.0
 4 C  px              2.1       0.1       0.0       0.1       0.0       0.3
 4 C  py              1.9       0.1       0.0       0.1       0.0       0.3
 4 C  dxz             0.0       0.1       0.6       0.1       1.0       0.0
 4 C  dyz             0.0       0.1       0.1       0.3       0.0       0.0
 4 C  dx2y2           0.2       0.0       0.0       0.0       0.0       0.0
 5 C  s               0.0       0.0       0.0       0.0       0.0       1.2
 5 C  pz              4.1      17.1      16.8      20.0       5.6       0.0
 5 C  px              1.8       0.0       0.0       0.1       0.0       0.0
 5 C  py              1.0       0.1       0.1       0.1       0.0       1.1
 5 C  dxz             0.1       0.0       0.0       0.2       0.0       0.0
 5 C  dyz             0.0       0.1       0.2       0.3       1.2       0.0
[...]
 9 H  s               0.1       0.3       0.9       0.4       0.0       0.0
 9 H  px              0.2       1.2       2.3       0.7       0.0       0.0
 9 H  py              0.6       0.0       0.0       0.0       0.0       0.0
10 H  s               2.1       0.3       2.8       0.0       0.0       0.0
10 H  pz              5.9       0.9       5.6       0.1       0.0       0.0
10 H  px              0.8       0.1       0.2       0.0       0.0       0.0
10 H  py              0.0       0.0       0.8       0.0       0.0       0.0
11 H  s               0.8       0.1       1.6       0.4       0.0       0.0
11 H  pz              1.9       0.0       1.6       0.5       0.0       0.0
11 H  px              0.4       0.0       0.5       0.0       0.0       0.0
11 H  py              0.7       0.1       2.5       0.4       0.0       0.0
12 H  s               2.0       0.3       6.1       0.0       0.1       0.0
12 H  pz              4.0       0.2       4.3       0.0       0.1       0.0
12 H  px              1.2       0.0       2.9       0.3       0.0       0.0
12 H  py              1.8       0.8       7.1       0.0       0.0       0.0
13 H  s               2.8       0.3       3.7       0.0       0.0       0.0
13 H  pz              8.8       0.5       6.9       0.0       0.0       0.0
13 H  px              0.5       0.2       1.1       0.1       0.0       0.0
13 H  py              0.0       0.0       1.2       0.0       0.0       0.0
14 H  s               0.2       0.0       0.0       0.0       3.0       0.6
14 H  px              0.2       0.4       0.0       0.1       2.6       0.4
14 H  py              0.2       0.0       0.0       0.0       3.9       0.5
15 H  s               0.1       2.1       0.0       0.0       3.0       0.7
15 H  px              0.1       1.0       0.0       0.1       0.4       0.2
15 H  py              0.1       5.7       0.1       0.0       5.8       1.0
16 H  s               0.4       1.8       0.0       0.1       1.4       1.2
16 H  px              1.1       5.2       0.0       0.1       3.1       2.0
16 H  py              0.0       0.3       0.0       0.3       0.1       0.1
17 H  s               0.0       5.0       0.4       0.0       0.4       1.0
17 H  px              0.0       1.5       0.0       0.4       0.1       0.2
17 H  py              0.0      13.6       1.3       0.1       0.9       1.5
18 H  s               0.0       0.0       0.0       0.0       0.0       1.3
18 H  px              0.0       0.4       0.0       1.1       0.0       0.3
18 H  py              0.0       0.0       0.0       0.4       0.0       1.8

                    216       217       218       219       220       221   
                   4.60868  21.39313  21.83726  21.95222  21.98185  22.05441
                   0.00000   0.00000   0.00000   0.00000   0.00000   0.00000
                  --------  --------  --------  --------  --------  --------
 0 C  s               0.0       0.2      14.2      66.8      16.1       2.0
 1 C  s               0.0       1.5      30.1       1.7       0.0      57.5
 2 C  s               0.0      25.5      19.7       3.6       1.2       3.8
 2 C  py              0.0       0.0       0.0       0.0       0.1       0.0
 2 C  dx2y2           0.1       0.0       0.0       0.0       0.0       0.0
 3 C  s               0.0      16.3       0.3       1.2      25.1       5.0
 4 C  s               0.0      14.3       8.3      12.1      13.6       1.3
 4 C  dx2y2           0.1       0.0       0.0       0.0       0.0       0.0
 5 C  s               0.2      12.9      16.5       3.8       1.3      19.5
 5 C  px              0.1       0.0       0.0       0.0       0.0       0.0
 5 C  dx2y2           0.3       0.0       0.0       0.0       0.0       0.0
 6 C  s               0.1      11.3       9.9       2.1      26.4       0.8
 6 C  px              1.0       0.0       0.0       0.0       0.0       0.0
 6 C  py              0.7       0.0       0.0       0.0       0.0       0.0
 6 C  dxy             2.7       0.0       0.0       0.0       0.0       0.0
 7 C  s               0.1      17.7       0.6       8.3      15.6       9.6
 7 C  px              0.1       0.0       0.0       0.0       0.1       0.0
 7 C  dx2y2           0.4       0.0       0.0       0.0       0.0       0.0
 7 C  dxy             0.2       0.0       0.0       0.0       0.0       0.0
 8 O  s               4.7       0.0       0.0       0.0       0.1       0.0
 8 O  px              1.0       0.0       0.0       0.0       0.0       0.0
 8 O  py             21.1       0.0       0.0       0.0       0.0       0.0
 8 O  dz2             3.9       0.0       0.0       0.0       0.0       0.0
 8 O  dx2y2           5.0       0.0       0.0       0.0       0.0       0.0
 8 O  dxy            28.8       0.0       0.0       0.0       0.0       0.0
16 H  px              0.1       0.0       0.0       0.0       0.0       0.0
17 H  s               0.1       0.0       0.0       0.0       0.0       0.0
17 H  py              0.2       0.0       0.0       0.0       0.0       0.0
18 H  s              13.2       0.0       0.0       0.0       0.0       0.0
18 H  px              3.3       0.0       0.0       0.0       0.0       0.0
18 H  py             11.4       0.0       0.0       0.0       0.0       0.0

                    222       223       224       225   
                  22.18806  22.20527  22.34414  43.63514
                   0.00000   0.00000   0.00000   0.00000
                  --------  --------  --------  --------
 0 C  s               0.2       0.1       0.0       0.0
 1 C  s               0.5       7.8       0.3       0.0
 2 C  s               2.3      29.1      14.7       0.0
 3 C  s              19.1      15.1      17.4       0.0
 4 C  s              27.3       3.6      19.0       0.0
 5 C  s               0.8      27.3      17.4       0.0
 6 C  s              19.5      14.0      15.6       0.0
 7 C  s              29.8       2.6      15.3       0.0
 8 O  s               0.0       0.0       0.0      99.9


                      *****************************
                      * MAYER POPULATION ANALYSIS *
                      *****************************

  NA   - Mulliken gross atomic population
  ZA   - Total nuclear charge
  QA   - Mulliken gross atomic charge
  VA   - Mayer's total valence
  BVA  - Mayer's bonded valence
  FA   - Mayer's free valence

  ATOM       NA         ZA         QA         VA         BVA        FA
  0 C      6.4908     6.0000    -0.4908     3.7866     3.7866    -0.0000
  1 C      6.3073     6.0000    -0.3073     3.5683     3.5683    -0.0000
  2 C      5.8030     6.0000     0.1970     3.6018     3.6018     0.0000
  3 C      6.2514     6.0000    -0.2514     3.8424     3.8424    -0.0000
  4 C      6.1190     6.0000    -0.1190     3.8188     3.8188    -0.0000
  5 C      6.3047     6.0000    -0.3047     3.9370     3.9370     0.0000
  6 C      5.5705     6.0000     0.4295     3.6912     3.6912    -0.0000
  7 C      6.4057     6.0000    -0.4057     3.9451     3.9451     0.0000
  8 O      8.4104     8.0000    -0.4104     2.0007     2.0007    -0.0000
  9 H      0.8486     1.0000     0.1514     0.9621     0.9621    -0.0000
 10 H      0.8345     1.0000     0.1655     0.9577     0.9577    -0.0000
 11 H      0.8569     1.0000     0.1431     0.9607     0.9607     0.0000
 12 H      0.8465     1.0000     0.1535     0.9578     0.9578    -0.0000
 13 H      0.8354     1.0000     0.1646     0.9485     0.9485    -0.0000
 14 H      0.8551     1.0000     0.1449     0.9701     0.9701    -0.0000
 15 H      0.8544     1.0000     0.1456     0.9685     0.9685    -0.0000
 16 H      0.8434     1.0000     0.1566     0.9681     0.9681     0.0000
 17 H      0.8696     1.0000     0.1304     0.9738     0.9738     0.0000
 18 H      0.6929     1.0000     0.3071     0.9065     0.9065     0.0000

  Mayer bond orders larger than 0.100000
B(  0-C ,  1-C ) :   0.8678 B(  0-C ,  9-H ) :   0.9700 B(  0-C , 10-H ) :   0.9948 
B(  0-C , 11-H ) :   0.9659 B(  1-C ,  2-C ) :   0.8212 B(  1-C , 12-H ) :   1.0044 
B(  1-C , 13-H ) :   0.9546 B(  2-C ,  3-C ) :   1.3726 B(  2-C ,  7-C ) :   1.4596 
B(  3-C ,  4-C ) :   1.4396 B(  3-C , 14-H ) :   0.9560 B(  4-C ,  5-C ) :   1.3953 
B(  4-C , 15-H ) :   0.9504 B(  5-C ,  6-C ) :   1.4417 B(  5-C , 16-H ) :   0.9409 
B(  6-C ,  7-C ) :   1.3534 B(  6-C ,  8-O ) :   0.9156 B(  7-C , 17-H ) :   0.9255 
B(  8-O , 18-H ) :   0.8857 

-------
TIMINGS
-------

Total SCF time: 0 days 0 hours 0 min 18 sec 

Total time                  ....      18.817 sec
Sum of individual times     ....      18.778 sec  ( 99.8%)

SCF preparation             ....       0.431 sec  (  2.3%)
Fock matrix formation       ....      17.011 sec  ( 90.4%)
  Startup                   ....       0.009 sec  (  0.1% of F)
  Split-RI-J                ....       3.783 sec  ( 22.2% of F)
  XC integration            ....      13.099 sec  ( 77.0% of F)
    XC Preparation          ....       0.000 sec  (  0.0% of XC)
    Basis function eval.    ....       2.348 sec  ( 17.9% of XC)
    Density eval.           ....       4.478 sec  ( 34.2% of XC)
    XC-Functional eval.     ....       1.450 sec  ( 11.1% of XC)
    XC-Potential eval.      ....       4.444 sec  ( 33.9% of XC)
Diagonalization             ....       0.000 sec  (  0.0%)
Density matrix formation    ....       0.046 sec  (  0.2%)
Total Energy calculation    ....       0.003 sec  (  0.0%)
Population analysis         ....       1.093 sec  (  5.8%)
Orbital Transformation      ....       0.024 sec  (  0.1%)
Orbital Orthonormalization  ....       0.000 sec  (  0.0%)
DIIS solution               ....       0.151 sec  (  0.8%)
  MO trafo                  ....       0.000 sec  (  0.0 % of DIIS)
  Orb grad                  ....       0.000 sec  (  0.0 % of DIIS)
  Energy W gradient         ....       0.000 sec  (  0.0 % of DIIS)
  DIIS error                ....       0.017 sec  ( 11.5 % of DIIS)
  DIIS work                 ....       0.120 sec  ( 79.5 % of DIIS)
  Form Q                    ....       0.000 sec  (  0.0 % of DIIS)
  Form QpQm                 ....       0.000 sec  (  0.0 % of DIIS)
  Exp/Cayley                ....       0.000 sec  (  0.0 % of DIIS)
  Orb update                ....       0.000 sec  (  0.0 % of DIIS)
  Wake-sleep                ....       0.002 sec  (  1.1 % of DIIS)
SOSCF solution              ....       0.020 sec  (  0.1%)
  MO trafo                  ....       0.015 sec  ( 75.7 % of SOSCF)
  Orb grad                  ....       0.000 sec  (  0.5 % of SOSCF)
  Rot update                ....       0.000 sec  (  0.4 % of SOSCF)
  Step                      ....       0.005 sec  ( 23.2 % of SOSCF)
Finished LeanSCF after  20.0 sec

Maximum memory used throughout the entire LEANSCF-calculation: 25.6 MB


-------------------------------------------------------------------------------
                          DFT DISPERSION CORRECTION                            
                                                                               
                                DFTD4 V3.4.0                                   
-------------------------------------------------------------------------------
The R2SCAN3C composite method is recognized
Using three-body term ABC
Active option DFTDOPT                   ...         5   

-------------------------   ----------------
Dispersion correction           -0.006089191
-------------------------   ----------------

------------------   -----------------
gCP correction             0.006850094
------------------   -----------------

-------------------------   --------------------
FINAL SINGLE POINT ENERGY      -386.000493482121
-------------------------   --------------------


------------------------------------------------------------------------------
                              ORCA PROPERTY CALCULATIONS
------------------------------------------------------------------------------

GBWName                                 ... sp.gbw
Number of atoms                         ...     19
Number of basis functions               ...    226
Max core memory                         ...   1024 MB

Electric properties:
Dipole moment                           ... YES
Quadrupole moment                       ...  NO
Static polarizability (Dipole/Dipole)   ...  NO
Static polarizability (Dipole/Quad.)    ...  NO
Static polarizability (Quad./Quad.)     ...  NO
Static polarizability (Velocity)        ...  NO

Atomic electric properties:
Dipole moment                           ...  NO
Quadrupole moment                       ...  NO
Static polarizability                   ...  NO

Choice of electric origin               ... Center of mass
Position of electric origin             ...    -0.000029    -0.000006     0.000001

General magnetic properties:
Magnetizability                         ...  NO

EPR properties:
g-Tensor (aka g-matrix)                 ...  NO
Zero-Field splitting spin-orbit         ...  NO
Zero-field splitting spin-spin          ...  NO
Hyperfine couplings                     ...  NO (   0 nuclei)
Quadrupole couplings                    ...  NO (   0 nuclei)
Contact density                         ...  NO (   0 nuclei)

NMR properties:
Chemical shifts                         ...  NO (   0 nuclei)
Spin-rotation constants                 ...  NO (   0 nuclei)
Spin-spin couplings                     ...  NO (   0 nuclei,    0 pairs)

Choice of magnetic origin               ... GIAO
Position of magnetic origin             ...     0.000000     0.000000     0.000000

Properties with geometric perturbations:
SCF Hessian                             ...  NO
IR spectrum                             ...  NO
VCD spectrum                            ...  NO
X-ray spectroscopy properties:
SCF XES/XAS/RIXS spectra                ...  NO


-------------
DIPOLE MOMENT
-------------

Method             : SCF
Type of density    : Electron Density
Multiplicity       :   1
Irrep              :   0
Energy             :  -386.0012543859228913 Eh
Relativity type    : 
Basis              : AO
                                X                 Y                 Z
Electronic contribution:      8.548900031      -1.340164293       0.195380561
Nuclear contribution   :     -9.133579458       1.699880874      -0.182590720
                        -----------------------------------------
Total Dipole Moment    :     -0.584679427       0.359716581       0.012789841
                        -----------------------------------------
Magnitude (a.u.)       :      0.686592769
Magnitude (Debye)      :      1.745180128



--------------------
Rotational spectrum 
--------------------
 
Rotational constants in cm-1:             0.091353             0.041928             0.029138 
Rotational constants in MHz :          2738.691853          1256.974228           873.524188 

Dipole components along the rotational axes: 
x,y,z [a.u.] :    -0.618255     0.295874     0.040364 
x,y,z [Debye]:    -1.571478     0.752053     0.102598 

 

Dipole moment calculation done in   0.8 sec 

Maximum memory used throughout the entire PROP-calculation: 15.3 MB

--------------------------------
SUGGESTED CITATIONS FOR THIS RUN
--------------------------------

Below you find a list of papers that are relevant to this ORCA run
We neither can nor want to force you to cite these papers, but we appreciate if you do
You receive ORCA, which is the product of decades of hard work by many enthusiastic individuals, for free
The only thing we kindly ask in return is that you cite our papers,
We deeply appreciate it, if you show your appreciation for ORCA by not just citing the generic ORCA reference.

Please note that relegating all ORCA citations to the supporting information does *not* help us.
SI sections are not indexed - citations you put there will not count into any citation statistics
But we need these citations in order to attract the funding resources that allow us to do what we are doing

Therefore, if you are a happy ORCA user, please consider citing a few of the papers listed below in the main body of your paper

In addition to the list printed below, the program has created the file sp.bibtex that contains the list in bibtex format
You can import this file easily into all common literature databanks and citation aid programs


List of essential papers. We consider these as the minimum necessary citations

  1. Neese,F.
     Software update: the ORCA program system, version 5.0
     WIRES Comput. Molec. Sci., 2022 12(1)e1606
     doi.org/10.1002/wcms.1606
  2. Grimme,S.; Hansen,A.; Ehlert,S.; Mewes,J.
     r2SCAN-3c: A 'Swiss army knife' composite electronic-structure method
     J. Chem. Phys., 2021 154 064103
     doi.org/10.1063/5.0040021

List of papers to cite with high priority. The work reported in these papers was absolutely
necessary for this run to complete.
Our perspective: the developers of density functionals and basis sets usually get cited in chemistry papers
Good! But without the algorithms to do something with them, the functionals or basis sets would not do anything.
Hence, in our opinion, the algorithm design and method developments papers are equally worthy of getting cited

  1. Neese,F.
     An improvement of the resolution of the identity approximation for the formation of the Coulomb matrix
     J. Comp. Chem., 2003 24(14)1740-1747
     doi.org/10.1002/jcc.10318
  2. Neese,F.
     The SHARK Integral Generation and Digestion System
     J. Comp. Chem., 2022  1-16
     doi.org/10.1002/jcc.26942
  3. Lehtola,S.; Steigemann,C.; Oliveira,M.; Marques,M.
     Recent developments in Libxc - A comprehensive library of functionals for density functional theory
     Software X, 2018 7 
     doi.org/10.1016/j.softx.2017.11.002
  4. Caldeweyher,E.; Bannwarth,C.; Grimme,S.
     Extension of the D3 dispersion coefficient model
     J. Chem. Phys., 2017 147 034112
     doi.org/10.1063/1.4993215
  5. Caldeweyher,E.; Ehlert,S.; Hansen,A.; Neugebauer,H.; Spicher,S.; Bannwarth,C.; Grimme,S.
     A generally applicable atomic-charge dependent London dispersion correction
     J. Chem. Phys., 2019 150 154122
     doi.org/10.1063/1.5090222
  6. Caldeweyher,E.; Mewes,J.; Ehlert,S.; Grimme,S.
     Extension and evaluation of the D4 London-dispersion model for periodic systems
     Phys. Chem. Chem. Phys., 2020 22(16)8499-8512
     doi.org/10.1039/D0CP00502A
  7. Wittmann,L.; Gordiy,I.; Friede,M.; Helmich-Paris,B.; Grimme,S.; Hansen,A.; Bursch,M.
     Extension of the D3 and D4 London Dispersion Corrections to the full Actinides Series
     Phys. Chem. Chem. Phys., 2024 26(32)21379-21394
     doi.org/https://doi.org/10.1039/D4CP01514B 

List of suggested additional citations. These are papers that are important in the 'surrounding' of 
of this run, or papers that preceded the highly important papers. If you like your results we are grateful for a citation.

  1. Neese,F.
     The ORCA program system
     WIRES Comput. Molec. Sci., 2012 2(1)73-78
     doi.org/10.1002/wcms.81
  2. Neese,F.
     Software update: the ORCA program system, version 4.0
     WIRES Comput. Molec. Sci., 2018 8(1)1-6
     doi.org/10.1002/wcms.1327
  3. Neese,F.; Wennmohs,F.; Becker,U.; Riplinger,C.
     The ORCA quantum chemistry program package
     J. Chem. Phys., 2020 152 Art. No. L224108
     doi.org/10.1063/5.0004608

List of optional additional citations

  1. Neese,F.
     Approximate second-order SCF convergence for spin unrestricted wavefunctions
     Chem. Phys. Lett., 2000 325(1-3)93-98
     doi.org/10.1016/s0009-2614(00)00662-x

Timings for individual modules:

Sum of individual times          ...       21.872 sec (=   0.365 min)
Startup calculation              ...        0.907 sec (=   0.015 min)   4.1 %
SCF iterations                   ...       20.100 sec (=   0.335 min)  91.9 %
Property calculations            ...        0.866 sec (=   0.014 min)   4.0 %
                             ****ORCA TERMINATED NORMALLY****
TOTAL RUN TIME: 0 days 0 hours 0 minutes 23 seconds 958 msec
