24
 energy: -43.360665914793 gnorm: 0.047260454684 xtb: 6.7.1 (edcfbbe)
C           -2.13313896129522       -0.92287852110758       -0.27339843107917
C           -1.18161646073938       -0.32779176760454        0.76269280673025
H           -1.73878810352791       -0.32909599946184        1.70834855214521
C           -0.76485699069320        1.12442768257248        0.51940664194367
H           -1.62852092570736        1.67264472178135        0.11221197429428
C            0.42302162969536        1.28731536780531       -0.44761590030672
H            0.84482755187391        2.29062713768310       -0.28941176823282
C            1.55137587465587        0.30255659952682       -0.08021768052730
H            2.27104974726992        0.27600547247673       -0.90360654971987
C            1.06719642359806       -1.12628366420267        0.19058161619809
H            1.85533614363295       -1.64922864908012        0.74432562025232
O           -0.05189123663653       -1.18467375290651        1.04572545738193
O            0.84194969461216       -1.80643799298214       -1.05766904327064
O            2.25358977832000        0.75200628187480        1.07735645902867
O            0.04103726080248        1.23319664878768       -1.80539016281256
O           -0.41408996354273        1.63601617758992        1.82276056184779
O           -1.67726408048627       -0.90791610907877       -1.62449406536302
H           -3.06289327166687       -0.34315266810768       -0.25412031985627
H           -2.36816857884727       -1.95005293385383        0.04127725326785
H            0.82821101133070       -2.75229168497501       -0.86346451126077
H            1.59082712594087        0.87607823023633        1.77397131735718
H           -0.64428612884234        0.54491842446445       -1.91231177436307
H           -0.18040880272876        2.56653597832921        1.71798784522300
H           -0.84694563834049       -1.42468960769927       -1.64098074348576
24
 energy: -43.362895979495 gnorm: 0.024049243975 xtb: 6.7.1 (edcfbbe)
C           -2.12994528640115       -0.92318022066185       -0.27319519485602
C           -1.17231084824702       -0.33664630662538        0.77181389315813
H           -1.71298949086670       -0.34535317451296        1.72672293078637
C           -0.75966708127496        1.11962807683131        0.52472737284463
H           -1.62676921406364        1.66586810252791        0.12520088693954
C            0.42125629325067        1.28936896416076       -0.44796104422121
H            0.84218072357508        2.29562678912604       -0.30106554176203
C            1.54805375165598        0.30160115981194       -0.08246928267784
H            2.27175187692555        0.27186431566208       -0.90159037299252
C            1.05648009634104       -1.12665364183478        0.18939995200540
H            1.84559070653628       -1.64753784991906        0.74565589445085
O           -0.05473770166145       -1.19427098168281        1.04004148682546
O            0.82574873572051       -1.80861255879297       -1.04051644248705
O            2.23757327505794        0.76243363256443        1.06364982411653
O            0.03889138622795        1.23929313552353       -1.79486877720630
O           -0.41011701238011        1.64238755825587        1.80850329853256
O           -1.67324915956583       -0.89106534884433       -1.61051430303701
H           -3.05969060886079       -0.34756856521770       -0.25931111586960
H           -2.35575144662755       -1.95650443210742        0.02173437979425
H            0.80891275373932       -2.75519061744014       -0.85615430296803
H            1.57929161508088        0.86714872336358        1.76870367868768
H           -0.62292839335968        0.53024737939776       -1.91700968793696
H           -0.18885123104392        2.57578940619568        1.70645404689635
H           -0.83317064108044       -1.39083817371325       -1.64398642363090
24
 energy: -43.363487881081 gnorm: 0.005143957625 xtb: 6.7.1 (edcfbbe)
C           -2.12398257956823       -0.92101405918488       -0.27402588343548
C           -1.16314509617746       -0.34041333772261        0.78063442377825
H           -1.69813218026433       -0.34966592290068        1.73860705149684
C           -0.75714311954911        1.12072168348393        0.52979560769655
H           -1.63073981865410        1.65568821208678        0.12803395207833
C            0.41580793344798        1.28730074669842       -0.45522043764344
H            0.84058495149687        2.29255795179704       -0.30986406454400
C            1.54438822530486        0.30024419938975       -0.08181594060902
H            2.27054703770886        0.26277081193278       -0.89847011510918
C            1.05034744237878       -1.13030960811268        0.18827695118400
H            1.84432330196111       -1.64463070950995        0.74837837918116
O           -0.05532533308084       -1.19769533764861        1.03734350456716
O            0.81970467086330       -1.80636449953330       -1.03082114922329
O            2.22696805519932        0.76228164593617        1.05588030402960
O            0.03060223938150        1.25073360184933       -1.79362126784771
O           -0.41129934025378        1.64729171053300        1.80080136962400
O           -1.66014776030006       -0.88454035012730       -1.59875962319239
H           -3.05117255749070       -0.34426308497225       -0.26301441095515
H           -2.34810467434670       -1.95515197127225        0.01743659630110
H            0.79163514365553       -2.75504574232745       -0.86025070829870
H            1.57530053528048        0.85183807448007        1.77038525368805
H           -0.61730153838569        0.53124439522109       -1.93122334259565
H           -0.20110525500891        2.58388610262253        1.70555523125090
H           -0.81705718492070       -1.37962914065069       -1.64007652602966
24
 energy: -43.363536206813 gnorm: 0.002173083549 xtb: 6.7.1 (edcfbbe)
C           -2.12276309258774       -0.92108668431163       -0.27399290273670
C           -1.16162576762035       -0.34153884698575        0.78312258018375
H           -1.69925530144828       -0.34957692691388        1.73952410622264
C           -0.75760360143853        1.12114710228102        0.53074801562536
H           -1.63323268630844        1.65068317008275        0.12458729171516
C            0.41541686061294        1.28809388904253       -0.45636796374893
H            0.84287048825996        2.29213829542979       -0.30737447257686
C            1.54429501695001        0.29927211086294       -0.08281530744708
H            2.27043085132464        0.26035545403689       -0.89990329502218
C            1.05079224427281       -1.13304370686939        0.18722443988805
H            1.84644615339559       -1.64486659045104        0.74868065673193
O           -0.05437548865376       -1.19808234647328        1.03870663123716
O            0.82263308019531       -1.80813633681301       -1.03111895160948
O            2.22505721691810        0.76205660000011        1.05429041673036
O            0.02843717670016        1.25521703625580       -1.79327948978143
O           -0.41271403039943        1.65015132694053        1.79945620787199
O           -1.65675808209536       -0.88405106393301       -1.59722555435875
H           -3.04902137874820       -0.34277842851044       -0.26164285381114
H           -2.34907610352330       -1.95443105867163        0.02033907612196
H            0.78600060588142       -2.75725247874566       -0.86283819492430
H            1.57528433119997        0.84787685275866        1.77071155362634
H           -0.61737685485078        0.53507659904722       -1.93429329896010
H           -0.20635871921820        2.58771707892102        1.70495269237835
H           -0.81194982014060       -1.37710567491233       -1.63752622796384
24
 energy: -43.363552243907 gnorm: 0.000941772178 xtb: 6.7.1 (edcfbbe)
C           -2.12157764611860       -0.92156096723384       -0.27391127864904
C           -1.16025252747798       -0.34237692880038        0.78432062462879
H           -1.70019093739640       -0.34982271904816        1.73936823844807
C           -0.75818977404216        1.12146395507680        0.53117711946471
H           -1.63469316227979        1.64712995683509        0.12099313613823
C            0.41557218663738        1.28869179912810       -0.45680608619356
H            0.84516587251217        2.29131963760566       -0.30343949912997
C            1.54501920476918        0.29866783052571       -0.08434857439405
H            2.27029885176250        0.25935890941784       -0.90240303961234
C            1.05220927797298       -1.13477122366801        0.18639542590400
H            1.84849713508853       -1.64541618604388        0.74854900091477
O           -0.05291501233692       -1.19811146110630        1.04048037851751
O            0.82465378153575       -1.81003942806779       -1.03119020881375
O            2.22584613969454        0.76137628612042        1.05260306142998
O            0.02715334717897        1.25992427372900       -1.79306725326814
O           -0.41612804588205        1.65273377552641        1.79910374292858
O           -1.65454490568120       -0.88508039879054       -1.59671008466125
H           -3.04727141421638       -0.34199111528231       -0.26052996874034
H           -2.35016154138627       -1.95438576455575        0.02223128319503
H            0.77802555804498       -2.75897650427951       -0.86261597219386
H            1.57776684397902        0.84450944076764        1.77042870164010
H           -0.61753619841751        0.53989311103188       -1.93666239544698
H           -0.21325898177095        2.59105039358669        1.70467276054555
H           -0.80793495349185       -1.37575130040652       -1.63467395725976
24
 energy: -43.363556620264 gnorm: 0.000719079051 xtb: 6.7.1 (edcfbbe)
C           -2.12054278855551       -0.92223917027680       -0.27380618712889
C           -1.15957174357794       -0.34304992636886        0.78466594851902
H           -1.70000357940507       -0.35083233185084        1.73946263140958
C           -0.75868872331086        1.12105974821709        0.53108133725110
H           -1.63502744938568        1.64530685189646        0.11888195103716
C            0.41589895047934        1.28910467198222       -0.45626516820951
H            0.84620419800763        2.29102175258596       -0.30056935052641
C            1.54538314921097        0.29826476091451       -0.08566518901736
H            2.26948776277386        0.25920921811069       -0.90469197245958
C            1.05342234350836       -1.13522667891758        0.18610880489345
H            1.84972073427803       -1.64559520243811        0.74832289931904
O           -0.05166248941212       -1.19779754447430        1.04163844481687
O            0.82462461456305       -1.81137446257146       -1.03046901036967
O            2.22771658832466        0.76104290770624        1.05068158261260
O            0.02724288123671        1.26291867281648       -1.79249095758751
O           -0.41894531686462        1.65386292353035        1.79885630909599
O           -1.65368705646151       -0.88533455471819       -1.59680836148445
H           -3.04625269956375       -0.34253263536441       -0.25984815122690
H           -2.34967323385921       -1.95523050708487        0.02192624291464
H            0.76959432483260       -2.75952972981851       -0.85950034031967
H            1.58097666753117        0.84260921683166        1.76960712036551
H           -0.61642623550004        0.54257541413197       -1.93773155838314
H           -0.21900943189060        2.59272778741977        1.70399463737522
H           -0.80522836828155       -1.37312581019124       -1.63341650750481
24
 energy: -43.363558893706 gnorm: 0.000389315297 xtb: 6.7.1 (edcfbbe)
C           -2.11966098818539       -0.92289939861127       -0.27384323848977
C           -1.15937436452662       -0.34341150821948        0.78458620682878
H           -1.69935184032657       -0.35171178873036        1.73964214286361
C           -0.75900422421665        1.12055886252316        0.53095879707885
H           -1.63499160505445        1.64483000284371        0.11841253038514
C            0.41593723309878        1.28898687386992       -0.45559733978656
H            0.84618222560259        2.29070394297634       -0.29925168942030
C            1.54537253812249        0.29798613355802       -0.08649448284770
H            2.26853469984780        0.25913271799363       -0.90628971622134
C            1.05375547497544       -1.13488536739851        0.18626022600772
H            1.85011600590520       -1.64513629975768        0.74826946444000
O           -0.05100449668169       -1.19745760787893        1.04224388071245
O            0.82378105464208       -1.81207877977700       -1.02944237862638
O            2.22949190290938        0.76088473096341        1.04905514524048
O            0.02775336708912        1.26445754197058       -1.79215446915736
O           -0.42006931817543        1.65390355234463        1.79880851531682
O           -1.65284769266348       -0.88474125935103       -1.59697372182326
H           -3.04580400617336       -0.34393457662601       -0.25987507626105
H           -2.34797635040403       -1.95640252454544        0.02041137969941
H            0.76254958572632       -2.75924555336554       -0.85544532261510
H            1.58372039113814        0.84190456568032        1.76881326281178
H           -0.61560255267347        0.54418789794335       -1.93843116566403
H           -0.22242004839385        2.59317862378534        1.70367781908812
H           -0.80353389290440       -1.37097541012293       -1.63337561416805
24
 energy: -43.363559551578 gnorm: 0.000266305089 xtb: 6.7.1 (edcfbbe)
C           -2.11902958777076       -0.92327793380437       -0.27406989702636
C           -1.15934844896778       -0.34356368931642        0.78469895716822
H           -1.69944228750552       -0.35193821157988        1.73968170320550
C           -0.75901038509295        1.12035340074435        0.53096772555643
H           -1.63508797294861        1.64460362287801        0.11857285818104
C            0.41586723177102        1.28912215945413       -0.45548750277140
H            0.84614103429450        2.29080524062444       -0.29884980243770
C            1.54510098440407        0.29779812334003       -0.08688747107201
H            2.26776972174748        0.25865914393711       -0.90713096920281
C            1.05370615200422       -1.13489060323385        0.18663974383625
H            1.85038241904161       -1.64487844318842        0.74861474777226
O           -0.05077273033041       -1.19734433384157        1.04265821994930
O            0.82364837289297       -1.81279727312332       -1.02869509743600
O            2.23013764497051        0.76090857202200        1.04805790605209
O            0.02781926943047        1.26530603668558       -1.79220719193277
O           -0.41989759263663        1.65365374080516        1.79882363835418
O           -1.65217126953667       -0.88382279549681       -1.59719212770141
H           -3.04572053891621       -0.34525133437068       -0.25995465281177
H           -2.34631777247288       -1.95715312697055        0.01947520434296
H            0.75865513904121       -2.75939910921595       -0.85297561026508
H            1.58496213172106        0.84206342907665        1.76831601306338
H           -0.61562812533127        0.54523554575562       -1.93893226635408
H           -0.22364142340328        2.59321818161310        1.70391142422159
H           -0.80256886772823       -1.36957497072612       -1.63407039729955
24
 energy: -43.363559873423 gnorm: 0.000146386587 xtb: 6.7.1 (edcfbbe)
C           -2.11839221271081       -0.92374755526258       -0.27451061450646
C           -1.15937106946215       -0.34354786968170        0.78463837726420
H           -1.69986695366871       -0.35187228493347        1.73935580064808
C           -0.75903818596846        1.12041567538568        0.53109014391758
H           -1.63525128351351        1.64476811424651        0.11905979366666
C            0.41577869137718        1.28911074120641       -0.45541478433023
H            0.84625257406028        2.29065373504222       -0.29846280223747
C            1.54508165177785        0.29767861461089       -0.08723969837798
H            2.26728098442808        0.25800447905869       -0.90790794700459
C            1.05344440968310       -1.13482254359182        0.18712486322951
H            1.85047337469853       -1.64446914396382        0.74905791685905
O           -0.05076518549512       -1.19717708068645        1.04312839742210
O            0.82345071469593       -1.81344703107472       -1.02793688405659
O            2.23084086772732        0.76100956572667        1.04714479910930
O            0.02772858396998        1.26605044824251       -1.79217936169449
O           -0.41951002550591        1.65340851566804        1.79898587833060
O           -1.65146574020847       -0.88311792118366       -1.59754207524083
H           -3.04571716261127       -0.34676791626801       -0.26022309968083
H           -2.34450008606711       -1.95800586630473        0.01854826774098
H            0.75536906618051       -2.75956919486906       -0.85085444543906
H            1.58610266994823        0.84264273574874        1.76775367437628
H           -0.61620230327321        0.54644708095722       -1.93913769063131
H           -0.22421081449670        2.59318615892052        1.70449115234850
H           -0.80195946688765       -1.36899608492585       -1.63500450632073
24
 energy: -43.363559694000 gnorm: 0.000329270925 xtb: 6.7.1 (edcfbbe)
C           -2.11771964796811       -0.92423765694387       -0.27498010162238
C           -1.15939718537933       -0.34353589615531        0.78458017872072
H           -1.70032860020655       -0.35181076160532        1.73901379075849
C           -0.75905870042405        1.12047178263960        0.53121791675455
H           -1.63540827745763        1.64493270643259        0.11956512096913
C            0.41568765867888        1.28911875306717       -0.45534469758363
H            0.84636999517372        2.29051657671627       -0.29805726109004
C            1.54504500007421        0.29755128343007       -0.08760902884864
H            2.26673829320739        0.25730964703728       -0.90873058256930
C            1.05317767493916       -1.13476176056265        0.18764648245662
H            1.85057246320525       -1.64405114371676        0.74953736988028
O           -0.05075471387430       -1.19699550797954        1.04363686113720
O            0.82323963729243       -1.81413950544297       -1.02712617517156
O            2.23157959342105        0.76112020002032        1.04617308680480
O            0.02762887187813        1.26683701445267       -1.79215100684669
O           -0.41910147126707        1.65314021947628        1.79915734036145
O           -1.65073781786998       -0.88236393104271       -1.59792159921543
H           -3.04571702909312       -0.34836682388361       -0.26049948344721
H           -2.34257955627354       -1.95890087657555        0.01756950984355
H            0.75192847742669       -2.75975996064623       -0.84861973408860
H            1.58730772002138        0.84326687267172        1.76715519211295
H           -0.61679699247439        0.54770711446595       -1.93934664158503
H           -0.22480309230864        2.59314218007458        1.70510161293715
H           -0.80131920204367       -1.36835515386172       -1.63600299527612
24
 energy: -43.363559953094 gnorm: 0.000091589538 xtb: 6.7.1 (edcfbbe)
C           -2.11812021782904       -0.92390092463763       -0.27481192164325
C           -1.15943803868041       -0.34353730351238        0.78462881588258
H           -1.70029286174590       -0.35184889478511        1.73914693714242
C           -0.75893395326622        1.12040130727540        0.53115717320787
H           -1.63514922191933        1.64487744439527        0.11932415870462
C            0.41574750385686        1.28929695678990       -0.45548574333055
H            0.84630668475107        2.29080361070192       -0.29841507459379
C            1.54491449756744        0.29763618934531       -0.08733333807758
H            2.26680658783944        0.25762641050093       -0.90822309023394
C            1.05333913040105       -1.13488548357238        0.18749926126690
H            1.85046509117789       -1.64440358208248        0.74943271711792
O           -0.05081391610812       -1.19703791934155        1.04346878595426
O            0.82330028711315       -1.81378071143809       -1.02747157941498
O            2.23108764326326        0.76112149023367        1.04669362018219
O            0.02760097446224        1.26629655382891       -1.79219184407809
O           -0.41920966250594        1.65314797772774        1.79910775230820
O           -1.65133248862062       -0.88270800861062       -1.59784367830973
H           -3.04579466265739       -0.34748274768613       -0.26033890256378
H           -2.34360628447698       -1.95834092553327        0.01811678979644
H            0.75455224526084       -2.75976986567964       -0.85006232361792
H            1.58654206968026        0.84318788387880        1.76744406294591
H           -0.61650641264984        0.54676865240790       -1.93905478071907
H           -0.22406884715033        2.59298242854724        1.70483945728267
H           -0.80184304908545       -1.36861516668546       -1.63566209981704
24
 energy: -43.363559975801 gnorm: 0.000032473743 xtb: 6.7.1 (edcfbbe)
C           -2.11812837108259       -0.92387758001500       -0.27486958083284
C           -1.15947631577659       -0.34350244662907        0.78460348128326
H           -1.70042368358283       -0.35182537222981        1.73907411279149
C           -0.75900740135230        1.12045304913896        0.53119041065971
H           -1.63522006044741        1.64496543343178        0.11937147021148
C            0.41570996333299        1.28925666888348       -0.45545641556377
H            0.84629977685335        2.29074503406948       -0.29835892430387
C            1.54494441153710        0.29762055495383       -0.08736900580020
H            2.26680471559433        0.25758558894145       -0.90829515209068
C            1.05331667300034       -1.13487770576982        0.18750446636982
H            1.85038880168988       -1.64437308593471        0.74949054520070
O           -0.05086291536010       -1.19695364212244        1.04354314648221
O            0.82326015443574       -1.81379983488798       -1.02742293065319
O            2.23113540755964        0.76113587594056        1.04663997688135
O            0.02752229541051        1.26628169679604       -1.79212724535451
O           -0.41920076967022        1.65312241361757        1.79914804959400
O           -1.65132188664311       -0.88274654267759       -1.59789607816400
H           -3.04577437654412       -0.34740765338316       -0.26040087558264
H           -2.34368711407641       -1.95829744639288        0.01809968551102
H            0.75500511269144       -2.75986182130607       -0.85014050608330
H            1.58658479689861        0.84322805508647        1.76738401807883
H           -0.61658878713908        0.54675179158324       -1.93897327429055
H           -0.22385837316451        2.59292164174147        1.70487476987256
H           -0.80186895548675       -1.36870930076755       -1.63564898882461
