18
 energy: -26.548834340003 gnorm: 0.020845504499 xtb: 6.7.1 (edcfbbe)
C           -2.60155127991847        1.46287946456968       -0.01056646720381
O           -2.22138593685236        0.09298056923861        0.00658055543173
C           -0.88618481127845       -0.19561650937727        0.00267417302108
C           -0.56493573092432       -1.55693670961598        0.01038285124497
C            0.77031174090578       -1.92789948622013        0.00684564384173
C            1.78812052155204       -0.97940698201959       -0.00266418847821
C            1.46347896551874        0.37999773639041       -0.00943393339555
C            0.11625642699175        0.77168678100894       -0.00622940497020
N            2.46557564274999        1.34980034232604       -0.08458026985573
H           -2.23661851672969        1.99076168421087        0.88065702027187
H           -3.69250180245542        1.47033456164749       -0.01271860869748
H           -2.23294672025614        1.96949574197922       -0.91236249372534
H           -1.36394419175497       -2.28846832946910        0.01864116312778
H            1.02858780379880       -2.98225184129891        0.01304213970397
H            2.82852535898392       -1.28906902913279       -0.01230397459334
H           -0.12292809002398        1.82854657991382       -0.02206372654488
H            3.36228210957965        1.04792791973750        0.26429803365872
H            2.20957257997918        2.24963425706989        0.29201064332204
18
 energy: -26.549627999988 gnorm: 0.008656853477 xtb: 6.7.1 (edcfbbe)
C           -2.60763803011382        1.45971279658533       -0.01126334877130
O           -2.21736314979429        0.10243337080643        0.00475305199739
C           -0.88227401235594       -0.18729941018203       -0.00037601320913
C           -0.55729322413253       -1.54493248884248        0.00820155688596
C            0.77041150569662       -1.92294039838930        0.00414630486988
C            1.78275420840835       -0.97931606384916       -0.00051097325059
C            1.46343016381122        0.37566064645532       -0.00211804000820
C            0.12368502696241        0.76823787469987       -0.00347641720064
N            2.46324956318413        1.33979090484247       -0.07893656240179
H           -2.24781655367644        1.98689368492705        0.87871169968252
H           -3.69650175055164        1.45504824212736       -0.01292416031314
H           -2.24413920893211        1.96660579686732       -0.91121835200314
H           -1.35381091578892       -2.27170984006401        0.01755110865523
H            1.02535412126566       -2.97403868118399        0.01090406526118
H            2.81869609210318       -1.28743535001362       -0.00529427177996
H           -0.10555752827420        1.82297427103391       -0.01211113977767
H            3.36644253023360        1.03679175498505        0.25499852364913
H            2.20808523182078        2.24791964015319        0.28117212387362
18
 energy: -26.549773498208 gnorm: 0.004327861474 xtb: 6.7.1 (edcfbbe)
C           -2.61131009749885        1.45598729592823       -0.01208909175809
O           -2.21624500305699        0.10628207845263        0.00405867128964
C           -0.88133427084150       -0.18251922616232        0.00104664945762
C           -0.55414932389109       -1.53884708282772        0.00650416072757
C            0.77052754244455       -1.92206424861598        0.00419088554212
C            1.78171332287009       -0.98006148314146        0.00221616297103
C            1.46497869331598        0.37431857481365        0.00202982123538
C            0.12729037992503        0.76769691013957        0.00105004403442
N            2.46368109624703        1.33394439093063       -0.07289637532022
H           -2.25810213080519        1.98727666777002        0.87731940845049
H           -3.69965814364515        1.44435448722111       -0.01494623777013
H           -2.25188775436517        1.96752937948136       -0.91022516914996
H           -1.35089684874297       -2.26318000746122        0.01262764901940
H            1.02226256742617       -2.97206599058664        0.00802250464709
H            2.81659662011149       -1.28686237415265        0.00046827428337
H           -0.09641769706180        1.82297845121349       -0.00285532799499
H            3.37228132917991        1.03051922857610        0.24543991620799
H            2.21038378825449        2.24910969937990        0.27024721028662
18
 energy: -26.549818037408 gnorm: 0.002674933988 xtb: 6.7.1 (edcfbbe)
C           -2.61402975314344        1.45341770383863       -0.01249282982925
O           -2.21590819427508        0.10720231280186        0.00358648415309
C           -0.88106644935544       -0.18033994041255        0.00202310087377
C           -0.55343318822084       -1.53665054632400        0.00466340502668
C            0.77051115378154       -1.92247313905486        0.00405415628408
C            1.78222442668414       -0.98086365702619        0.00491646803795
C            1.46662667902347        0.37432530467754        0.00550857114534
C            0.12872016758134        0.76853591677710        0.00507509944409
N            2.46508538980595        1.33097782100003       -0.06787505807231
H           -2.26524212890570        1.98817544786689        0.87715087796241
H           -3.70270377576297        1.43896267388754       -0.01708086118545
H           -2.25610262616231        1.96902054752694       -0.90944301217018
H           -1.35130060898659       -2.26008367687008        0.00790844970576
H            1.02016754078537       -2.97260590632344        0.00672607455605
H            2.81738355285107       -1.28714660887792        0.00444030644358
H           -0.09282310544347        1.82476528642568        0.00402148759725
H            3.37738403313843        1.02789660974770        0.23787389315643
H            2.21422095647059        2.25128060129785        0.26115254303003
18
 energy: -26.549838584168 gnorm: 0.001723297570 xtb: 6.7.1 (edcfbbe)
C           -2.61586628911891        1.45185201563472       -0.01271075616702
O           -2.21572247423737        0.10695701041179        0.00335641515057
C           -0.88082187181558       -0.17948202457066        0.00299759650235
C           -0.55365092612594       -1.53616815068171        0.00318209949926
C            0.77035395443649       -1.92287976744055        0.00433833235366
C            1.78276110700861       -0.98138065209334        0.00750726356805
C            1.46770348951993        0.37473875102366        0.00842053152540
C            0.12907284588528        0.76967228616821        0.00876480330111
N            2.46627187668092        1.32919265694986       -0.06316318019125
H           -2.27034453106100        1.98839368240055        0.87786971196251
H           -3.70496718554349        1.43651220118585       -0.01964924561028
H           -2.25739496720125        1.97018902370580       -0.90862883755547
H           -1.35257571270569       -2.25926194701587        0.00310435551105
H            1.01890709221387       -2.97349447781420        0.00569777197211
H            2.81840979167730       -1.28758109345774        0.00759762932803
H           -0.09213087096152        1.82648969959542        0.00952029076646
H            3.38154025624116        1.02682593451007        0.23124424986944
H            2.21816848497324        2.25382160244684        0.25276012437339
18
 energy: -26.549844276612 gnorm: 0.000837305734 xtb: 6.7.1 (edcfbbe)
C           -2.61603375720132        1.45182569134207       -0.01269843421020
O           -2.21577870111224        0.10619395586353        0.00333548004021
C           -0.88067120243058       -0.17991542438951        0.00354960458664
C           -0.55434219365712       -1.53695225065094        0.00225267230834
C            0.77010231982484       -1.92290588166519        0.00435443366461
C            1.78269026176674       -0.98137351852314        0.00914724269369
C            1.46761245190493        0.37511994219668        0.01037574076022
C            0.12851393975115        0.77024596896512        0.01100215396014
N            2.46625132664605        1.32861373665983       -0.05965876053033
H           -2.27212905686403        1.98742982898970        0.87928677666215
H           -3.70524698568157        1.43707056807931       -0.02222955708591
H           -2.25506641786795        1.97054420278358       -0.90766323859930
H           -1.35357961977152       -2.26002082366577        0.00011604175621
H            1.01891884308271       -2.97382866635959        0.00519224383193
H            2.81854399056303       -1.28776464532465        0.00947886282784
H           -0.09378134956247        1.82691667793720        0.01247060253465
H            3.38343417456517        1.02714334646676        0.22703372040234
H            2.22027604591024        2.25605404225371        0.24686357055612
18
 energy: -26.549845336810 gnorm: 0.000164060611 xtb: 6.7.1 (edcfbbe)
C           -2.61524229620122        1.45253322202528       -0.01259981275902
O           -2.21597079675657        0.10606164974675        0.00335744447874
C           -0.88076318938921       -0.18048062308410        0.00342471570723
C           -0.55451426588077       -1.53745096834616        0.00241830181576
C            0.77006191525824       -1.92278384542635        0.00436349330281
C            1.78235952691686       -0.98119151816757        0.00901836968684
C            1.46707417481534        0.37504263224531        0.01031083242426
C            0.12815132169897        0.76984514681008        0.01068191954104
N            2.46547119741402        1.32889276061402       -0.05950294420073
H           -2.27130698895683        1.98670543898292        0.87992401308525
H           -3.70426149351419        1.43827062166310       -0.02301054918855
H           -2.25285059859724        1.97044665548964       -0.90713793291888
H           -1.35338495409579       -2.26058699760894        0.00054289468257
H            1.01951073062555       -2.97354751778471        0.00504628323024
H            2.81803609536702       -1.28766329097905        0.00935543389466
H           -0.09468292998934        1.82619062705481        0.01211166817650
H            3.38271118394873        1.02773260297778        0.22732103648563
H            2.21931543720247        2.25638015474587        0.24658398871503
18
 energy: -26.549845439618 gnorm: 0.000061378198 xtb: 6.7.1 (edcfbbe)
C           -2.61497115483627        1.45277738844292       -0.01255138130438
O           -2.21608235294152        0.10607346443230        0.00333266785822
C           -0.88085989269838       -0.18068138273728        0.00348046579726
C           -0.55454576461216       -1.53760254415170        0.00242145069702
C            0.77006636956641       -1.92283974001339        0.00427646026384
C            1.78231776692041       -0.98121082948569        0.00895634634369
C            1.46697455914962        0.37499102816178        0.01031608646213
C            0.12807575987554        0.76962023356094        0.01070018814691
N            2.46514601684066        1.32895163277833       -0.05943986246973
H           -2.27154751079937        1.98640965780738        0.88041630475877
H           -3.70393973337422        1.43867679207439       -0.02382666224443
H           -2.25169393493818        1.97071270866927       -0.90661872744277
H           -1.35329643304998       -2.26081600899647        0.00067761572323
H            1.01968534260931       -2.97352888475356        0.00506144276745
H            2.81795033108913       -1.28770969152331        0.00937890133032
H           -0.09481783632772        1.82592657588387        0.01221624612045
H            3.38251163694256        1.02804951143717        0.22733845133141
H            2.21874090045021        2.25659683937176        0.24607316201994
18
 energy: -26.549845472989 gnorm: 0.000056704686 xtb: 6.7.1 (edcfbbe)
C           -2.61484579247726        1.45286592995627       -0.01251544950568
O           -2.21612435321150        0.10608987601701        0.00331795090299
C           -0.88092047561714       -0.18076961710577        0.00347481432360
C           -0.55455721072735       -1.53766510369973        0.00250524870752
C            0.77007059593011       -1.92287482656213        0.00439181063535
C            1.78231820485834       -0.98124745674041        0.00893568751128
C            1.46695724313945        0.37495812336272        0.01027311027525
C            0.12804224729517        0.76950780719056        0.01072145944178
N            2.46502258515945        1.32898859342587       -0.05950279001298
H           -2.27194807161402        1.98619519805589        0.88083076573159
H           -3.70380627701351        1.43889266113104       -0.02454369093979
H           -2.25088967931424        1.97096539696814       -0.90619709708325
H           -1.35324578848236       -2.26096081860753        0.00074787231686
H            1.01972747212468       -2.97355069066611        0.00502963321383
H            2.81794167926410       -1.28777213623048        0.00925923483967
H           -0.09483888961942        1.82582349246360        0.01234637080909
H            3.38240981304193        1.02829703016083        0.22740722637686
H            2.21840076712962        2.25665329183894        0.24572699861538
