
                                 *****************
                                 * O   R   C   A *
                                 *****************

                                            #,                                       
                                            ###                                      
                                            ####                                     
                                            #####                                    
                                            ######                                   
                                           ########,                                 
                                     ,,################,,,,,                         
                               ,,#################################,,                 
                          ,,##########################################,,             
                       ,#########################################, ''#####,          
                    ,#############################################,,   '####,        
                  ,##################################################,,,,####,       
                ,###########''''           ''''###############################       
              ,#####''   ,,,,##########,,,,          '''####'''          '####       
            ,##' ,,,,###########################,,,                        '##       
           ' ,,###''''                  '''############,,,                           
         ,,##''                                '''############,,,,        ,,,,,,###''
      ,#''                                            '''#######################'''  
     '                                                          ''''####''''         
             ,#######,   #######,   ,#######,      ##                                
            ,#'     '#,  ##    ##  ,#'     '#,    #''#        ,####,   ,####,        
            ##       ##  ##   ,#'  ##            #'  '#       #'       #'  '#        
            ##       ##  #######   ##           ,######,      #####,   #    #        
            '#,     ,#'  ##    ##  '#,     ,#' ,#      #,     #,   #   #,  ,#        
             '#######'   ##     ##  '#######'  #'      '#     '####' # '####'        



                #########################################################
                #                        -***-                          #
                #          Department of theory and spectroscopy        #
                #                                                       #
                #                      Frank Neese                      #
                #                                                       #
                #     Directorship, Architecture, Infrastructure        #
                #                    SHARK, DRIVERS                     #
                #        Core code/Algorithms in most modules           #
                #                                                       #
                #        Max Planck Institute fuer Kohlenforschung      #
                #                Kaiser Wilhelm Platz 1                 #
                #                 D-45470 Muelheim/Ruhr                 #
                #                      Germany                          #
                #                                                       #
                #                  All rights reserved                  #
                #                        -***-                          #
                #########################################################


                         Program Version 6.0.1  -  RELEASE   -


 With contributions from (in alphabetic order):
[Max-Planck-Institut fuer Kohlenforschung]                               
  Daniel Aravena         : Magnetic Suceptibility                        
  Michael Atanasov       : Ab Initio Ligand Field Theory (pilot matlab implementation)
  Alexander A. Auer      : GIAO ZORA, VPT2 properties, NMR spectrum      
  Ute Becker             : All parallelization in ORCA, NUMFREQ, NUMCALC 
  Giovanni Bistoni       : ED, misc. LED, open-shell LED, HFLD           
  Martin Brehm           : Molecular dynamics                            
  Dmytro Bykov           : pre 5.0 version of the SCF Hessian            
  Marcos Casanova-Páez   : Triplet and SCS-CIS(D). UHF-(DLPNO)-IP/EA/STEOM-CCSD. UHF-CVS-IP/STEOM-CCSD   
  Vijay G. Chilkuri      : MRCI spin determinant printing, contributions to CSF-ICE 
  Pauline Colinet        : FMM embedding                                 
  Dipayan Datta          : RHF DLPNO-CCSD density                        
  Achintya Kumar Dutta   : EOM-CC, STEOM-CC                              
  Nicolas Foglia         : Exact transition moments, OPA infrastructure, MCD improvements    
  Dmitry Ganyushin       : Spin-Orbit,Spin-Spin,Magnetic field MRCI      
  Miquel Garcia-Rates    : C-PCM and meta-GGA Hessian, CCSD/C-PCM, Gaussian charge scheme 
  Tiago L. C. Gouveia    : GS-ROHF, GS-ROCIS                             
  Yang Guo               : DLPNO-NEVPT2, F12-NEVPT2, CIM, IAO-localization        
  Andreas Hansen         : Spin unrestricted coupled pair/coupled cluster methods 
  Ingolf Harden          : AUTO-CI MPn and infrastructure                
  Benjamin Helmich-Paris : MC-RPA, TRAH-(SCF,CASSCF), AVAS, COSX integrals, SCF dyn. polar. 
  Lee Huntington         : MR-EOM, pCC                                   
  Robert Izsak           : Overlap fitted RIJCOSX, COSX-SCS-MP3, EOM     
  Riya Kayal             : Wick's Theorem for AUTO-CI, AUTO-CI UHF-CCSDT 
  Emily Kempfer          : AUTO-CI, RHF CISDT and CCSDT                  
  Christian Kollmar      : KDIIS, OOCD, Brueckner-CCSD(T), CCSD density, CASPT2, CASPT2-K, improved NEVPT2 
  Axel Koslowski         : Symmetry handling                             
  Simone Kossmann        : meta-GGA functionals, TD-DFT gradient, OOMP2, (MP2 Hessian; deprecated post 5.0) 
  Lucas Lang             : DCDCAS                                        
  Marvin Lechner         : AUTO-CI (C++ implementation), FIC-MRCC        
  Spencer Leger          : CASSCF response                               
  Dagmar Lenk            : GEPOL surface, SMD, ORCA-2-JSON               
  Dimitrios Liakos       : Extrapolation schemes; Compound Job, initial MDCI parallelization 
  Dimitrios Manganas     : Further ROCIS development; embedding schemes. LFT, Crystal Embedding 
  Dimitrios Pantazis     : SARC Basis sets                               
  Anastasios Papadopoulos: AUTO-CI, single reference methods and gradients 
  Taras Petrenko         : pre 6.0 DFT Hessian and TD-DFT gradient, (ASA, deprecated), ECA, 1-Electron XAS/XES, NRVS 
  Peter Pinski           : DLPNO-MP2, DLPNO-MP2 Gradient                 
  Christoph Reimann      : Effective Core Potentials                     
  Marius Retegan         : Local ZFS, SOC                                
  Christoph Riplinger    : Optimizer, TS searches, QM/MM, DLPNO-CCSD(T), (RO)-DLPNO pert. Triples 
  Michael Roemelt        : Original ROCIS implementation                 
  Masaaki Saitow         : Open-shell DLPNO-CCSD energy and density      
  Barbara Sandhoefer     : DKH picture change effects                    
  Kantharuban Sivalingam : CASSCF convergence/infrastructure, NEVPT2 and variants, FIC-MRCI 
  Bernardo de Souza      : ESD, SOC TD-DFT                               
  Georgi L. Stoychev     : AutoAux, RI-MP2 NMR, DLPNO-MP2 response, X2C  
  Van Anh Tran           : RI-MP2 g-tensors                              
  Willem Van den Heuvel  : Paramagnetic NMR                              
  Zikuan Wang            : NOTCH, Electric field optimization            
  Frank Wennmohs         : Technical directorship and infrastructure     
  Hang Xu                : AUTO-CI-Response properties                   
                                                                         
[FACCTs GmbH]                                                            
  Markus Bursch, Miquel Garcia-Rates, Christoph Riplinger, Bernardo de Souza, Georgi L. Stoychev 
                                                                 
  APM, Basis sets (HGBS, AHGBS, def-TZVP (Ac-Lr), def2-XVPD (La-Lu)), CI-OPT, improved COSX, DLPNO-Multilevel,           
  DOCKER, DRACO, updates on ESD, GOAT, IRC, LR-CPCM, MBIS, meta-GGA TD-DFT gradient, ML-optimized integration grids, 
  MM, NACMEs, nearIR, NEB, NEB-TS, NL-DFT gradient (VV10), 2- and 3-layer-ONIOM, interface openCOSMO-RS, QMMM,   
  Crystal-QMMM, SF, symmetry and pop. for TD-DFT, r2SCAN hybrids, SOLVATOR                                   
                                                                         
[Other institutions]                                                     
  V. Asgeirsson          : NEB                                           
  Christoph Bannwarth    : sTDA-DFT, sTD-DFT, PBEh-3c, B97-3c, D3        
  Sebastian Ehlert       : rSCAN, r2SCAN, r2SCAN-3c, D4, dhf basis sets  
  Marvin Friede          : D4 for Fr, Ra, Ac-Lr                          
  Lars Goerigk           : TD-DFT with DH, B97 family of functionals     
  Stefan Grimme          : VdW corrections, initial TS optimization, DFT functionals, gCP, sTDA/sTD-DF 
  Waldemar Hujo          : DFT-NL                                        
  H. Jonsson             : NEB                                           
  Holger Kruse           : gCP                                           
  Marcel Mueller         : wB97X-3c, vDZP basis set                      
  Hagen Neugebauer       : wr2SCAN                                       
  Tobias Risthaus        : range-separated hybrid DFT                    
  Lukas Wittmann         : regularized MP2, r2SCAN double-hybrids, wr2SCAN        
                                                                         
We gratefully acknowledge several colleagues who have allowed us to      
interface, adapt or use parts of their codes:                            
  Ed Valeev, F. Pavosevic, A. Kumar             : LibInt (2-el integral package), F12 methods 
  Garnet Chan, S. Sharma, J. Yang, R. Olivares  : DMRG                   
  Ulf Ekstrom                                   : XCFun DFT Library      
  Mihaly Kallay                                 : mrcc  (arbitrary order and MRCC methods)
  Frank Weinhold                                : gennbo (NPA and NBO analysis)           
  Simon Mueller                                 : openCOSMO-RS                            
  Christopher J. Cramer and Donald G. Truhlar   : smd solvation model                     
  S Lehtola, MJT Oliveira, MAL Marques          : LibXC Library                           
  Liviu Ungur et al                             : ANISO software                          


 Your calculation uses the libint2 library for the computation of 2-el integrals
 For citations please refer to: http://libint.valeyev.net

 Your ORCA version has been built with support for libXC version: 6.2.2
 For citations please refer to: https://libxc.gitlab.io

 This ORCA versions uses:
   CBLAS   interface :  Fast vector & matrix operations
   LAPACKE interface :  Fast linear algebra routines
   SCALAPACK package :  Parallel linear algebra routines
   Shared memory     :  Shared parallel matrices
   BLAS/LAPACK       :  OpenBLAS 0.3.27  USE64BITINT DYNAMIC_ARCH NO_AFFINITY Zen SINGLE_THREADED
        Core in use  :  Zen
   Copyright (c) 2011-2014, The OpenBLAS Project


Your calculation utilizes the geometrical counterpoise correction gCP
Please cite in your paper:
H.Kruse, S. Grimme J.Chem.Phys., 136, (2012), 154101 
   

Your calculation utilizes the atom-pairwise dispersion correction
based on EEQ partial charges (D4)


================================================================================

----- Orbital basis set information -----
Your calculation utilizes the basis: def2-SV(P)
   F. Weigend and R. Ahlrichs, Phys. Chem. Chem. Phys. 7, 3297 (2005).

----- AuxJ basis set information -----
Your calculation utilizes the auxiliary basis: def2/J
   F. Weigend, Phys. Chem. Chem. Phys. 8, 1057 (2006).

================================================================================
                                        WARNINGS
                       Please study these warnings very carefully!
================================================================================


================================================================================
                                       INPUT FILE
================================================================================
NAME = sp.inp
|  1> ! pbe def2-sv(p) def2/J RI DEFGRID1 loosescf d4 GCP(DFT/SV(P)) printgap
|  2> %output
|  3>     printlevel normal
|  4> end
|  5> * xyz 0 1
|  6> C -2.0858614988 -1.2163399418 -0.2300443301
|  7> C -1.2699473379 -0.353321664 0.7520580375
|  8> H -1.8780975574 -0.187221524 1.6467408606
|  9> C -0.9425035374 1.0270702386 0.149752652
| 10> H -1.2281190069 1.0314092793 -0.9171366068
| 11> C 0.5671661624 1.2984596163 0.240478272
| 12> H 0.8512851799 1.3883993445 1.2968258352
| 13> C 1.2972088941 0.1156833028 -0.397084353
| 14> H 0.9123470432 -0.0385932486 -1.4152270749
| 15> C 0.9932002163 -1.1499326288 0.4473247144
| 16> H 1.8306161253 -1.3210486613 1.1435481847
| 17> O -0.1161438931 -1.0160251047 1.2639445435
| 18> O 0.854122078 -2.2831049936 -0.3901003107
| 19> O 2.6804968178 0.3191739921 -0.5349071405
| 20> O 0.9066865668 2.5315090515 -0.3421519789
| 21> O -1.6707483237 2.0085971406 0.8419780803
| 22> O -1.4925325796 -1.3408645386 -1.4934640641
| 23> H -3.050798339 -0.72899282 -0.3862057102
| 24> H -2.2471537754 -2.1995123254 0.2283001856
| 25> H 1.6914880046 -2.4354154021 -0.8418982396
| 26> H 2.9947172888 0.8756259834 0.1874477907
| 27> H 0.8034753073 2.4678806998 -1.2999829225
| 28> H -1.261824569 2.865055211 0.6574492899
| 29> H -0.6925663265 -1.8810968767 -1.3769388269
| 30> *
| 31> 
| 32>                          ****END OF INPUT****
================================================================================

                       ****************************
                       * Single Point Calculation *
                       ****************************

---------------------------------
CARTESIAN COORDINATES (ANGSTROEM)
---------------------------------
  C     -2.085861   -1.216340   -0.230044
  C     -1.269947   -0.353322    0.752058
  H     -1.878098   -0.187222    1.646741
  C     -0.942504    1.027070    0.149753
  H     -1.228119    1.031409   -0.917137
  C      0.567166    1.298460    0.240478
  H      0.851285    1.388399    1.296826
  C      1.297209    0.115683   -0.397084
  H      0.912347   -0.038593   -1.415227
  C      0.993200   -1.149933    0.447325
  H      1.830616   -1.321049    1.143548
  O     -0.116144   -1.016025    1.263945
  O      0.854122   -2.283105   -0.390100
  O      2.680497    0.319174   -0.534907
  O      0.906687    2.531509   -0.342152
  O     -1.670748    2.008597    0.841978
  O     -1.492533   -1.340865   -1.493464
  H     -3.050798   -0.728993   -0.386206
  H     -2.247154   -2.199512    0.228300
  H      1.691488   -2.435415   -0.841898
  H      2.994717    0.875626    0.187448
  H      0.803475    2.467881   -1.299983
  H     -1.261825    2.865055    0.657449
  H     -0.692566   -1.881097   -1.376939

----------------------------
CARTESIAN COORDINATES (A.U.)
----------------------------
  NO LB      ZA    FRAG     MASS         X           Y           Z
   0 C     6.0000    0    12.011   -3.941707   -2.298549   -0.434721
   1 C     6.0000    0    12.011   -2.399853   -0.667681    1.421184
   2 H     1.0000    0     1.008   -3.549090   -0.353797    3.111889
   3 C     6.0000    0    12.011   -1.781074    1.940881    0.282992
   4 H     1.0000    0     1.008   -2.320809    1.949081   -1.733137
   5 C     6.0000    0    12.011    1.071789    2.453733    0.454438
   6 H     1.0000    0     1.008    1.608696    2.623695    2.450646
   7 C     6.0000    0    12.011    2.451370    0.218610   -0.750381
   8 H     1.0000    0     1.008    1.724086   -0.072931   -2.674392
   9 C     6.0000    0    12.011    1.876876   -2.173058    0.845321
  10 H     1.0000    0     1.008    3.459363   -2.496420    2.160993
  11 O     8.0000    0    15.999   -0.219480   -1.920009    2.388509
  12 O     8.0000    0    15.999    1.614057   -4.314443   -0.737183
  13 O     8.0000    0    15.999    5.065405    0.603151   -1.010828
  14 O     8.0000    0    15.999    1.713389    4.783859   -0.646574
  15 O     8.0000    0    15.999   -3.157257    3.795699    1.591108
  16 O     8.0000    0    15.999   -2.820478   -2.533867   -2.822238
  17 H     1.0000    0     1.008   -5.765173   -1.377597   -0.729823
  18 H     1.0000    0     1.008   -4.246505   -4.156476    0.431425
  19 H     1.0000    0     1.008    3.196449   -4.602268   -1.590957
  20 H     1.0000    0     1.008    5.659196    1.654693    0.354225
  21 H     1.0000    0     1.008    1.518348    4.663619   -2.456612
  22 H     1.0000    0     1.008   -2.384503    5.414170    1.242399
  23 H     1.0000    0     1.008   -1.308761   -3.554758   -2.602037

--------------------------------
INTERNAL COORDINATES (ANGSTROEM)
--------------------------------
 C      0   0   0     0.000000000000     0.00000000     0.00000000
 C      1   0   0     1.541116973568     0.00000000     0.00000000
 H      2   1   0     1.094483119987   108.16408927     0.00000000
 C      2   1   3     1.541256962564   111.40693572   241.99589393
 H      4   2   1     1.104467163040   109.03045870   351.00666625
 C      4   2   1     1.536550010558   110.11159214   232.58281957
 H      6   4   2     1.097580495951   109.00380087   293.89904750
 C      6   4   2     1.529185501724   107.92820450    53.27663271
 H      8   6   4     1.099333662155   109.12011526    54.32485824
 C      8   6   4     1.551525583290   108.08820797   296.25086281
 H     10   8   6     1.102394313221   108.75336358   262.36563539
 O     10   8   6     1.383995492533   113.53201786    18.29521151
 O     10   8   6     1.415875350998   110.49968579   142.88357651
 O      8   6   4     1.404951622384   113.51049458   172.18086737
 O      6   4   2     1.405397816960   111.58256435   177.97710622
 O      4   2   1     1.404603706284   108.85153052   110.80554644
 O      1   2   3     1.401347567817   113.58723449   171.40206384
 H      1   2   3     1.092243882719   107.99720329    53.45912567
 H      1   2   3     1.096687206744   108.27390788   295.26306835
 H     13  10   8     0.963587839341   108.56982264    62.64158517
 H     14   8   6     0.964453197229   109.32163540    31.85805424
 H     15   6   4     0.965474623046   109.12538201   289.67290120
 H     16   4   2     0.966845353714   107.79821568   162.43346662
 H     17   1   2     0.972304024538   106.83860788    68.83299809

---------------------------
INTERNAL COORDINATES (A.U.)
---------------------------
 C      0   0   0     0.000000000000     0.00000000     0.00000000
 C      1   0   0     2.912289020381     0.00000000     0.00000000
 H      2   1   0     2.068273354975   108.16408927     0.00000000
 C      2   1   3     2.912553561245   111.40693572   241.99589393
 H      4   2   1     2.087140462055   109.03045870   351.00666625
 C      4   2   1     2.903658711029   110.11159214   232.58281957
 H      6   4   2     2.074126547281   109.00380087   293.89904750
 C      6   4   2     2.889741806220   107.92820450    53.27663271
 H      8   6   4     2.077439551274   109.12011526    54.32485824
 C      8   6   4     2.931958442191   108.08820797   296.25086281
 H     10   8   6     2.083223343579   108.75336358   262.36563539
 O     10   8   6     2.615372451468   113.53201786    18.29521151
 O     10   8   6     2.675616653155   110.49968579   142.88357651
 O      8   6   4     2.654973797715   113.51049458   172.18086737
 O      6   4   2     2.655816983264   111.58256435   177.97710622
 O      4   2   1     2.654316331568   108.85153052   110.80554644
 O      1   2   3     2.648163121612   113.58723449   171.40206384
 H      1   2   3     2.064041809789   107.99720329    53.45912567
 H      1   2   3     2.072438475322   108.27390788   295.26306835
 H     13  10   8     1.820917122332   108.56982264    62.64158517
 H     14   8   6     1.822552411748   109.32163540    31.85805424
 H     15   6   4     1.824482626807   109.12538201   289.67290120
 H     16   4   2     1.827072932373   107.79821568   162.43346662
 H     17   1   2     1.837388325286   106.83860788    68.83299809

---------------------
BASIS SET INFORMATION
---------------------
There are 3 groups of distinct atoms

 Group   1 Type C   : 7s4p1d contracted to 3s2p1d pattern {511/31/1}
 Group   2 Type H   : 4s contracted to 2s pattern {31}
 Group   3 Type O   : 7s4p1d contracted to 3s2p1d pattern {511/31/1}

Atom   0C    basis set group =>   1
Atom   1C    basis set group =>   1
Atom   2H    basis set group =>   2
Atom   3C    basis set group =>   1
Atom   4H    basis set group =>   2
Atom   5C    basis set group =>   1
Atom   6H    basis set group =>   2
Atom   7C    basis set group =>   1
Atom   8H    basis set group =>   2
Atom   9C    basis set group =>   1
Atom  10H    basis set group =>   2
Atom  11O    basis set group =>   3
Atom  12O    basis set group =>   3
Atom  13O    basis set group =>   3
Atom  14O    basis set group =>   3
Atom  15O    basis set group =>   3
Atom  16O    basis set group =>   3
Atom  17H    basis set group =>   2
Atom  18H    basis set group =>   2
Atom  19H    basis set group =>   2
Atom  20H    basis set group =>   2
Atom  21H    basis set group =>   2
Atom  22H    basis set group =>   2
Atom  23H    basis set group =>   2
---------------------------------
AUXILIARY/J BASIS SET INFORMATION
---------------------------------
There are 3 groups of distinct atoms

 Group   1 Type C   : 12s5p4d2f1g contracted to 6s4p3d1f1g pattern {711111/2111/211/2/1}
 Group   2 Type H   : 5s2p1d contracted to 3s1p1d pattern {311/2/1}
 Group   3 Type O   : 12s5p4d2f1g contracted to 6s4p3d1f1g pattern {711111/2111/211/2/1}

Atom   0C    basis set group =>   1
Atom   1C    basis set group =>   1
Atom   2H    basis set group =>   2
Atom   3C    basis set group =>   1
Atom   4H    basis set group =>   2
Atom   5C    basis set group =>   1
Atom   6H    basis set group =>   2
Atom   7C    basis set group =>   1
Atom   8H    basis set group =>   2
Atom   9C    basis set group =>   1
Atom  10H    basis set group =>   2
Atom  11O    basis set group =>   3
Atom  12O    basis set group =>   3
Atom  13O    basis set group =>   3
Atom  14O    basis set group =>   3
Atom  15O    basis set group =>   3
Atom  16O    basis set group =>   3
Atom  17H    basis set group =>   2
Atom  18H    basis set group =>   2
Atom  19H    basis set group =>   2
Atom  20H    basis set group =>   2
Atom  21H    basis set group =>   2
Atom  22H    basis set group =>   2
Atom  23H    basis set group =>   2
------------------------------------------------------------------------------
                             ORCA STARTUP CALCULATIONS
                           -- RI-GTO INTEGRALS CHOSEN --
------------------------------------------------------------------------------
------------------------------------------------------------------------------
                   ___                                                        
                  /   \      - P O W E R E D   B Y -                         
                 /     \                                                     
                 |  |  |   _    _      __       _____    __    __             
                 |  |  |  | |  | |    /  \     |  _  \  |  |  /  |          
                  \  \/   | |  | |   /    \    | | | |  |  | /  /          
                 / \  \   | |__| |  /  /\  \   | |_| |  |  |/  /          
                |  |  |   |  __  | /  /__\  \  |    /   |      \           
                |  |  |   | |  | | |   __   |  |    \   |  |\   \          
                \     /   | |  | | |  |  |  |  | |\  \  |  | \   \       
                 \___/    |_|  |_| |__|  |__|  |_| \__\ |__|  \__/        
                                                                              
                      - O R C A' S   B I G   F R I E N D -                    
                                      &                                       
                       - I N T E G R A L  F E E D E R -                       
                                                                              
 v1 FN, 2020, v2 2021, v3 2022-2024                                           
------------------------------------------------------------------------------


----------------------
SHARK INTEGRAL PACKAGE
----------------------

Number of atoms                             ...     24
Number of basis functions                   ...    192
Number of shells                            ...     96
Maximum angular momentum                    ...      2
Integral batch strategy                     ... SHARK/LIBINT Hybrid
RI-J (if used) integral strategy            ... SPLIT-RIJ (Revised 2003 algorithm where possible)
Printlevel                                  ...      1
Contraction scheme used                     ... SEGMENTED contraction
Prescreening option                         ... SCHWARTZ
   Thresh                                   ... 1.000e-09
   Tcut                                     ... 1.000e-10
   Tpresel                                  ... 1.000e-10 
Coulomb Range Separation                    ... NOT USED
Exchange Range Separation                   ... NOT USED
Multipole approximations                    ... NOT USED
Finite Nucleus Model                        ... NOT USED
CABS basis                                  ... NOT available
Auxiliary Coulomb fitting basis             ... AVAILABLE
   # of basis functions in Aux-J            ...    720
   # of shells in Aux-J                     ...    240
   Maximum angular momentum in Aux-J        ...      4
Auxiliary J/K fitting basis                 ... NOT available
Auxiliary Correlation fitting basis         ... NOT available
Auxiliary 'external' fitting basis          ... NOT available

Checking pre-screening integrals            ... done (  0.0 sec) Dimension = 96
Check shell pair data                       ... done (  0.0 sec)
Shell pair information
Shell pair cut-off parameter TPreSel        ...   1.0e-10
Total number of shell pairs                 ...      4656
Shell pairs after pre-screening             ...      4254
Total number of primitive shell pairs       ...     18720
Primitive shell pairs kept                  ...     11503
          la=0 lb=0:   1653 shell pairs
          la=1 lb=0:   1349 shell pairs
          la=1 lb=1:    291 shell pairs
          la=2 lb=0:    625 shell pairs
          la=2 lb=1:    268 shell pairs
          la=2 lb=2:     68 shell pairs

Calculating one electron integrals          ... done (  0.0 sec)
Calculating RI/J V-Matrix + Cholesky decomp.... done (  0.0 sec)
Calculating Nuclear repulsion               ... done (  0.0 sec) ENN=    851.007527938615 Eh

Diagonalization of the overlap matrix:
Smallest eigenvalue                        ... 8.323e-04
Time for diagonalization                   ...    0.003 sec
Threshold for overlap eigenvalues          ... 1.000e-07
Number of eigenvalues below threshold      ... 0
Time for construction of square roots      ...    0.003 sec
Total time needed                          ...    0.008 sec

-------------------
DFT GRID GENERATION
-------------------

General Integration Accuracy     IntAcc      ... 4.159
Radial Grid Type                 RadialGrid  ... OptM3 with GC (2021)
Angular Grid (max. ang.)         AngularGrid ... 3 (Lebedev-194)
Angular grid pruning method      GridPruning ... 4 (adaptive)
Weight generation scheme         WeightScheme... mBecke (2022)
Basis function cutoff            BFCut       ... 1.0000e-10
Integration weight cutoff        WCut        ... 1.0000e-14
Partially contracted basis set               ... off
Rotationally invariant grid construction     ... off
Angular grids for H and He will be reduced by one unit

Total number of grid points                  ...    55639
Total number of batches                      ...      882
Average number of points per batch           ...       63
Average number of grid points per atom       ...     2318
Initializing property integral containers    ... done (  0.0 sec)

SHARK setup successfully completed in   0.6 seconds

Maximum memory used throughout the entire STARTUP-calculation: 28.8 MB
-------------------------------------------------------------------------------
                                 ORCA GUESS
                   Start orbitals & Density for SCF / CASSCF
-------------------------------------------------------------------------------

------------
SCF SETTINGS
------------
Hamiltonian:
 Density Functional     Method          .... DFT(GTOs)
 Exchange Functional    Exchange        .... PBE
   PBE kappa parameter   XKappa         ....  0.804000
   PBE mue parameter    XMuePBE         ....  0.219520
 Correlation Functional Correlation     .... PBE
   PBE beta parameter  CBetaPBE         ....  0.066725
 LDA part of GGA corr.  LDAOpt          .... PW91-LDA
 Gradients option       PostSCFGGA      .... off
   NL short-range parameter             ....  6.400000
 RI-approximation to the Coulomb term is turned on
   Number of AuxJ basis functions       .... 720


General Settings:
 Integral files         IntName         .... sp
 Hartree-Fock type      HFTyp           .... RHF
 Total Charge           Charge          ....    0
 Multiplicity           Mult            ....    1
 Number of Electrons    NEL             ....   96
 Basis Dimension        Dim             ....  192
 Nuclear Repulsion      ENuc            ....    851.0075279386 Eh

Convergence Acceleration:
 AO-DIIS                CNVDIIS         .... on
   Start iteration      DIISMaxIt       ....    12
   Startup error        DIISStart       ....  0.200000
   # of expansion vecs  DIISMaxEq       ....     5
   Bias factor          DIISBfac        ....   1.050
   Max. coefficient     DIISMaxC        ....  10.000
 MO-DIIS                CNVKDIIS        .... off
 Trust-Rad. Augm. Hess. CNVTRAH         .... auto
   Auto Start mean grad. ratio tolernc. ....  1.125000
   Auto Start start iteration           ....    50
   Auto Start num. interpolation iter.  ....    10
   Max. Number of Micro iterations      ....    24
   Max. Number of Macro iterations      .... Maxiter - #DIIS iter
   Number of Davidson start vectors     ....     2
   Converg. threshold    (grad. norm)   ....   1.000e-04
   Grad. Scal. Fac. for Micro threshold ....   0.100
   Minimum threshold for Micro iter.    ....   1.000e-02
   NR start threshold (gradient norm)   ....   1.000e-04
   Initial trust radius                 ....   0.400
   Minimum AH scaling param. (alpha)    ....   1.000
   Maximum AH scaling param. (alpha)    .... 1000.000
   Quad. conv. algorithm                .... NR
   White noise on init. David. guess    .... on
   Maximum white noise                  ....   0.010
   Pseudo random numbers                .... off
   Inactive MOs                         .... canonical
   Orbital update algorithm             .... Taylor
   Preconditioner                       .... Diag
   Full preconditioner red. dimension   ....   250
 SOSCF                  CNVSOSCF        .... on
   Start iteration      SOSCFMaxIt      ....   150
   Startup grad/error   SOSCFStart      ....  0.003300
   Hessian update       SOSCFHessUp     .... L-BFGS
 Level Shifting         CNVShift        .... on
   Level shift para.    LevelShift      ....    0.2500
   Turn off err/grad.   ShiftErr        ....    0.0010
 Zerner damping         CNVZerner       .... off
 Static damping         CNVDamp         .... on
   Fraction old density DampFac         ....    0.7000
   Max. Damping (<1)    DampMax         ....    0.9800
   Min. Damping (>=0)   DampMin         ....    0.0000
   Turn off err/grad.   DampErr         ....    0.1000

SCF Procedure:
 Maximum # iterations   MaxIter         ....   125
 SCF integral mode      SCFMode         .... Direct
   Integral package                     .... SHARK and LIBINT hybrid scheme
 Reset frequency        DirectResetFreq ....    20
 Integral Threshold     Thresh          ....  1.000e-09 Eh
 Primitive CutOff       TCut            ....  1.000e-10 Eh

Convergence Tolerance:
 Convergence Check Mode ConvCheckMode   .... Total+1el-Energy
 Convergence forced     ConvForced      .... 0
 Energy Change          TolE            ....  1.000e-05 Eh
 1-El. energy change                    ....  1.000e-02 Eh
 Orbital Gradient       TolG            ....  1.000e-04
 Orbital Rotation angle TolX            ....  1.000e-04
 DIIS Error             TolErr          ....  5.000e-04

------------------------------
INITIAL GUESS: MODEL POTENTIAL
------------------------------
Loading Hartree-Fock densities                     ... done
Calculating cut-offs                               ... done
Initializing the effective Hamiltonian             ... done
Setting up the integral package (SHARK)            ... done
Starting the Coulomb interaction                   ... done (   0.2 sec)
Making the grid                                    ... done (   0.2 sec)
Mapping shells                                     ... done
Starting the XC term evaluation                    ... done (   0.2 sec)
  promolecular density results
     # of electrons  =     95.992967599
     EX              =    -83.244190075
     EC              =     -3.274537571
     EX+EC           =    -86.518727646
Transforming the Hamiltonian                       ... done (   0.0 sec)
Diagonalizing the Hamiltonian                      ... done (   0.0 sec)
Back transforming the eigenvectors                 ... done (   0.0 sec)
Now organizing SCF variables                       ... done
                      ------------------
                      INITIAL GUESS DONE (   0.6 sec)
                      ------------------
             **** ENERGY FILE WAS UPDATED (sp.en.tmp) ****
Finished Guess after   0.7 sec
Maximum memory used throughout the entire GUESS-calculation: 22.7 MB

-------------------------------------------------------------------------------------------
                                      ORCA LEAN-SCF
                              memory conserving SCF solver
-------------------------------------------------------------------------------------------

----------------------------------------D-I-I-S--------------------------------------------
Iteration    Energy (Eh)           Delta-E    RMSDP     MaxDP     DIISErr   Damp  Time(sec)
-------------------------------------------------------------------------------------------
               ***  Starting incremental Fock matrix formation  ***
    1    -685.5273816444714612     0.00e+00  4.85e-03  1.42e-01  2.26e-01  0.700   0.8
    2    -685.6758074919678165    -1.48e-01  3.14e-03  1.01e-01  9.09e-02  0.700   4.0
                               ***Turning on AO-DIIS***
    3    -685.7226335733421365    -4.68e-02  1.10e-03  2.77e-02  1.95e-02  0.700   0.7
    4    -685.7540560303161783    -3.14e-02  1.41e-03  1.96e-02  1.18e-02  0.000   0.7
    5    -685.8264947222112369    -7.24e-02  4.32e-04  1.42e-02  5.59e-03  0.000   0.7
                              *** Initializing SOSCF ***
---------------------------------------S-O-S-C-F--------------------------------------
Iteration    Energy (Eh)           Delta-E    RMSDP     MaxDP     MaxGrad    Time(sec)
--------------------------------------------------------------------------------------
    6    -685.8268138682303743    -3.19e-04  1.39e-04  3.41e-03  1.07e-03     5.5
               *** Restarting incremental Fock matrix formation ***
    7    -685.8268414706114982    -2.76e-05  9.92e-05  2.62e-03  1.90e-04     2.3
    8    -685.8268407596258385     7.11e-07  4.01e-05  1.22e-03  2.68e-04     0.7
                 **** Energy Check signals convergence ****

               *****************************************************
               *                     SUCCESS                       *
               *           SCF CONVERGED AFTER   8 CYCLES          *
               *****************************************************

             **** ENERGY FILE WAS UPDATED (sp.en.tmp) ****

----------------
TOTAL SCF ENERGY
----------------

Total Energy       :       -685.82684075962584 Eh          -18662.29711 eV

Components:
Nuclear Repulsion  :        851.00752793861534 Eh           23157.09212 eV
Electronic Energy  :      -1536.83436869824118 Eh          -41819.38923 eV
One Electron Energy:      -2630.75133543748643 Eh          -71586.38322 eV
Two Electron Energy:       1093.91696673924525 Eh           29766.99399 eV

Virial components:
Potential Energy   :      -1366.97327424155696 Eh          -37197.23386 eV
Kinetic Energy     :        681.14643348193113 Eh           18534.93675 eV
Virial Ratio       :          2.00687136722389

DFT components:
N(Alpha)           :       48.000051804037 electrons
N(Beta)            :       48.000051804037 electrons
N(Total)           :       96.000103608075 electrons
E(X)               :      -84.609536626770 Eh       
E(C)               :       -3.285372376348 Eh       
E(XC)              :      -87.894909003119 Eh       

---------------
SCF CONVERGENCE
---------------

  Last Energy change         ...   -7.1099e-07  Tolerance :   1.0000e-05
  Last MAX-Density change    ...    1.2177e-03  Tolerance :   1.0000e-03
  Last RMS-Density change    ...    4.0116e-05  Tolerance :   1.0000e-04
  Last DIIS Error            ...    1.0743e-03  Tolerance :   5.0000e-04
  Last Orbital Gradient      ...    2.6836e-04  Tolerance :   1.0000e-04
  Last Orbital Rotation      ...    2.1767e-04  Tolerance :   1.0000e-04


----------------
ORBITAL ENERGIES
----------------

  NO   OCC          E(Eh)            E(eV) 
   0   2.0000     -18.781103      -511.0598 
   1   2.0000     -18.777876      -510.9720 
   2   2.0000     -18.771833      -510.8075 
   3   2.0000     -18.765674      -510.6399 
   4   2.0000     -18.748545      -510.1739 
   5   2.0000     -18.738200      -509.8924 
   6   2.0000      -9.998453      -272.0717 
   7   2.0000      -9.952829      -270.8303 
   8   2.0000      -9.951589      -270.7965 
   9   2.0000      -9.943252      -270.5696 
  10   2.0000      -9.942426      -270.5472 
  11   2.0000      -9.926427      -270.1118 
  12   2.0000      -0.992528       -27.0081 
  13   2.0000      -0.959844       -26.1187 
  14   2.0000      -0.940882       -25.6027 
  15   2.0000      -0.929792       -25.3009 
  16   2.0000      -0.921260       -25.0687 
  17   2.0000      -0.915232       -24.9047 
  18   2.0000      -0.709432       -19.3046 
  19   2.0000      -0.698155       -18.9978 
  20   2.0000      -0.620025       -16.8717 
  21   2.0000      -0.591098       -16.0846 
  22   2.0000      -0.581014       -15.8102 
  23   2.0000      -0.525001       -14.2860 
  24   2.0000      -0.514230       -13.9929 
  25   2.0000      -0.502254       -13.6670 
  26   2.0000      -0.470905       -12.8140 
  27   2.0000      -0.457392       -12.4463 
  28   2.0000      -0.448235       -12.1971 
  29   2.0000      -0.443141       -12.0585 
  30   2.0000      -0.435333       -11.8460 
  31   2.0000      -0.412947       -11.2369 
  32   2.0000      -0.387814       -10.5529 
  33   2.0000      -0.369692       -10.0598 
  34   2.0000      -0.360693        -9.8150 
  35   2.0000      -0.351512        -9.5651 
  36   2.0000      -0.330948        -9.0055 
  37   2.0000      -0.330104        -8.9826 
  38   2.0000      -0.312136        -8.4936 
  39   2.0000      -0.306108        -8.3296 
  40   2.0000      -0.287167        -7.8142 
  41   2.0000      -0.275997        -7.5103 
  42   2.0000      -0.263317        -7.1652 
  43   2.0000      -0.254555        -6.9268 
  44   2.0000      -0.243675        -6.6307 
  45   2.0000      -0.226012        -6.1501 
  46   2.0000      -0.214153        -5.8274 
  47   2.0000      -0.203951        -5.5498 
  48   0.0000       0.014414         0.3922 
  49   0.0000       0.018214         0.4956 
  50   0.0000       0.030132         0.8199 
  51   0.0000       0.047085         1.2813 
  52   0.0000       0.051090         1.3902 
  53   0.0000       0.068652         1.8681 
  54   0.0000       0.075781         2.0621 
  55   0.0000       0.088991         2.4216 
  56   0.0000       0.095912         2.6099 
  57   0.0000       0.103511         2.8167 
  58   0.0000       0.113200         3.0803 
*Only the first 10 virtual orbitals were printed.

                    ********************************
                    * MULLIKEN POPULATION ANALYSIS *
                    ********************************

-----------------------
MULLIKEN ATOMIC CHARGES
-----------------------
   0 C :    0.023080
   1 C :    0.050518
   2 H :    0.083813
   3 C :    0.056112
   4 H :    0.061837
   5 C :    0.006117
   6 H :    0.065580
   7 C :   -0.017996
   8 H :    0.055693
   9 C :    0.230749
  10 H :    0.061183
  11 O :   -0.292039
  12 O :   -0.417512
  13 O :   -0.408086
  14 O :   -0.410575
  15 O :   -0.411011
  16 O :   -0.445598
  17 H :    0.095405
  18 H :    0.086625
  19 H :    0.315902
  20 H :    0.308356
  21 H :    0.304300
  22 H :    0.299401
  23 H :    0.298149
Sum of atomic charges:   -0.0000000

--------------------------------
MULLIKEN REDUCED ORBITAL CHARGES
--------------------------------
  0 C s       :     3.033724  s :     3.033724
      pz      :     0.816089  p :     2.879252
      px      :     1.014169
      py      :     1.048993
      dz2     :     0.018332  d :     0.063944
      dxz     :     0.013587
      dyz     :     0.016773
      dx2y2   :     0.007615
      dxy     :     0.007637

  1 C s       :     3.039433  s :     3.039433
      pz      :     1.049515  p :     2.845504
      px      :     0.848970
      py      :     0.947019
      dz2     :     0.008240  d :     0.064545
      dxz     :     0.016923
      dyz     :     0.009783
      dx2y2   :     0.014332
      dxy     :     0.015267

  2 H s       :     0.916187  s :     0.916187

  3 C s       :     3.054960  s :     3.054960
      pz      :     0.992860  p :     2.821339
      px      :     0.906991
      py      :     0.921488
      dz2     :     0.017898  d :     0.067590
      dxz     :     0.009159
      dyz     :     0.012751
      dx2y2   :     0.014598
      dxy     :     0.013184

  4 H s       :     0.938163  s :     0.938163

  5 C s       :     3.044245  s :     3.044245
      pz      :     1.027937  p :     2.880702
      px      :     1.024518
      py      :     0.828247
      dz2     :     0.015109  d :     0.068936
      dxz     :     0.007582
      dyz     :     0.013090
      dx2y2   :     0.017090
      dxy     :     0.016065

  6 H s       :     0.934420  s :     0.934420

  7 C s       :     3.075957  s :     3.075957
      pz      :     1.109826  p :     2.875412
      px      :     0.767585
      py      :     0.998001
      dz2     :     0.011237  d :     0.066627
      dxz     :     0.014613
      dyz     :     0.008127
      dx2y2   :     0.016902
      dxy     :     0.015748

  8 H s       :     0.944307  s :     0.944307

  9 C s       :     3.007757  s :     3.007757
      pz      :     0.887849  p :     2.661780
      px      :     0.916807
      py      :     0.857124
      dz2     :     0.014521  d :     0.099714
      dxz     :     0.024088
      dyz     :     0.024146
      dx2y2   :     0.023454
      dxy     :     0.013505

 10 H s       :     0.938817  s :     0.938817

 11 O s       :     3.743373  s :     3.743373
      pz      :     1.588077  p :     4.532935
      px      :     1.238363
      py      :     1.706495
      dz2     :     0.002576  d :     0.015732
      dxz     :     0.005808
      dyz     :     0.002271
      dx2y2   :     0.002497
      dxy     :     0.002580

 12 O s       :     3.780980  s :     3.780980
      pz      :     1.579435  p :     4.622016
      px      :     1.460688
      py      :     1.581893
      dz2     :     0.001397  d :     0.014516
      dxz     :     0.003968
      dyz     :     0.002222
      dx2y2   :     0.005131
      dxy     :     0.001797

 13 O s       :     3.772003  s :     3.772003
      pz      :     1.588991  p :     4.620606
      px      :     1.323972
      py      :     1.707642
      dz2     :     0.002660  d :     0.015477
      dxz     :     0.003286
      dyz     :     0.004439
      dx2y2   :     0.003220
      dxy     :     0.001872

 14 O s       :     3.787541  s :     3.787541
      pz      :     1.265323  p :     4.607501
      px      :     1.848610
      py      :     1.493569
      dz2     :     0.007163  d :     0.015533
      dxz     :     0.000897
      dyz     :     0.002058
      dx2y2   :     0.002964
      dxy     :     0.002451

 15 O s       :     3.770823  s :     3.770823
      pz      :     1.740607  p :     4.624652
      px      :     1.680954
      py      :     1.203091
      dz2     :     0.002566  d :     0.015537
      dxz     :     0.002755
      dyz     :     0.002521
      dx2y2   :     0.002422
      dxy     :     0.005274

 16 O s       :     3.786805  s :     3.786805
      pz      :     1.460289  p :     4.643256
      px      :     1.462155
      py      :     1.720812
      dz2     :     0.005658  d :     0.015537
      dxz     :     0.002659
      dyz     :     0.002227
      dx2y2   :     0.000950
      dxy     :     0.004043

 17 H s       :     0.904595  s :     0.904595

 18 H s       :     0.913375  s :     0.913375

 19 H s       :     0.684098  s :     0.684098

 20 H s       :     0.691644  s :     0.691644

 21 H s       :     0.695700  s :     0.695700

 22 H s       :     0.700599  s :     0.700599

 23 H s       :     0.701851  s :     0.701851


------------------------
MULLIKEN OVERLAP CHARGES
------------------------
B(  0-C ,  1-C ) :   0.5527 B(  0-C ,  3-C ) :  -0.0592 B(  0-C , 11-O ) :  -0.1113 
B(  0-C , 16-O ) :   0.6936 B(  0-C , 17-H ) :   0.6671 B(  0-C , 18-H ) :   0.6824 
B(  0-C , 23-H ) :  -0.0800 B(  1-C ,  2-H ) :   0.4994 B(  1-C ,  4-H ) :  -0.1212 
B(  1-C ,  9-C ) :  -0.2138 B(  1-C , 11-O ) :   0.6691 B(  1-C , 15-O ) :  -0.1013 
B(  1-C , 16-O ) :  -0.1556 B(  1-C , 18-H ) :  -0.0664 B(  3-C ,  4-H ) :   0.6670 
B(  3-C ,  5-C ) :   0.3934 B(  3-C ,  7-C ) :  -0.0607 B(  3-C , 11-O ) :  -0.1513 
B(  3-C , 14-O ) :  -0.1259 B(  3-C , 15-O ) :   0.6080 B(  3-C , 22-H ) :  -0.1084 
B(  4-H ,  5-C ) :  -0.0907 B(  4-H , 15-O ) :  -0.0694 B(  5-C ,  6-H ) :   0.5680 
B(  5-C ,  7-C ) :   0.3049 B(  5-C ,  8-H ) :  -0.0695 B(  5-C ,  9-C ) :  -0.1028 
B(  5-C , 11-O ) :   0.0556 B(  5-C , 13-O ) :  -0.0503 B(  5-C , 14-O ) :   0.6493 
B(  5-C , 21-H ) :  -0.1202 B(  6-H , 14-O ) :  -0.0894 B(  7-C ,  8-H ) :   0.5875 
B(  7-C ,  9-C ) :   0.3635 B(  7-C , 11-O ) :  -0.1168 B(  7-C , 12-O ) :  -0.0882 
B(  7-C , 13-O ) :   0.6010 B(  7-C , 14-O ) :  -0.0880 B(  7-C , 20-H ) :  -0.1027 
B(  8-H ,  9-C ) :  -0.0663 B(  8-H , 13-O ) :  -0.0709 B(  9-C , 10-H ) :   0.5938 
B(  9-C , 11-O ) :   0.6339 B(  9-C , 12-O ) :   0.4358 B(  9-C , 13-O ) :  -0.1074 
B( 10-H , 11-O ) :  -0.0534 B( 10-H , 12-O ) :  -0.0611 B( 11-O , 12-O ) :  -0.0960 
B( 12-O , 19-H ) :   0.5000 B( 12-O , 23-H ) :   0.1304 B( 13-O , 20-H ) :   0.5462 
B( 14-O , 21-H ) :   0.5391 B( 14-O , 22-H ) :   0.0525 B( 15-O , 22-H ) :   0.5249 
B( 16-O , 17-H ) :  -0.0613 B( 16-O , 18-H ) :  -0.0529 B( 16-O , 23-H ) :   0.5097 
B( 17-H , 18-H ) :  -0.0635 


                     *******************************
                     * LOEWDIN POPULATION ANALYSIS *
                     *******************************

----------------------
LOEWDIN ATOMIC CHARGES
----------------------
   0 C :   -0.133058
   1 C :   -0.064590
   2 H :    0.129718
   3 C :   -0.076345
   4 H :    0.102622
   5 C :   -0.093827
   6 H :    0.116774
   7 C :   -0.108208
   8 H :    0.110852
   9 C :    0.000092
  10 H :    0.102834
  11 O :   -0.119392
  12 O :   -0.319071
  13 O :   -0.315424
  14 O :   -0.309093
  15 O :   -0.321149
  16 O :   -0.348566
  17 H :    0.119560
  18 H :    0.105476
  19 H :    0.298236
  20 H :    0.289067
  21 H :    0.289394
  22 H :    0.280452
  23 H :    0.263647

-------------------------------
LOEWDIN REDUCED ORBITAL CHARGES
-------------------------------
  0 C s       :     2.921094  s :     2.921094
      pz      :     0.915703  p :     3.066269
      px      :     1.051937
      py      :     1.098629
      dz2     :     0.039348  d :     0.145695
      dxz     :     0.032170
      dyz     :     0.038828
      dx2y2   :     0.017249
      dxy     :     0.018099

  1 C s       :     2.904017  s :     2.904017
      pz      :     1.083263  p :     3.011405
      px      :     0.916076
      py      :     1.012066
      dz2     :     0.016353  d :     0.149168
      dxz     :     0.040658
      dyz     :     0.025246
      dx2y2   :     0.032192
      dxy     :     0.034719

  2 H s       :     0.870282  s :     0.870282

  3 C s       :     2.893720  s :     2.893720
      pz      :     1.051373  p :     3.024858
      px      :     1.004715
      py      :     0.968770
      dz2     :     0.042768  d :     0.157767
      dxz     :     0.018645
      dyz     :     0.029734
      dx2y2   :     0.037386
      dxy     :     0.029234

  4 H s       :     0.897378  s :     0.897378

  5 C s       :     2.892643  s :     2.892643
      pz      :     1.059361  p :     3.039310
      px      :     1.062617
      py      :     0.917332
      dz2     :     0.034889  d :     0.161875
      dxz     :     0.015343
      dyz     :     0.029197
      dx2y2   :     0.043795
      dxy     :     0.038650

  6 H s       :     0.883226  s :     0.883226

  7 C s       :     2.901506  s :     2.901506
      pz      :     1.103961  p :     3.049073
      px      :     0.876913
      py      :     1.068199
      dz2     :     0.026140  d :     0.157629
      dxz     :     0.031052
      dyz     :     0.023045
      dx2y2   :     0.040689
      dxy     :     0.036703

  8 H s       :     0.889148  s :     0.889148

  9 C s       :     2.895679  s :     2.895679
      pz      :     0.967253  p :     2.881911
      px      :     0.967965
      py      :     0.946693
      dz2     :     0.026966  d :     0.222317
      dxz     :     0.056368
      dyz     :     0.060365
      dx2y2   :     0.053218
      dxy     :     0.025400

 10 H s       :     0.897166  s :     0.897166

 11 O s       :     3.457771  s :     3.457771
      pz      :     1.619041  p :     4.631016
      px      :     1.303287
      py      :     1.708688
      dz2     :     0.003979  d :     0.030605
      dxz     :     0.012227
      dyz     :     0.003003
      dx2y2   :     0.005766
      dxy     :     0.005630

 12 O s       :     3.541647  s :     3.541647
      pz      :     1.619135  p :     4.751735
      px      :     1.524365
      py      :     1.608235
      dz2     :     0.002295  d :     0.025689
      dxz     :     0.006799
      dyz     :     0.005004
      dx2y2   :     0.008917
      dxy     :     0.002674

 13 O s       :     3.531182  s :     3.531182
      pz      :     1.639020  p :     4.757013
      px      :     1.394679
      py      :     1.723314
      dz2     :     0.004449  d :     0.027230
      dxz     :     0.005631
      dyz     :     0.006895
      dx2y2   :     0.006615
      dxy     :     0.003640

 14 O s       :     3.535855  s :     3.535855
      pz      :     1.347260  p :     4.746021
      px      :     1.846788
      py      :     1.551973
      dz2     :     0.012851  d :     0.027218
      dxz     :     0.001559
      dyz     :     0.004193
      dx2y2   :     0.004862
      dxy     :     0.003752

 15 O s       :     3.533943  s :     3.533943
      pz      :     1.779554  p :     4.759912
      px      :     1.704782
      py      :     1.275576
      dz2     :     0.003954  d :     0.027294
      dxz     :     0.003867
      dyz     :     0.004990
      dx2y2   :     0.004666
      dxy     :     0.009817

 16 O s       :     3.535431  s :     3.535431
      pz      :     1.530247  p :     4.786343
      px      :     1.510371
      py      :     1.745724
      dz2     :     0.010080  d :     0.026793
      dxz     :     0.005086
      dyz     :     0.003115
      dx2y2   :     0.001715
      dxy     :     0.006796

 17 H s       :     0.880440  s :     0.880440

 18 H s       :     0.894524  s :     0.894524

 19 H s       :     0.701764  s :     0.701764

 20 H s       :     0.710933  s :     0.710933

 21 H s       :     0.710606  s :     0.710606

 22 H s       :     0.719548  s :     0.719548

 23 H s       :     0.736353  s :     0.736353


---------------------------------
LOEWDIN BOND ORDERS (THRESH 0.050000)
---------------------------------
B(  0-C ,  1-C ) :   1.0684 B(  0-C ,  3-C ) :   0.0580 B(  0-C , 11-O ) :   0.0618 
B(  0-C , 16-O ) :   1.2497 B(  0-C , 17-H ) :   0.9056 B(  0-C , 18-H ) :   0.9043 
B(  1-C ,  2-H ) :   0.8692 B(  1-C ,  3-C ) :   1.0082 B(  1-C ,  5-C ) :   0.0542 
B(  1-C ,  9-C ) :   0.0633 B(  1-C , 11-O ) :   1.1203 B(  1-C , 15-O ) :   0.0621 
B(  1-C , 16-O ) :   0.0793 B(  3-C ,  4-H ) :   0.8570 B(  3-C ,  5-C ) :   1.0193 
B(  3-C ,  7-C ) :   0.0641 B(  3-C , 11-O ) :   0.0536 B(  3-C , 14-O ) :   0.0791 
B(  3-C , 15-O ) :   1.2266 B(  5-C ,  6-H ) :   0.8636 B(  5-C ,  7-C ) :   1.0267 
B(  5-C ,  9-C ) :   0.0599 B(  5-C , 13-O ) :   0.0701 B(  5-C , 14-O ) :   1.2227 
B(  5-C , 15-O ) :   0.0781 B(  7-C ,  8-H ) :   0.8606 B(  7-C ,  9-C ) :   1.0023 
B(  7-C , 11-O ) :   0.0594 B(  7-C , 12-O ) :   0.0764 B(  7-C , 13-O ) :   1.2335 
B(  7-C , 14-O ) :   0.0730 B(  9-C , 10-H ) :   0.8814 B(  9-C , 11-O ) :   1.2467 
B(  9-C , 12-O ) :   1.1902 B(  9-C , 13-O ) :   0.0859 B( 11-O , 12-O ) :   0.0749 
B( 12-O , 19-H ) :   0.8681 B( 12-O , 23-H ) :   0.1085 B( 13-O , 20-H ) :   0.8804 
B( 14-O , 21-H ) :   0.8796 B( 15-O , 22-H ) :   0.8702 B( 16-O , 23-H ) :   0.8374 


------------------------------------------
LOEWDIN REDUCED ORBITAL POPULATIONS PER MO
-------------------------------------------
THRESHOLD FOR PRINTING IS 0.1%%
                      0         1         2         3         4         5   
                 -18.78110 -18.77788 -18.77183 -18.76567 -18.74855 -18.73820
                   2.00000   2.00000   2.00000   2.00000   2.00000   2.00000
                  --------  --------  --------  --------  --------  --------
11 O  s               0.0      99.9       0.0       0.0       0.0       0.0
12 O  s              99.9       0.0       0.0       0.0       0.0       0.0
13 O  s               0.0       0.0       0.0      99.9       0.0       0.0
14 O  s               0.0       0.0      99.9       0.0       0.0       0.0
15 O  s               0.0       0.0       0.0       0.0      99.9       0.0
16 O  s               0.0       0.0       0.0       0.0       0.0      99.9

                      6         7         8         9        10        11   
                  -9.99845  -9.95283  -9.95159  -9.94325  -9.94243  -9.92643
                   2.00000   2.00000   2.00000   2.00000   2.00000   2.00000
                  --------  --------  --------  --------  --------  --------
 0 C  s               0.0       0.0       0.0       0.0       0.0      99.6
 1 C  s               0.0       0.0       0.0      99.5       0.1       0.0
 3 C  s               0.0       0.0       0.0       0.1      99.5       0.0
 3 C  px              0.0       0.1       0.0       0.0       0.0       0.0
 5 C  s               0.0      99.6       0.0       0.0       0.0       0.0
 5 C  px              0.0       0.0       0.0       0.0       0.1       0.0
 7 C  s               0.0       0.0      99.6       0.0       0.0       0.0
 9 C  s              99.6       0.0       0.0       0.0       0.0       0.0
13 O  px              0.0       0.0       0.1       0.0       0.0       0.0

                     12        13        14        15        16        17   
                  -0.99253  -0.95984  -0.94088  -0.92979  -0.92126  -0.91523
                   2.00000   2.00000   2.00000   2.00000   2.00000   2.00000
                  --------  --------  --------  --------  --------  --------
 0 C  s               0.6       0.0       0.4       0.3       0.0      10.0
 0 C  pz              0.0       0.0       0.0       0.0       0.1       7.1
 0 C  px              0.4       0.0       0.1       0.1       0.0       1.9
 0 C  py              0.0       0.0       0.0       0.0       0.0       0.1
 0 C  dz2             0.0       0.0       0.0       0.0       0.0       0.4
 0 C  dxz             0.0       0.0       0.0       0.0       0.0       0.5
 1 C  s               4.1       0.0       2.1       2.7       0.0       0.1
 1 C  pz              0.1       0.1       0.0       0.1       0.2       1.1
 1 C  px              2.8       0.1       0.5       1.3       0.5       0.6
 1 C  py              0.7       0.4       0.0       0.4       1.4       0.2
 1 C  dxy             0.1       0.0       0.0       0.1       0.0       0.0
 2 H  s               0.5       0.0       0.4       0.4       0.0       0.0
 3 C  s               0.8       2.1       3.3       0.2       5.5       0.0
 3 C  pz              0.1       0.1       0.6       0.1       1.4       0.1
 3 C  px              0.1       0.4       0.2       0.1       2.6       0.0
 3 C  py              0.2       1.1       0.5       0.4       3.7       0.2
 3 C  dxz             0.0       0.0       0.0       0.0       0.1       0.0
 3 C  dyz             0.0       0.0       0.0       0.0       0.3       0.0
 3 C  dxy             0.0       0.0       0.0       0.0       0.3       0.0
 4 H  s               0.1       0.3       0.4       0.0       0.6       0.0
 5 C  s               1.0       9.1       0.6       0.3       0.4       0.0
 5 C  pz              0.0       1.7       0.0       0.2       0.4       0.0
 5 C  px              0.0       0.3       1.2       0.0       1.2       0.0
 5 C  py              0.2       3.2       1.2       2.0       1.1       0.0
 5 C  dyz             0.0       0.2       0.1       0.1       0.1       0.0
 5 C  dx2y2           0.0       0.2       0.0       0.0       0.1       0.0
 6 H  s               0.2       1.1       0.1       0.0       0.0       0.0
 7 C  s               2.7       3.5       4.4       1.0       0.1       0.0
 7 C  pz              0.5       0.0       0.1       0.0       0.0       0.0
 7 C  px              0.0       1.1       6.4       1.5       0.5       0.0
 7 C  py              0.6       2.0       0.0       0.1       0.1       0.0
 7 C  dz2             0.0       0.1       0.1       0.0       0.0       0.0
 7 C  dx2y2           0.0       0.1       0.3       0.2       0.0       0.0
 8 H  s               0.5       0.4       0.5       0.0       0.0       0.0
 9 C  s              15.6       0.4       0.2       0.1       0.0       0.4
 9 C  pz              0.0       0.0       2.1       4.3       1.0       0.1
 9 C  px              2.9       0.4       1.6       1.2       0.6       0.1
 9 C  py              0.7       1.0       0.1       5.2       0.3       0.0
 9 C  dxz             0.2       0.0       0.1       0.2       0.0       0.0
 9 C  dyz             0.2       0.1       0.0       0.3       0.0       0.0
 9 C  dx2y2           0.0       0.0       0.1       0.4       0.1       0.0
10 H  s               1.9       0.0       0.1       0.0       0.0       0.1
11 O  s              27.0       1.3       5.9      14.0       4.3       1.6
11 O  pz              1.9       0.1       0.2       0.4       0.1       0.0
11 O  px              0.2       0.0       0.1       0.1       0.0       0.1
11 O  py              0.1       0.0       0.1       0.3       0.0       0.0
12 O  s              21.0       2.5       4.6      30.2       2.4       0.0
12 O  pz              0.2       0.0       0.0       0.0       0.0       0.0
12 O  px              0.4       0.1       0.2       1.3       0.1       0.0
12 O  py              1.0       0.1       0.1       0.2       0.0       0.0
13 O  s               2.0      11.7      32.2      10.4       2.2       0.0
13 O  pz              0.1       0.3       0.9       0.3       0.1       0.0
13 O  px              0.2       0.4       0.7       0.2       0.0       0.0
13 O  py              0.0       0.1       0.2       0.1       0.0       0.0
14 O  s               0.8      35.6       4.1       7.6      10.8       0.1
14 O  pz              0.0       0.3       0.0       0.1       0.2       0.0
14 O  px              0.0       0.2       0.1       0.0       0.0       0.0
14 O  py              0.1       1.8       0.1       0.2       0.3       0.0
15 O  s               0.4       3.9      10.4       0.2      42.3       0.7
15 O  pz              0.0       0.1       0.3       0.0       0.8       0.0
15 O  px              0.0       0.2       0.5       0.0       1.5       0.0
16 O  s               0.6       0.1       0.5       0.2       0.2      56.8
16 O  pz              0.1       0.0       0.0       0.0       0.0       2.9
16 O  px              0.0       0.0       0.0       0.0       0.0       0.2
16 O  py              0.0       0.0       0.0       0.0       0.0       0.3
17 H  s               0.1       0.0       0.0       0.0       0.0       1.2
18 H  s               0.1       0.0       0.1       0.0       0.0       1.1
19 H  s               4.0       0.4       1.1       6.5       0.6       0.0
20 H  s               0.4       2.6       6.4       2.1       0.4       0.0
21 H  s               0.2       7.2       0.8       1.5       2.2       0.0
22 H  s               0.1       1.2       2.2       0.0       8.1       0.1
23 H  s               0.7       0.1       0.0       0.1       0.1      11.3

                     18        19        20        21        22        23   
                  -0.70943  -0.69816  -0.62003  -0.59110  -0.58101  -0.52500
                   2.00000   2.00000   2.00000   2.00000   2.00000   2.00000
                  --------  --------  --------  --------  --------  --------
 0 C  s               1.4       4.5      13.2       0.5       9.6       1.5
 0 C  pz              0.8       2.6       1.3       0.2       0.1       2.5
 0 C  px              0.0       0.1       0.5       0.2       1.3       1.6
 0 C  py              0.8       0.8       0.3       0.3       0.4       0.0
 1 C  s               6.7      14.7       1.4       0.4       0.7       4.5
 1 C  pz              1.1       0.0       1.7       3.4       0.1       2.0
 1 C  px              0.1       0.6       5.0       0.9       1.0       0.4
 1 C  py              2.2       0.2       1.1       3.4       5.1       0.0
 1 C  dyz             0.0       0.0       0.1       0.0       0.1       0.0
 1 C  dxy             0.1       0.0       0.1       0.1       0.0       0.0
 2 H  s               1.2       3.6       0.4       0.3       0.2       3.8
 3 C  s              11.8       0.7       1.3       7.4       4.5       1.3
 3 C  pz              0.0       0.2       0.0       0.4       0.1       3.6
 3 C  px              2.6       1.6       3.0       0.1       2.0       0.1
 3 C  py              3.2       2.1       0.4       0.0       1.3       0.4
 4 H  s               2.4       0.1       0.1       2.6       1.8       2.4
 5 C  s              12.5       2.9       5.1       0.0       7.0       0.2
 5 C  pz              0.0       0.0       1.1       0.5       2.1       2.3
 5 C  px              1.1       0.5       0.8       3.4       2.3       1.4
 5 C  py              4.4       1.7       0.2       0.8       1.1       2.2
 5 C  dyz             0.1       0.1       0.0       0.0       0.0       0.0
 6 H  s               2.4       0.7       2.0       0.0       4.5       1.1
 7 C  s               6.7       8.9       3.3       8.1       0.4       0.2
 7 C  pz              0.2       0.9       0.1       2.2       1.5       1.0
 7 C  px              3.2       1.9       0.1       0.0       0.1       0.1
 7 C  py              0.6       0.4       4.1       0.1       2.6       1.3
 8 H  s               1.7       1.8       1.0       4.0       1.0       0.5
 9 C  s               0.1       9.7       6.0       4.0       0.2       2.2
 9 C  pz              2.1       0.1       0.5       3.4       0.8       3.8
 9 C  px              0.6       0.2       1.2       0.2       0.1       0.9
 9 C  py              1.6       2.5       0.4       2.4       0.2       1.6
 9 C  dxz             0.1       0.0       0.0       0.0       0.0       0.3
 9 C  dyz             0.0       0.1       0.1       0.0       0.0       0.0
 9 C  dx2y2           0.1       0.0       0.0       0.0       0.0       0.1
10 H  s               0.0       2.2       1.8       2.3       0.0       0.5
11 O  s               3.6       0.1       1.7       0.7       0.1       2.2
11 O  pz              0.1       0.2       0.5       0.4       0.0       0.3
11 O  px              1.4      11.6       0.7      11.2       0.1       4.3
11 O  py              0.9       0.7       0.3       1.6       0.4       0.1
11 O  dxz             0.0       0.1       0.0       0.1       0.0       0.0
12 O  s               0.0       2.1       1.2       0.1       0.2       0.1
12 O  pz              0.1       1.1       1.9       4.2       0.0       7.4
12 O  px              0.1       0.5       0.1       0.7       0.1       4.7
12 O  py              0.0       1.4       2.4       1.1       0.4       9.2
12 O  dx2y2           0.0       0.0       0.0       0.0       0.0       0.1
13 O  s               1.7       2.4       0.5       0.9       0.0       0.0
13 O  pz              0.1       0.2       0.4       1.7       0.4       0.5
13 O  px              1.1       1.8       2.1       7.4       0.4       0.3
13 O  py              0.1       0.5       1.2       1.3       0.7       0.0
14 O  s               2.9       0.7       0.8       0.0       0.5       0.3
14 O  pz              1.5       0.4       3.3       0.1      11.4       5.5
14 O  px              0.1       0.0       0.1       0.1       0.0       0.1
14 O  py              1.2       0.3       1.3       0.0       3.5       0.3
15 O  s               3.6       0.2       0.5       1.4       0.2       0.1
15 O  pz              0.1       0.0       0.0       0.6       0.3       0.6
15 O  px              0.1       0.0       0.2       0.2       0.0       0.0
15 O  py              2.5       0.5       0.2       5.3       5.4       0.0
16 O  s               0.8       1.4       2.2       0.1       1.0       0.1
16 O  pz              0.1       0.4       2.1       0.2       2.0       1.1
16 O  px              0.1       0.3       2.8       0.5       3.8       5.1
16 O  py              0.1       0.2       0.8       0.2       0.3       1.0
17 H  s               0.4       1.0       4.4       0.4       3.5       1.4
18 H  s               0.2       0.9       3.3       0.0       3.6       0.3
19 H  s               0.0       1.4       1.2       1.5       0.1       6.2
20 H  s               0.7       1.3       1.3       3.2       0.4       0.2
21 H  s               1.4       0.4       1.6       0.0       4.6       1.5
22 H  s               1.7       0.2       0.2       2.0       1.7       0.0
23 H  s               0.3       0.5       2.2       0.4       1.8       2.1

                     24        25        26        27        28        29   
                  -0.51423  -0.50225  -0.47090  -0.45739  -0.44823  -0.44314
                   2.00000   2.00000   2.00000   2.00000   2.00000   2.00000
                  --------  --------  --------  --------  --------  --------
 0 C  s               0.1       0.0       0.1       0.1       1.4       0.5
 0 C  pz              0.2       0.1       1.7       9.9       6.4       1.1
 0 C  px              0.3       0.1       0.2       1.5       1.5       0.1
 0 C  py              0.2       0.0       0.0       1.2      13.6       1.2
 0 C  dz2             0.0       0.0       0.0       0.1       0.1       0.1
 1 C  s               0.6       0.3       0.0       1.6       0.8       0.5
 1 C  pz              2.4       0.2       0.1       2.9       3.7       3.5
 1 C  px              0.5       0.5       4.1       4.5       0.3       0.5
 1 C  py              2.0       0.0       0.6       0.5       2.8       0.4
 2 H  s               1.8       0.0       0.7       0.3       0.1       2.6
 3 C  s               0.2       0.7       0.6       0.1       0.3       0.0
 3 C  pz              4.6       0.0       3.2       7.9       0.4       0.3
 3 C  px              1.5       2.0       6.3       0.1       4.0       0.6
 3 C  py              0.2       1.9       0.2       1.1       6.8       0.5
 3 C  dxz             0.0       0.0       0.2       0.0       0.0       0.0
 3 C  dx2y2           0.0       0.0       0.0       0.0       0.2       0.0
 3 C  dxy             0.0       0.0       0.1       0.1       0.0       0.0
 4 H  s               1.3       0.4       1.3       2.8       0.2       0.1
 5 C  s               0.0       0.0       0.1       0.1       0.5       0.8
 5 C  pz              3.9       0.0       0.1       2.9       0.2       2.0
 5 C  px              1.3       0.0      11.2       0.0       5.3       0.2
 5 C  py              0.1       8.3       2.6       0.7       1.0       3.0
 5 C  dx2y2           0.0       0.0       0.0       0.0       0.2       0.1
 6 H  s               1.2       0.0       0.2       1.1       0.1       0.0
 7 C  s               0.0       0.0       0.8       0.1       0.0       0.0
 7 C  pz              5.8       7.6       0.1       0.1       0.1       0.1
 7 C  px              1.9       8.1       1.1       0.0       0.1       0.2
 7 C  py              1.3       0.0       8.3       0.1       0.0      12.7
 7 C  dyz             0.0       0.0       0.1       0.0       0.0       0.1
 7 C  dx2y2           0.0       0.2       0.0       0.0       0.0       0.0
 7 C  dxy             0.0       0.0       0.0       0.0       0.0       0.1
 8 H  s               1.9       0.5       0.2       0.1       0.1       0.1
 9 C  s               1.3       0.2       0.6       0.2       0.0       0.0
 9 C  pz              4.6       0.6       1.1       5.3       0.4       5.0
 9 C  px             12.0       0.1       6.4       0.5       1.6       3.4
 9 C  py              3.8       3.4       0.0       0.2       0.2      11.6
 9 C  dxz             0.0       0.1       0.0       0.0       0.0       0.1
 9 C  dx2y2           0.0       0.1       0.0       0.1       0.0       0.1
10 H  s               6.9       0.0       1.6       2.3       0.9       3.6
11 O  s               0.0       1.4       0.0       0.1       0.1       0.3
11 O  pz              2.6       0.8       0.2       0.0       1.9       6.1
11 O  px              0.7       0.1       5.2       3.3       0.5       0.5
11 O  py              2.0       2.4       1.3       1.2       0.4       0.8
12 O  s               0.7       0.0       1.2       0.2       0.0       0.1
12 O  pz              3.3       0.6       0.3       1.7       0.0      11.1
12 O  px             11.7       0.1       3.3       0.6       0.1       0.1
12 O  py              3.2       0.0       1.6       2.7       0.0       0.1
13 O  s               0.3       0.3       0.7       0.0       0.0       0.2
13 O  pz              0.5       7.9       0.3       0.0       0.0       0.1
13 O  px              0.3      11.7       0.2       0.0       0.0       1.9
13 O  py              0.8       4.6       3.9       0.0       0.3       0.9
14 O  s               0.6       0.0       0.0       0.0       0.7       1.8
14 O  pz              0.3       9.5       1.0       1.7       6.1       5.9
14 O  px              0.3       0.2       3.4       0.3       1.3       0.1
14 O  py              0.3       2.1       0.3       1.2       0.6       1.2
15 O  s               0.0       0.2       1.4       0.1       0.5       0.0
15 O  pz              0.2       0.7       0.2       0.1       0.3       0.3
15 O  px              0.1       0.1       1.8       0.2       2.3       0.1
15 O  py              2.9       8.2      10.1       9.6       1.7       3.2
16 O  s               0.7       0.0       0.1       0.2       0.5       1.1
16 O  pz              0.2       0.0       0.3       1.8       0.4       0.3
16 O  px              0.2       0.1       2.1      14.9       3.4       1.6
16 O  py              0.0       0.0       1.0       1.3       8.7       0.8
17 H  s               0.0       0.0       0.1       0.3       0.1       0.0
18 H  s               0.2       0.0       0.3       0.0      11.2       1.5
19 H  s               4.7       0.1       0.0       1.1       0.1       0.8
20 H  s               0.1       6.6       0.3       0.0       0.1       0.1
21 H  s               0.0       3.2       0.2       0.8       1.8       1.1
22 H  s               0.7       2.5       3.0       2.7       0.5       0.7
23 H  s               0.1       0.0       1.5       4.3       2.7       0.8

                     30        31        32        33        34        35   
                  -0.43533  -0.41295  -0.38781  -0.36969  -0.36069  -0.35151
                   2.00000   2.00000   2.00000   2.00000   2.00000   2.00000
                  --------  --------  --------  --------  --------  --------
 0 C  s               0.0       0.0       0.1       0.0       0.1       0.2
 0 C  pz              0.1       0.1       0.2       0.8       0.0       1.8
 0 C  px              0.2       7.5      16.9       2.3       2.5       6.6
 0 C  py              0.4       0.8       3.5       6.8       8.6       2.4
 0 C  dz2             0.0       0.0       0.0       0.0       0.1       0.2
 0 C  dxz             0.0       0.0       0.0       0.0       0.0       0.1
 0 C  dxy             0.0       0.0       0.1       0.0       0.0       0.0
 1 C  s               0.3       0.2       0.4       0.1       0.2       0.1
 1 C  pz              2.9       4.3       3.0       0.8       0.2       4.7
 1 C  px              0.1       2.8       1.0       2.6       4.9       2.6
 1 C  py              2.1       4.6       0.1       6.3       3.6       0.4
 1 C  dz2             0.0       0.0       0.0       0.0       0.0       0.3
 1 C  dxz             0.0       0.1       0.0       0.1       0.0       0.1
 1 C  dyz             0.0       0.0       0.1       0.0       0.2       0.0
 1 C  dx2y2           0.0       0.0       0.2       0.0       0.0       0.0
 1 C  dxy             0.2       0.1       0.0       0.0       0.0       0.0
 2 H  s               0.2       5.0       0.8       0.1       1.8       5.4
 3 C  s               0.0       0.3       0.1       0.2       0.8       0.1
 3 C  pz              3.4       4.7       6.7       0.4       1.7       1.0
 3 C  px              3.0       2.8       1.0       0.2       1.5       0.1
 3 C  py              3.6       0.5       0.7       3.0       6.5       0.2
 3 C  dxz             0.1       0.0       0.1       0.1       0.1       0.0
 3 C  dyz             0.0       0.0       0.0       0.2       0.1       0.0
 3 C  dxy             0.1       0.1       0.0       0.0       0.0       0.0
 4 H  s               1.5       3.1       5.3       0.3       2.9       0.9
 5 C  s               0.2       0.0       0.1       0.5       0.4       0.3
 5 C  pz             11.4       0.2       1.1      12.7       2.4       0.2
 5 C  px              1.2       4.0       0.4       0.3       2.1       0.0
 5 C  py              0.6       0.5       0.0       0.6       0.3       0.0
 5 C  dz2             0.1       0.0       0.0       0.3       0.0       0.0
 5 C  dyz             0.0       0.0       0.0       0.2       0.1       0.0
 5 C  dx2y2           0.1       0.0       0.0       0.1       0.0       0.0
 5 C  dxy             0.0       0.1       0.0       0.0       0.2       0.0
 6 H  s               4.4       0.2       0.6      10.7       1.5       0.1
 7 C  s               0.7       0.1       0.1       0.2       0.1       0.7
 7 C  pz              0.3      11.1       4.5       3.3       3.4       0.0
 7 C  px              5.6       4.1       0.9       1.1       0.4       0.3
 7 C  py              0.2       1.5       0.5       0.2       0.2       0.8
 7 C  dz2             0.0       0.1       0.0       0.2       0.1       0.1
 7 C  dxz             0.2       0.0       0.0       0.0       0.0       0.1
 7 C  dyz             0.0       0.0       0.0       0.1       0.0       0.0
 7 C  dx2y2           0.4       0.0       0.0       0.0       0.0       0.0
 8 H  s               2.1       7.2       1.6       4.6       2.1       1.1
 9 C  s               0.4       0.0       0.1       0.1       0.1       0.1
 9 C  pz              1.0       0.1       1.8       0.0       0.2       0.6
 9 C  px              2.7       1.1       0.6       0.1       0.9       0.2
 9 C  py              0.1       0.0       1.3       0.8       1.8       1.3
 9 C  dz2             0.0       0.2       0.0       0.0       0.0       0.1
 9 C  dxy             0.0       0.0       0.1       0.0       0.1       0.2
10 H  s               0.7       0.2       2.1       0.0       0.5       0.1
11 O  s               0.7       0.0       0.8       0.7       0.1       0.0
11 O  pz              2.0       1.2       2.2       1.3       1.7       7.6
11 O  px              4.0       5.2       0.1       0.4       0.1       0.9
11 O  py              0.1       0.2       0.3       7.1       1.6       0.2
12 O  s               0.9       0.1       0.9       1.0       0.1       2.9
12 O  pz              0.0       0.4       0.5       0.0       1.4       0.9
12 O  px              3.0       0.1       4.6       3.3       1.0      14.7
12 O  py              1.2       0.1       0.3       0.7       0.3       4.4
13 O  s               0.9       1.1       0.3       0.0       0.0       0.2
13 O  pz              3.8       3.0       2.2       0.6       1.8       1.0
13 O  px              6.1       7.2       1.5       1.9       0.5       0.1
13 O  py              3.5       0.1       0.3       0.3       0.9       0.0
14 O  s               0.2       0.0       0.1       0.0       2.1       0.7
14 O  pz              1.8       0.4       0.0       0.7       3.0       1.6
14 O  px              0.0       1.2       0.0       0.7       9.1       0.0
14 O  py              5.7       0.0       1.5       8.0       6.4       4.8
15 O  s               0.1       0.0       0.7       0.2       0.2       0.7
15 O  pz              2.0       3.0       3.1       1.4       0.0       0.7
15 O  px              0.6       0.4       0.0       0.7       3.9       0.3
15 O  py              4.6       0.7       1.4       0.6       1.3       0.6
16 O  s               0.1       0.5       0.7       0.1       0.2       0.8
16 O  pz              0.1       2.7       9.8       0.1       0.1      12.2
16 O  px              0.3       0.2       0.0       1.3       0.0       2.3
16 O  py              0.0       0.0       0.1       3.9       4.1       0.0
16 O  dz2             0.0       0.0       0.1       0.0       0.0       0.1
17 H  s               0.0       3.0       9.6       0.1       0.1       5.9
18 H  s               0.1       0.1       0.5       2.4       5.5       0.0
19 H  s               0.1       0.1       0.6       0.4       0.0       1.0
20 H  s               3.7       0.3       0.0       0.3       0.1       0.3
21 H  s               1.2       0.1       0.0       1.0       0.4       0.2
22 H  s               1.6       0.3       0.4       0.1       0.3       0.4
23 H  s               0.2       0.1       0.6       0.1       0.2       0.4

                     36        37        38        39        40        41   
                  -0.33095  -0.33010  -0.31214  -0.30611  -0.28717  -0.27600
                   2.00000   2.00000   2.00000   2.00000   2.00000   2.00000
                  --------  --------  --------  --------  --------  --------
[...]
 5 C  dxz             0.1       0.0       0.0       0.1       0.3       0.0
 5 C  dyz             0.1       0.8       1.4       0.5       2.5       0.1
 5 C  dx2y2           0.2       0.5       4.2       0.5       0.7       0.0
 5 C  dxy             0.1       0.6       1.0       0.8       0.1       0.0
 7 C  s               0.2       0.1       0.0       1.2       0.8       0.1
 7 C  px              0.3       0.2       0.1       2.5       0.7       0.2
 7 C  py              0.1       0.1       0.0       0.0       0.1       0.0
 7 C  dz2             0.0       0.3       0.3       1.0       1.0       0.3
 7 C  dxz             0.1       0.0       0.3       0.5       0.0       0.0
 7 C  dyz             0.0       0.2       0.0       0.0       0.0       0.0
 7 C  dx2y2           0.9       0.1       0.3       6.5       1.9       0.3
 7 C  dxy             0.1       0.0       0.0       0.9       0.0       0.1
 8 H  s               0.0       0.0       0.0       0.1       0.0       0.0
 9 C  s               0.2       1.0       0.4       0.2       0.2       1.0
 9 C  pz              0.2       0.6       0.2       0.0       0.0       1.6
 9 C  px              0.0       0.2       0.1       0.0       0.0       1.8
 9 C  py              0.4       0.8       0.2       0.0       0.0       0.3
 9 C  dz2             0.0       0.0       0.5       0.1       0.0       0.1
 9 C  dxz             0.3       0.1       0.2       0.8       0.0       4.3
 9 C  dyz             2.2       4.3       1.2       0.1       0.0       0.0
 9 C  dx2y2           0.8       1.2       0.5       0.1       0.1       4.1
 9 C  dxy             0.1       0.0       0.0       0.3       0.0       0.4
11 O  s               0.3       0.7       0.4       0.1       0.2       0.2
11 O  pz              0.0       0.1       0.0       0.0       0.0       0.3
11 O  px              0.0       0.3       0.2       0.1       0.1       5.4
11 O  py              0.0       0.0       0.0       0.1       0.1       0.6
11 O  dz2             0.1       0.2       1.7       0.1       0.2       2.1
11 O  dxz             0.0       1.7       0.9       1.0       0.3      49.4
11 O  dyz             0.0       0.0       0.1       0.7       0.7       3.5
11 O  dx2y2           0.2       2.0       1.7       0.9       0.0       2.9
11 O  dxy             5.0       7.3       3.6       0.9       0.5       3.2
12 O  s               0.4       2.1       0.4       0.0       0.1       0.2
12 O  pz              0.5       0.6       0.3       0.0       0.0       0.3
12 O  px              0.0       0.2       0.0       0.0       0.0       0.1
12 O  py              0.4       1.1       0.2       0.0       0.0       0.3
12 O  dz2             0.0       0.0       0.1       0.0       0.0       0.2
12 O  dxz             0.4       0.6       0.1       0.3       0.0       0.1
12 O  dyz             7.2      14.8       5.1       0.0       0.2       2.8
12 O  dx2y2           4.4       9.1       1.7       0.0       0.1       2.1
12 O  dxy             0.4       0.4       0.0       0.1       0.0       0.0
13 O  s               0.3       0.1       0.0       3.1       1.4       0.4
13 O  px              0.4       0.1       0.0       2.7       1.0       0.2
13 O  py              0.0       0.0       0.0       0.2       0.1       0.1
13 O  dz2             1.0       0.9       0.2       9.7       3.7       0.6
13 O  dxz             0.2       0.1       0.4       1.2       1.3       0.4
13 O  dyz             0.0       0.2       0.0       0.3       0.0       0.1
13 O  dx2y2           4.1       1.3       0.0      27.9       8.2       0.7
13 O  dxy             0.1       0.1       0.3       1.3       0.5       0.6
14 O  s               0.2       0.9       1.9       0.4       2.3       0.0
14 O  pz              0.1       0.3       0.7       0.2       0.5       0.0
14 O  py              0.1       0.5       1.2       0.2       0.9       0.0
14 O  dz2             0.3       1.4       1.6       0.2       3.7       0.0
14 O  dxz             0.1       0.3       0.9       0.1       0.7       0.0
14 O  dyz             0.7       4.0      11.0       3.1       4.6       0.0
14 O  dx2y2           1.4       4.2       9.6       1.4       6.1       0.1
14 O  dxy             0.1       1.3       3.3       1.1       2.6       0.0
15 O  s               0.5       0.0       1.3       0.5       2.8       0.0
15 O  pz              0.1       0.0       0.2       0.0       0.3       0.0
15 O  px              0.1       0.0       0.2       0.1       0.3       0.0
15 O  py              0.4       0.0       1.1       0.3       1.9       0.0
15 O  dz2             0.0       0.0       0.0       0.3       1.0       0.0
15 O  dxz             1.3       0.1       3.6       0.9       4.9       0.0
15 O  dyz             3.0       0.0       8.5       1.2      10.3       0.0
15 O  dx2y2           0.1       0.1       0.7       0.0       0.5       0.0
15 O  dxy             3.9       0.0      10.0       2.5      13.8       0.0
16 O  s               1.3       1.0       0.1       0.4       0.1       0.0
16 O  pz              1.4       0.7       0.1       0.4       0.1       0.0
16 O  px              1.1       0.4       0.1       0.5       0.0       0.0
16 O  py              0.2       0.1       0.0       0.1       0.0       0.0
16 O  dz2            20.6      11.5       0.9       6.6       0.3       0.0
16 O  dxz            15.8       7.0       0.8       5.3       0.2       0.0
16 O  dyz             0.7       0.8       0.1       0.3       0.2       0.1
16 O  dx2y2           0.4       0.2       0.0       0.0       0.0       0.0
16 O  dxy             0.1       0.1       0.0       0.2       0.0       0.0
19 H  s               0.1       0.3       0.1       0.0       0.0       0.2
20 H  s               0.0       0.1       0.0       0.4       0.2       0.0
21 H  s               0.0       0.1       0.2       0.0       0.3       0.0
22 H  s               0.1       0.0       0.3       0.1       0.3       0.0
23 H  s               0.7       0.4       0.0       0.3       0.0       0.0



                      *****************************
                      * MAYER POPULATION ANALYSIS *
                      *****************************

  NA   - Mulliken gross atomic population
  ZA   - Total nuclear charge
  QA   - Mulliken gross atomic charge
  VA   - Mayer's total valence
  BVA  - Mayer's bonded valence
  FA   - Mayer's free valence

  ATOM       NA         ZA         QA         VA         BVA        FA
  0 C      5.9769     6.0000     0.0231     4.0058     4.0058     0.0000
  1 C      5.9495     6.0000     0.0505     3.9170     3.9170     0.0000
  2 H      0.9162     1.0000     0.0838     0.9858     0.9858     0.0000
  3 C      5.9439     6.0000     0.0561     4.0601     4.0601    -0.0000
  4 H      0.9382     1.0000     0.0618     0.9969     0.9969     0.0000
  5 C      5.9939     6.0000     0.0061     4.0583     4.0583    -0.0000
  6 H      0.9344     1.0000     0.0656     0.9831     0.9831     0.0000
  7 C      6.0180     6.0000    -0.0180     4.0240     4.0240     0.0000
  8 H      0.9443     1.0000     0.0557     1.0157     1.0157     0.0000
  9 C      5.7693     6.0000     0.2307     4.0361     4.0361     0.0000
 10 H      0.9388     1.0000     0.0612     0.9853     0.9853     0.0000
 11 O      8.2920     8.0000    -0.2920     2.2174     2.2174     0.0000
 12 O      8.4175     8.0000    -0.4175     2.0229     2.0229    -0.0000
 13 O      8.4081     8.0000    -0.4081     2.0117     2.0117    -0.0000
 14 O      8.4106     8.0000    -0.4106     2.0285     2.0285    -0.0000
 15 O      8.4110     8.0000    -0.4110     2.0189     2.0189    -0.0000
 16 O      8.4456     8.0000    -0.4456     2.0330     2.0330    -0.0000
 17 H      0.9046     1.0000     0.0954     0.9504     0.9504     0.0000
 18 H      0.9134     1.0000     0.0866     0.9597     0.9597     0.0000
 19 H      0.6841     1.0000     0.3159     0.8807     0.8807    -0.0000
 20 H      0.6916     1.0000     0.3084     0.8861     0.8861    -0.0000
 21 H      0.6957     1.0000     0.3043     0.8876     0.8876    -0.0000
 22 H      0.7006     1.0000     0.2994     0.9032     0.9032    -0.0000
 23 H      0.7019     1.0000     0.2981     0.9460     0.9460    -0.0000

  Mayer bond orders larger than 0.100000
B(  0-C ,  1-C ) :   1.0313 B(  0-C , 16-O ) :   1.0956 B(  0-C , 17-H ) :   0.9202 
B(  0-C , 18-H ) :   0.9132 B(  1-C ,  2-H ) :   0.8769 B(  1-C ,  3-C ) :   0.9768 
B(  1-C , 11-O ) :   0.9992 B(  3-C ,  4-H ) :   0.8719 B(  3-C ,  5-C ) :   1.0266 
B(  3-C , 15-O ) :   1.0816 B(  5-C ,  6-H ) :   0.8566 B(  5-C ,  7-C ) :   1.0237 
B(  5-C , 14-O ) :   1.0452 B(  7-C ,  8-H ) :   0.8596 B(  7-C ,  9-C ) :   0.9622 
B(  7-C , 13-O ) :   1.0673 B(  9-C , 10-H ) :   0.8931 B(  9-C , 11-O ) :   1.1130 
B(  9-C , 12-O ) :   0.9819 B( 12-O , 19-H ) :   0.8331 B( 12-O , 23-H ) :   0.1266 
B( 13-O , 20-H ) :   0.8451 B( 14-O , 21-H ) :   0.8471 B( 15-O , 22-H ) :   0.8341 
B( 16-O , 23-H ) :   0.7874 

-------
TIMINGS
-------

Total SCF time: 0 days 0 hours 0 min 15 sec 

Total time                  ....      15.662 sec
Sum of individual times     ....      18.834 sec  (120.3%)

SCF preparation             ....       0.071 sec  (  0.5%)
Fock matrix formation       ....       5.868 sec  ( 37.5%)
  Startup                   ....       0.008 sec  (  0.1% of F)
  Split-RI-J                ....       3.039 sec  ( 51.8% of F)
  XC integration            ....       2.715 sec  ( 46.3% of F)
    Basis function eval.    ....       1.119 sec  ( 41.2% of XC)
    Density eval.           ....       0.618 sec  ( 22.8% of XC)
    XC-Functional eval.     ....       0.162 sec  (  6.0% of XC)
    XC-Potential eval.      ....       0.631 sec  ( 23.2% of XC)
Diagonalization             ....       0.000 sec  (  0.0%)
Density matrix formation    ....       0.029 sec  (  0.2%)
Total Energy calculation    ....       0.002 sec  (  0.0%)
Population analysis         ....       0.078 sec  (  0.5%)
Orbital Transformation      ....       3.232 sec  ( 20.6%)
Orbital Orthonormalization  ....       0.000 sec  (  0.0%)
DIIS solution               ....       3.287 sec  ( 21.0%)
  MO trafo                  ....       0.000 sec  (  0.0 % of DIIS)
  Orb grad                  ....       0.000 sec  (  0.0 % of DIIS)
  Energy W gradient         ....       0.000 sec  (  0.0 % of DIIS)
  DIIS error                ....       0.007 sec  (  0.2 % of DIIS)
  DIIS work                 ....       0.063 sec  (  1.9 % of DIIS)
  Form Q                    ....       0.000 sec  (  0.0 % of DIIS)
  Form QpQm                 ....       0.000 sec  (  0.0 % of DIIS)
  Exp/Cayley                ....       0.000 sec  (  0.0 % of DIIS)
  Orb update                ....       0.000 sec  (  0.0 % of DIIS)
  Wake-sleep                ....       0.001 sec  (  0.0 % of DIIS)
SOSCF solution              ....       6.266 sec  ( 40.0%)
  MO trafo                  ....       6.258 sec  ( 99.9 % of SOSCF)
  Orb grad                  ....       0.000 sec  (  0.0 % of SOSCF)
  Rot update                ....       0.001 sec  (  0.0 % of SOSCF)
  Step                      ....       0.007 sec  (  0.1 % of SOSCF)
Finished LeanSCF after  15.7 sec

Maximum memory used throughout the entire LEANSCF-calculation: 19.1 MB


-------------------------------------------------------------------------------
                          DFT DISPERSION CORRECTION                            
                                                                               
                                DFTD4 V3.4.0                                   
-------------------------------------------------------------------------------
The PBE functional is recognized
Active option DFTDOPT                   ...         5   

-------------------------   ----------------
Dispersion correction           -0.025295678
-------------------------   ----------------

------------------   -----------------
gCP correction             0.158062312
------------------   -----------------

-------------------------   --------------------
FINAL SINGLE POINT ENERGY      -685.694074125724
-------------------------   --------------------


------------------------------------------------------------------------------
                              ORCA PROPERTY CALCULATIONS
------------------------------------------------------------------------------

GBWName                                 ... sp.gbw
Number of atoms                         ...     24
Number of basis functions               ...    192
Max core memory                         ...   1024 MB

Electric properties:
Dipole moment                           ... YES
Quadrupole moment                       ...  NO
Static polarizability (Dipole/Dipole)   ...  NO
Static polarizability (Dipole/Quad.)    ...  NO
Static polarizability (Quad./Quad.)     ...  NO
Static polarizability (Velocity)        ...  NO

Atomic electric properties:
Dipole moment                           ...  NO
Quadrupole moment                       ...  NO
Static polarizability                   ...  NO

Choice of electric origin               ... Center of mass
Position of electric origin             ...    -0.000006    -0.000001     0.000002

General magnetic properties:
Magnetizability                         ...  NO

EPR properties:
g-Tensor (aka g-matrix)                 ...  NO
Zero-Field splitting spin-orbit         ...  NO
Zero-field splitting spin-spin          ...  NO
Hyperfine couplings                     ...  NO (   0 nuclei)
Quadrupole couplings                    ...  NO (   0 nuclei)
Contact density                         ...  NO (   0 nuclei)

NMR properties:
Chemical shifts                         ...  NO (   0 nuclei)
Spin-rotation constants                 ...  NO (   0 nuclei)
Spin-spin couplings                     ...  NO (   0 nuclei,    0 pairs)

Choice of magnetic origin               ... GIAO
Position of magnetic origin             ...     0.000000     0.000000     0.000000

Properties with geometric perturbations:
SCF Hessian                             ...  NO
IR spectrum                             ...  NO
VCD spectrum                            ...  NO
X-ray spectroscopy properties:
SCF XES/XAS/RIXS spectra                ...  NO


-------------
DIPOLE MOMENT
-------------

Method             : SCF
Type of density    : Electron Density
Multiplicity       :   1
Irrep              :   0
Energy             :  -685.8268407596258385 Eh
Relativity type    : 
Basis              : AO
                                X                 Y                 Z
Electronic contribution:      2.095484645       0.346888776       0.892586008
Nuclear contribution   :     -1.178607693      -0.150151911      -1.020180736
                        -----------------------------------------
Total Dipole Moment    :      0.916876952       0.196736865      -0.127594729
                        -----------------------------------------
Magnitude (a.u.)       :      0.946387422
Magnitude (Debye)      :      2.405525657



--------------------
Rotational spectrum 
--------------------
 
Rotational constants in cm-1:             0.035898             0.032700             0.021422 
Rotational constants in MHz :          1076.202451           980.306567           642.222692 

Dipole components along the rotational axes: 
x,y,z [a.u.] :     0.611786    -0.720758    -0.043309 
x,y,z [Debye]:     1.555036    -1.832020    -0.110082 

 

Dipole moment calculation done in   0.0 sec 

Maximum memory used throughout the entire PROP-calculation: 12.7 MB

--------------------------------
SUGGESTED CITATIONS FOR THIS RUN
--------------------------------

Below you find a list of papers that are relevant to this ORCA run
We neither can nor want to force you to cite these papers, but we appreciate if you do
You receive ORCA, which is the product of decades of hard work by many enthusiastic individuals, for free
The only thing we kindly ask in return is that you cite our papers,
We deeply appreciate it, if you show your appreciation for ORCA by not just citing the generic ORCA reference.

Please note that relegating all ORCA citations to the supporting information does *not* help us.
SI sections are not indexed - citations you put there will not count into any citation statistics
But we need these citations in order to attract the funding resources that allow us to do what we are doing

Therefore, if you are a happy ORCA user, please consider citing a few of the papers listed below in the main body of your paper

In addition to the list printed below, the program has created the file sp.bibtex that contains the list in bibtex format
You can import this file easily into all common literature databanks and citation aid programs


List of essential papers. We consider these as the minimum necessary citations

  1. Neese,F.
     Software update: the ORCA program system, version 5.0
     WIRES Comput. Molec. Sci., 2022 12(1)e1606
     doi.org/10.1002/wcms.1606

List of papers to cite with high priority. The work reported in these papers was absolutely
necessary for this run to complete.
Our perspective: the developers of density functionals and basis sets usually get cited in chemistry papers
Good! But without the algorithms to do something with them, the functionals or basis sets would not do anything.
Hence, in our opinion, the algorithm design and method developments papers are equally worthy of getting cited

  1. Neese,F.
     An improvement of the resolution of the identity approximation for the formation of the Coulomb matrix
     J. Comp. Chem., 2003 24(14)1740-1747
     doi.org/10.1002/jcc.10318
  2. Neese,F.
     The SHARK Integral Generation and Digestion System
     J. Comp. Chem., 2022  1-16
     doi.org/10.1002/jcc.26942
  3. Caldeweyher,E.; Bannwarth,C.; Grimme,S.
     Extension of the D3 dispersion coefficient model
     J. Chem. Phys., 2017 147 034112
     doi.org/10.1063/1.4993215
  4. Caldeweyher,E.; Ehlert,S.; Hansen,A.; Neugebauer,H.; Spicher,S.; Bannwarth,C.; Grimme,S.
     A generally applicable atomic-charge dependent London dispersion correction
     J. Chem. Phys., 2019 150 154122
     doi.org/10.1063/1.5090222
  5. Caldeweyher,E.; Mewes,J.; Ehlert,S.; Grimme,S.
     Extension and evaluation of the D4 London-dispersion model for periodic systems
     Phys. Chem. Chem. Phys., 2020 22(16)8499-8512
     doi.org/10.1039/D0CP00502A
  6. Wittmann,L.; Gordiy,I.; Friede,M.; Helmich-Paris,B.; Grimme,S.; Hansen,A.; Bursch,M.
     Extension of the D3 and D4 London Dispersion Corrections to the full Actinides Series
     Phys. Chem. Chem. Phys., 2024 26(32)21379-21394
     doi.org/https://doi.org/10.1039/D4CP01514B 

List of suggested additional citations. These are papers that are important in the 'surrounding' of 
of this run, or papers that preceded the highly important papers. If you like your results we are grateful for a citation.

  1. Neese,F.
     The ORCA program system
     WIRES Comput. Molec. Sci., 2012 2(1)73-78
     doi.org/10.1002/wcms.81
  2. Neese,F.
     Software update: the ORCA program system, version 4.0
     WIRES Comput. Molec. Sci., 2018 8(1)1-6
     doi.org/10.1002/wcms.1327
  3. Neese,F.; Wennmohs,F.; Becker,U.; Riplinger,C.
     The ORCA quantum chemistry program package
     J. Chem. Phys., 2020 152 Art. No. L224108
     doi.org/10.1063/5.0004608

List of optional additional citations

  1. Neese,F.
     Approximate second-order SCF convergence for spin unrestricted wavefunctions
     Chem. Phys. Lett., 2000 325(1-3)93-98
     doi.org/10.1016/s0009-2614(00)00662-x

Timings for individual modules:

Sum of individual times          ...       17.167 sec (=   0.286 min)
Startup calculation              ...        0.652 sec (=   0.011 min)   3.8 %
SCF iterations                   ...       16.447 sec (=   0.274 min)  95.8 %
Property calculations            ...        0.068 sec (=   0.001 min)   0.4 %
                             ****ORCA TERMINATED NORMALLY****
TOTAL RUN TIME: 0 days 0 hours 0 minutes 22 seconds 492 msec
