
                                 *****************
                                 * O   R   C   A *
                                 *****************

                                            #,                                       
                                            ###                                      
                                            ####                                     
                                            #####                                    
                                            ######                                   
                                           ########,                                 
                                     ,,################,,,,,                         
                               ,,#################################,,                 
                          ,,##########################################,,             
                       ,#########################################, ''#####,          
                    ,#############################################,,   '####,        
                  ,##################################################,,,,####,       
                ,###########''''           ''''###############################       
              ,#####''   ,,,,##########,,,,          '''####'''          '####       
            ,##' ,,,,###########################,,,                        '##       
           ' ,,###''''                  '''############,,,                           
         ,,##''                                '''############,,,,        ,,,,,,###''
      ,#''                                            '''#######################'''  
     '                                                          ''''####''''         
             ,#######,   #######,   ,#######,      ##                                
            ,#'     '#,  ##    ##  ,#'     '#,    #''#        ,####,   ,####,        
            ##       ##  ##   ,#'  ##            #'  '#       #'       #'  '#        
            ##       ##  #######   ##           ,######,      #####,   #    #        
            '#,     ,#'  ##    ##  '#,     ,#' ,#      #,     #,   #   #,  ,#        
             '#######'   ##     ##  '#######'  #'      '#     '####' # '####'        



                #########################################################
                #                        -***-                          #
                #          Department of theory and spectroscopy        #
                #                                                       #
                #                      Frank Neese                      #
                #                                                       #
                #     Directorship, Architecture, Infrastructure        #
                #                    SHARK, DRIVERS                     #
                #        Core code/Algorithms in most modules           #
                #                                                       #
                #        Max Planck Institute fuer Kohlenforschung      #
                #                Kaiser Wilhelm Platz 1                 #
                #                 D-45470 Muelheim/Ruhr                 #
                #                      Germany                          #
                #                                                       #
                #                  All rights reserved                  #
                #                        -***-                          #
                #########################################################


                         Program Version 6.0.1  -  RELEASE   -


 With contributions from (in alphabetic order):
[Max-Planck-Institut fuer Kohlenforschung]                               
  Daniel Aravena         : Magnetic Suceptibility                        
  Michael Atanasov       : Ab Initio Ligand Field Theory (pilot matlab implementation)
  Alexander A. Auer      : GIAO ZORA, VPT2 properties, NMR spectrum      
  Ute Becker             : All parallelization in ORCA, NUMFREQ, NUMCALC 
  Giovanni Bistoni       : ED, misc. LED, open-shell LED, HFLD           
  Martin Brehm           : Molecular dynamics                            
  Dmytro Bykov           : pre 5.0 version of the SCF Hessian            
  Marcos Casanova-Páez   : Triplet and SCS-CIS(D). UHF-(DLPNO)-IP/EA/STEOM-CCSD. UHF-CVS-IP/STEOM-CCSD   
  Vijay G. Chilkuri      : MRCI spin determinant printing, contributions to CSF-ICE 
  Pauline Colinet        : FMM embedding                                 
  Dipayan Datta          : RHF DLPNO-CCSD density                        
  Achintya Kumar Dutta   : EOM-CC, STEOM-CC                              
  Nicolas Foglia         : Exact transition moments, OPA infrastructure, MCD improvements    
  Dmitry Ganyushin       : Spin-Orbit,Spin-Spin,Magnetic field MRCI      
  Miquel Garcia-Rates    : C-PCM and meta-GGA Hessian, CCSD/C-PCM, Gaussian charge scheme 
  Tiago L. C. Gouveia    : GS-ROHF, GS-ROCIS                             
  Yang Guo               : DLPNO-NEVPT2, F12-NEVPT2, CIM, IAO-localization        
  Andreas Hansen         : Spin unrestricted coupled pair/coupled cluster methods 
  Ingolf Harden          : AUTO-CI MPn and infrastructure                
  Benjamin Helmich-Paris : MC-RPA, TRAH-(SCF,CASSCF), AVAS, COSX integrals, SCF dyn. polar. 
  Lee Huntington         : MR-EOM, pCC                                   
  Robert Izsak           : Overlap fitted RIJCOSX, COSX-SCS-MP3, EOM     
  Riya Kayal             : Wick's Theorem for AUTO-CI, AUTO-CI UHF-CCSDT 
  Emily Kempfer          : AUTO-CI, RHF CISDT and CCSDT                  
  Christian Kollmar      : KDIIS, OOCD, Brueckner-CCSD(T), CCSD density, CASPT2, CASPT2-K, improved NEVPT2 
  Axel Koslowski         : Symmetry handling                             
  Simone Kossmann        : meta-GGA functionals, TD-DFT gradient, OOMP2, (MP2 Hessian; deprecated post 5.0) 
  Lucas Lang             : DCDCAS                                        
  Marvin Lechner         : AUTO-CI (C++ implementation), FIC-MRCC        
  Spencer Leger          : CASSCF response                               
  Dagmar Lenk            : GEPOL surface, SMD, ORCA-2-JSON               
  Dimitrios Liakos       : Extrapolation schemes; Compound Job, initial MDCI parallelization 
  Dimitrios Manganas     : Further ROCIS development; embedding schemes. LFT, Crystal Embedding 
  Dimitrios Pantazis     : SARC Basis sets                               
  Anastasios Papadopoulos: AUTO-CI, single reference methods and gradients 
  Taras Petrenko         : pre 6.0 DFT Hessian and TD-DFT gradient, (ASA, deprecated), ECA, 1-Electron XAS/XES, NRVS 
  Peter Pinski           : DLPNO-MP2, DLPNO-MP2 Gradient                 
  Christoph Reimann      : Effective Core Potentials                     
  Marius Retegan         : Local ZFS, SOC                                
  Christoph Riplinger    : Optimizer, TS searches, QM/MM, DLPNO-CCSD(T), (RO)-DLPNO pert. Triples 
  Michael Roemelt        : Original ROCIS implementation                 
  Masaaki Saitow         : Open-shell DLPNO-CCSD energy and density      
  Barbara Sandhoefer     : DKH picture change effects                    
  Kantharuban Sivalingam : CASSCF convergence/infrastructure, NEVPT2 and variants, FIC-MRCI 
  Bernardo de Souza      : ESD, SOC TD-DFT                               
  Georgi L. Stoychev     : AutoAux, RI-MP2 NMR, DLPNO-MP2 response, X2C  
  Van Anh Tran           : RI-MP2 g-tensors                              
  Willem Van den Heuvel  : Paramagnetic NMR                              
  Zikuan Wang            : NOTCH, Electric field optimization            
  Frank Wennmohs         : Technical directorship and infrastructure     
  Hang Xu                : AUTO-CI-Response properties                   
                                                                         
[FACCTs GmbH]                                                            
  Markus Bursch, Miquel Garcia-Rates, Christoph Riplinger, Bernardo de Souza, Georgi L. Stoychev 
                                                                 
  APM, Basis sets (HGBS, AHGBS, def-TZVP (Ac-Lr), def2-XVPD (La-Lu)), CI-OPT, improved COSX, DLPNO-Multilevel,           
  DOCKER, DRACO, updates on ESD, GOAT, IRC, LR-CPCM, MBIS, meta-GGA TD-DFT gradient, ML-optimized integration grids, 
  MM, NACMEs, nearIR, NEB, NEB-TS, NL-DFT gradient (VV10), 2- and 3-layer-ONIOM, interface openCOSMO-RS, QMMM,   
  Crystal-QMMM, SF, symmetry and pop. for TD-DFT, r2SCAN hybrids, SOLVATOR                                   
                                                                         
[Other institutions]                                                     
  V. Asgeirsson          : NEB                                           
  Christoph Bannwarth    : sTDA-DFT, sTD-DFT, PBEh-3c, B97-3c, D3        
  Sebastian Ehlert       : rSCAN, r2SCAN, r2SCAN-3c, D4, dhf basis sets  
  Marvin Friede          : D4 for Fr, Ra, Ac-Lr                          
  Lars Goerigk           : TD-DFT with DH, B97 family of functionals     
  Stefan Grimme          : VdW corrections, initial TS optimization, DFT functionals, gCP, sTDA/sTD-DF 
  Waldemar Hujo          : DFT-NL                                        
  H. Jonsson             : NEB                                           
  Holger Kruse           : gCP                                           
  Marcel Mueller         : wB97X-3c, vDZP basis set                      
  Hagen Neugebauer       : wr2SCAN                                       
  Tobias Risthaus        : range-separated hybrid DFT                    
  Lukas Wittmann         : regularized MP2, r2SCAN double-hybrids, wr2SCAN        
                                                                         
We gratefully acknowledge several colleagues who have allowed us to      
interface, adapt or use parts of their codes:                            
  Ed Valeev, F. Pavosevic, A. Kumar             : LibInt (2-el integral package), F12 methods 
  Garnet Chan, S. Sharma, J. Yang, R. Olivares  : DMRG                   
  Ulf Ekstrom                                   : XCFun DFT Library      
  Mihaly Kallay                                 : mrcc  (arbitrary order and MRCC methods)
  Frank Weinhold                                : gennbo (NPA and NBO analysis)           
  Simon Mueller                                 : openCOSMO-RS                            
  Christopher J. Cramer and Donald G. Truhlar   : smd solvation model                     
  S Lehtola, MJT Oliveira, MAL Marques          : LibXC Library                           
  Liviu Ungur et al                             : ANISO software                          


 Your calculation uses the libint2 library for the computation of 2-el integrals
 For citations please refer to: http://libint.valeyev.net

 Your ORCA version has been built with support for libXC version: 6.2.2
 For citations please refer to: https://libxc.gitlab.io

 This ORCA versions uses:
   CBLAS   interface :  Fast vector & matrix operations
   LAPACKE interface :  Fast linear algebra routines
   SCALAPACK package :  Parallel linear algebra routines
   Shared memory     :  Shared parallel matrices
   BLAS/LAPACK       :  OpenBLAS 0.3.27  USE64BITINT DYNAMIC_ARCH NO_AFFINITY Zen SINGLE_THREADED
        Core in use  :  Zen
   Copyright (c) 2011-2014, The OpenBLAS Project


Your calculation utilizes the geometrical counterpoise correction gCP
Please cite in your paper:
H.Kruse, S. Grimme J.Chem.Phys., 136, (2012), 154101 
   

Your calculation utilizes the atom-pairwise dispersion correction
based on EEQ partial charges (D4)


================================================================================

----- Orbital basis set information -----
Your calculation utilizes the basis: def2-SV(P)
   F. Weigend and R. Ahlrichs, Phys. Chem. Chem. Phys. 7, 3297 (2005).

----- AuxJ basis set information -----
Your calculation utilizes the auxiliary basis: def2/J
   F. Weigend, Phys. Chem. Chem. Phys. 8, 1057 (2006).

================================================================================
                                        WARNINGS
                       Please study these warnings very carefully!
================================================================================


================================================================================
                                       INPUT FILE
================================================================================
NAME = sp.inp
|  1> ! pbe def2-sv(p) def2/J RI DEFGRID1 loosescf d4 GCP(DFT/SV(P)) printgap
|  2> %output
|  3>     printlevel normal
|  4> end
|  5> * xyz 0 1
|  6> C -3.8925369069 -1.2040898638 -1.0206631635
|  7> N -3.4151392639 -0.7779399869 0.2716518172
|  8> C -2.2666011878 -0.1136389019 0.5273422137
|  9> O -1.9561889316 0.2836896229 1.6214672465
| 10> O -1.5055450524 0.0285036169 -0.5879315579
| 11> C -0.2739044628 0.6626063797 -0.4182402662
| 12> C -0.1921553834 2.023133397 -0.5334267207
| 13> C 1.04941989 2.6633345736 -0.4111205295
| 14> C 2.1810410912 1.9380178631 -0.1688242606
| 15> C 2.1238856499 0.534943112 -0.0358060687
| 16> C 0.8736237345 -0.1259007045 -0.1613706765
| 17> C 0.8174924792 -1.5276023697 -0.022826628
| 18> C 1.9513033762 -2.2458625244 0.2345974251
| 19> C 3.1891086934 -1.5970292492 0.3590177064
| 20> C 3.2734319096 -0.2394683232 0.2254368795
| 21> H -4.6957447669 -0.553791549 -1.3784152137
| 22> H -4.2678583007 -2.2263732323 -0.9566402
| 23> H -3.0690216895 -1.168533558 -1.7289614001
| 24> H -4.0417698474 -0.85962787 1.0571914246
| 25> H -1.0870661567 2.5986911595 -0.715238356
| 26> H 1.0958205949 3.7378198598 -0.5058662875
| 27> H 3.1381690463 2.4292536665 -0.0694578065
| 28> H -0.1370958916 -2.0235806511 -0.1202059134
| 29> H 1.9015485946 -3.3191913564 0.344786062
| 30> H 4.0748281159 -2.1810038079 0.5625345986
| 31> H 4.2248269069 0.2641188178 0.3208667909
| 32> *
| 33> 
| 34>                          ****END OF INPUT****
================================================================================

                       ****************************
                       * Single Point Calculation *
                       ****************************

---------------------------------
CARTESIAN COORDINATES (ANGSTROEM)
---------------------------------
  C     -3.892537   -1.204090   -1.020663
  N     -3.415139   -0.777940    0.271652
  C     -2.266601   -0.113639    0.527342
  O     -1.956189    0.283690    1.621467
  O     -1.505545    0.028504   -0.587932
  C     -0.273904    0.662606   -0.418240
  C     -0.192155    2.023133   -0.533427
  C      1.049420    2.663335   -0.411121
  C      2.181041    1.938018   -0.168824
  C      2.123886    0.534943   -0.035806
  C      0.873624   -0.125901   -0.161371
  C      0.817492   -1.527602   -0.022827
  C      1.951303   -2.245863    0.234597
  C      3.189109   -1.597029    0.359018
  C      3.273432   -0.239468    0.225437
  H     -4.695745   -0.553792   -1.378415
  H     -4.267858   -2.226373   -0.956640
  H     -3.069022   -1.168534   -1.728961
  H     -4.041770   -0.859628    1.057191
  H     -1.087066    2.598691   -0.715238
  H      1.095821    3.737820   -0.505866
  H      3.138169    2.429254   -0.069458
  H     -0.137096   -2.023581   -0.120206
  H      1.901549   -3.319191    0.344786
  H      4.074828   -2.181004    0.562535
  H      4.224827    0.264119    0.320867

----------------------------
CARTESIAN COORDINATES (A.U.)
----------------------------
  NO LB      ZA    FRAG     MASS         X           Y           Z
   0 C     6.0000    0    12.011   -7.355829   -2.275400   -1.928774
   1 N     7.0000    0    14.007   -6.453678   -1.470094    0.513348
   2 C     6.0000    0    12.011   -4.283255   -0.214746    0.996532
   3 O     8.0000    0    15.999   -3.696661    0.536096    3.064129
   4 O     8.0000    0    15.999   -2.845068    0.053864   -1.111030
   5 C     6.0000    0    12.011   -0.517604    1.252145   -0.790360
   6 C     6.0000    0    12.011   -0.363121    3.823168   -1.008030
   7 C     6.0000    0    12.011    1.983116    5.032973   -0.776905
   8 C     6.0000    0    12.011    4.121570    3.662323   -0.319032
   9 C     6.0000    0    12.011    4.013562    1.010896   -0.067664
  10 C     6.0000    0    12.011    1.650910   -0.237918   -0.304946
  11 C     6.0000    0    12.011    1.544837   -2.886750   -0.043136
  12 C     6.0000    0    12.011    3.687429   -4.244065    0.443325
  13 C     6.0000    0    12.011    6.026542   -3.017948    0.678445
  14 C     6.0000    0    12.011    6.185890   -0.452530    0.426014
  15 H     1.0000    0     1.008   -8.873672   -1.046514   -2.604827
  16 H     1.0000    0     1.008   -8.065083   -4.207236   -1.807788
  17 H     1.0000    0     1.008   -5.799610   -2.208208   -3.267264
  18 H     1.0000    0     1.008   -7.637838   -1.624461    1.997802
  19 H     1.0000    0     1.008   -2.054257    4.910815   -1.351605
  20 H     1.0000    0     1.008    2.070801    7.063456   -0.955949
  21 H     1.0000    0     1.008    5.930280    4.590624   -0.131256
  22 H     1.0000    0     1.008   -0.259074   -3.824013   -0.227156
  23 H     1.0000    0     1.008    3.593406   -6.272363    0.651551
  24 H     1.0000    0     1.008    7.700309   -4.121500    1.063036
  25 H     1.0000    0     1.008    7.983766    0.499112    0.606350

--------------------------------
INTERNAL COORDINATES (ANGSTROEM)
--------------------------------
 C      0   0   0     0.000000000000     0.00000000     0.00000000
 N      1   0   0     1.442078443243     0.00000000     0.00000000
 C      2   1   0     1.351226562293   126.60164894     0.00000000
 O      3   2   1     1.204713788756   123.57421503   175.61504099
 O      3   2   1     1.357662153299   111.87014824   354.62507279
 C      5   3   2     1.395643217380   116.25588134   182.14370655
 C      6   5   3     1.367839389726   119.63143272   270.87513465
 C      7   6   5     1.402257291100   119.97893530   182.24674757
 C      8   7   6     1.365781225328   120.43936069   359.59372341
 C      9   8   7     1.410524491464   120.75814555   359.93711480
 C      6   5   3     1.415820035013   118.96560579    92.39257008
 C     11   6   5     1.409649860576   122.63895306   357.72388961
 C     12  11   6     1.366635263375   120.53617090   180.47898043
 C     13  12  11     1.403077698737   120.36942825   359.73142046
 C     14  13  12     1.366720860274   120.33794387     0.07085511
 H      1   2   3     1.093625755924   111.13522514   256.18112935
 H      1   2   3     1.090884216593   109.76916161   135.66572898
 H      1   2   3     1.086797109005   108.87640648    16.12426426
 H      2   1   3     1.008172243824   117.93993099   170.78827110
 H      7   6   5     1.079438511854   119.66882259     2.44431153
 H      8   7   6     1.079651987603   118.99702551   179.93352412
 H      9   8   7     1.080407436654   120.58823848   180.29413444
 H     12  11   6     1.080146350506   118.87615371     0.27124382
 H     13  12  11     1.080116593520   120.21623612   179.68728334
 H     14  13  12     1.080251964133   119.34430098   180.00478893
 H     15  14  13     1.080675398747   120.56766841   179.98022065

---------------------------
INTERNAL COORDINATES (A.U.)
---------------------------
 C      0   0   0     0.000000000000     0.00000000     0.00000000
 N      1   0   0     2.725133321360     0.00000000     0.00000000
 C      2   1   0     2.553448147614   126.60164894     0.00000000
 O      3   2   1     2.276579130507   123.57421503   175.61504099
 O      3   2   1     2.565609652124   111.87014824   354.62507279
 C      5   3   2     2.637383461513   116.25588134   182.14370655
 C      6   5   3     2.584841841772   119.63143272   270.87513465
 C      7   6   5     2.649882249474   119.97893530   182.24674757
 C      8   7   6     2.580952474722   120.43936069   359.59372341
 C      9   8   7     2.665504994056   120.75814555   359.93711480
 C      6   5   3     2.675512121094   118.96560579    92.39257008
 C     11   6   5     2.663852181208   122.63895306   357.72388961
 C     12  11   6     2.582566372738   120.53617090   180.47898043
 C     13  12  11     2.651432595226   120.36942825   359.73142046
 C     14  13  12     2.582728127435   120.33794387     0.07085511
 H      1   2   3     2.066653171699   111.13522514   256.18112935
 H      1   2   3     2.061472413177   109.76916161   135.66572898
 H      1   2   3     2.053748899157   108.87640648    16.12426426
 H      2   1   3     1.905169436648   117.93993099   170.78827110
 H      7   6   5     2.039843165811   119.66882259     2.44431153
 H      8   7   6     2.040246576513   118.99702551   179.93352412
 H      9   8   7     2.041674168327   120.58823848   180.29413444
 H     12  11   6     2.041180787011   118.87615371     0.27124382
 H     13  12  11     2.041124554456   120.21623612   179.68728334
 H     14  13  12     2.041380367842   119.34430098   180.00478893
 H     15  14  13     2.042180543299   120.56766841   179.98022065

---------------------
BASIS SET INFORMATION
---------------------
There are 4 groups of distinct atoms

 Group   1 Type C   : 7s4p1d contracted to 3s2p1d pattern {511/31/1}
 Group   2 Type N   : 7s4p1d contracted to 3s2p1d pattern {511/31/1}
 Group   3 Type O   : 7s4p1d contracted to 3s2p1d pattern {511/31/1}
 Group   4 Type H   : 4s contracted to 2s pattern {31}

Atom   0C    basis set group =>   1
Atom   1N    basis set group =>   2
Atom   2C    basis set group =>   1
Atom   3O    basis set group =>   3
Atom   4O    basis set group =>   3
Atom   5C    basis set group =>   1
Atom   6C    basis set group =>   1
Atom   7C    basis set group =>   1
Atom   8C    basis set group =>   1
Atom   9C    basis set group =>   1
Atom  10C    basis set group =>   1
Atom  11C    basis set group =>   1
Atom  12C    basis set group =>   1
Atom  13C    basis set group =>   1
Atom  14C    basis set group =>   1
Atom  15H    basis set group =>   4
Atom  16H    basis set group =>   4
Atom  17H    basis set group =>   4
Atom  18H    basis set group =>   4
Atom  19H    basis set group =>   4
Atom  20H    basis set group =>   4
Atom  21H    basis set group =>   4
Atom  22H    basis set group =>   4
Atom  23H    basis set group =>   4
Atom  24H    basis set group =>   4
Atom  25H    basis set group =>   4
---------------------------------
AUXILIARY/J BASIS SET INFORMATION
---------------------------------
There are 4 groups of distinct atoms

 Group   1 Type C   : 12s5p4d2f1g contracted to 6s4p3d1f1g pattern {711111/2111/211/2/1}
 Group   2 Type N   : 12s5p4d2f1g contracted to 6s4p3d1f1g pattern {711111/2111/211/2/1}
 Group   3 Type O   : 12s5p4d2f1g contracted to 6s4p3d1f1g pattern {711111/2111/211/2/1}
 Group   4 Type H   : 5s2p1d contracted to 3s1p1d pattern {311/2/1}

Atom   0C    basis set group =>   1
Atom   1N    basis set group =>   2
Atom   2C    basis set group =>   1
Atom   3O    basis set group =>   3
Atom   4O    basis set group =>   3
Atom   5C    basis set group =>   1
Atom   6C    basis set group =>   1
Atom   7C    basis set group =>   1
Atom   8C    basis set group =>   1
Atom   9C    basis set group =>   1
Atom  10C    basis set group =>   1
Atom  11C    basis set group =>   1
Atom  12C    basis set group =>   1
Atom  13C    basis set group =>   1
Atom  14C    basis set group =>   1
Atom  15H    basis set group =>   4
Atom  16H    basis set group =>   4
Atom  17H    basis set group =>   4
Atom  18H    basis set group =>   4
Atom  19H    basis set group =>   4
Atom  20H    basis set group =>   4
Atom  21H    basis set group =>   4
Atom  22H    basis set group =>   4
Atom  23H    basis set group =>   4
Atom  24H    basis set group =>   4
Atom  25H    basis set group =>   4
------------------------------------------------------------------------------
                             ORCA STARTUP CALCULATIONS
                           -- RI-GTO INTEGRALS CHOSEN --
------------------------------------------------------------------------------
------------------------------------------------------------------------------
                   ___                                                        
                  /   \      - P O W E R E D   B Y -                         
                 /     \                                                     
                 |  |  |   _    _      __       _____    __    __             
                 |  |  |  | |  | |    /  \     |  _  \  |  |  /  |          
                  \  \/   | |  | |   /    \    | | | |  |  | /  /          
                 / \  \   | |__| |  /  /\  \   | |_| |  |  |/  /          
                |  |  |   |  __  | /  /__\  \  |    /   |      \           
                |  |  |   | |  | | |   __   |  |    \   |  |\   \          
                \     /   | |  | | |  |  |  |  | |\  \  |  | \   \       
                 \___/    |_|  |_| |__|  |__|  |_| \__\ |__|  \__/        
                                                                              
                      - O R C A' S   B I G   F R I E N D -                    
                                      &                                       
                       - I N T E G R A L  F E E D E R -                       
                                                                              
 v1 FN, 2020, v2 2021, v3 2022-2024                                           
------------------------------------------------------------------------------


----------------------
SHARK INTEGRAL PACKAGE
----------------------

Number of atoms                             ...     26
Number of basis functions                   ...    232
Number of shells                            ...    112
Maximum angular momentum                    ...      2
Integral batch strategy                     ... SHARK/LIBINT Hybrid
RI-J (if used) integral strategy            ... SPLIT-RIJ (Revised 2003 algorithm where possible)
Printlevel                                  ...      1
Contraction scheme used                     ... SEGMENTED contraction
Prescreening option                         ... SCHWARTZ
   Thresh                                   ... 1.000e-09
   Tcut                                     ... 1.000e-10
   Tpresel                                  ... 1.000e-10 
Coulomb Range Separation                    ... NOT USED
Exchange Range Separation                   ... NOT USED
Multipole approximations                    ... NOT USED
Finite Nucleus Model                        ... NOT USED
CABS basis                                  ... NOT available
Auxiliary Coulomb fitting basis             ... AVAILABLE
   # of basis functions in Aux-J            ...    856
   # of shells in Aux-J                     ...    280
   Maximum angular momentum in Aux-J        ...      4
Auxiliary J/K fitting basis                 ... NOT available
Auxiliary Correlation fitting basis         ... NOT available
Auxiliary 'external' fitting basis          ... NOT available

Checking pre-screening integrals            ... done (  0.0 sec) Dimension = 112
Check shell pair data                       ... done (  0.0 sec)
Shell pair information
Shell pair cut-off parameter TPreSel        ...   1.0e-10
Total number of shell pairs                 ...      6328
Shell pairs after pre-screening             ...      5326
Total number of primitive shell pairs       ...     25428
Primitive shell pairs kept                  ...     13706
          la=0 lb=0:   1843 shell pairs
          la=1 lb=0:   1783 shell pairs
          la=1 lb=1:    445 shell pairs
          la=2 lb=0:    775 shell pairs
          la=2 lb=1:    395 shell pairs
          la=2 lb=2:     85 shell pairs

Calculating one electron integrals          ... done (  0.0 sec)
Calculating RI/J V-Matrix + Cholesky decomp.... done (  0.1 sec)
Calculating Nuclear repulsion               ... done (  0.0 sec) ENN=    944.548053189982 Eh

Diagonalization of the overlap matrix:
Smallest eigenvalue                        ... 2.230e-04
Time for diagonalization                   ...    0.005 sec
Threshold for overlap eigenvalues          ... 1.000e-07
Number of eigenvalues below threshold      ... 0
Time for construction of square roots      ...    0.004 sec
Total time needed                          ...    0.010 sec

-------------------
DFT GRID GENERATION
-------------------

General Integration Accuracy     IntAcc      ... 4.159
Radial Grid Type                 RadialGrid  ... OptM3 with GC (2021)
Angular Grid (max. ang.)         AngularGrid ... 3 (Lebedev-194)
Angular grid pruning method      GridPruning ... 4 (adaptive)
Weight generation scheme         WeightScheme... mBecke (2022)
Basis function cutoff            BFCut       ... 1.0000e-10
Integration weight cutoff        WCut        ... 1.0000e-14
Partially contracted basis set               ... off
Rotationally invariant grid construction     ... off
Angular grids for H and He will be reduced by one unit

Total number of grid points                  ...    64234
Total number of batches                      ...     1016
Average number of points per batch           ...       63
Average number of grid points per atom       ...     2471
Initializing property integral containers    ... done (  0.0 sec)

SHARK setup successfully completed in   0.8 seconds

Maximum memory used throughout the entire STARTUP-calculation: 33.9 MB
-------------------------------------------------------------------------------
                                 ORCA GUESS
                   Start orbitals & Density for SCF / CASSCF
-------------------------------------------------------------------------------

------------
SCF SETTINGS
------------
Hamiltonian:
 Density Functional     Method          .... DFT(GTOs)
 Exchange Functional    Exchange        .... PBE
   PBE kappa parameter   XKappa         ....  0.804000
   PBE mue parameter    XMuePBE         ....  0.219520
 Correlation Functional Correlation     .... PBE
   PBE beta parameter  CBetaPBE         ....  0.066725
 LDA part of GGA corr.  LDAOpt          .... PW91-LDA
 Gradients option       PostSCFGGA      .... off
   NL short-range parameter             ....  6.400000
 RI-approximation to the Coulomb term is turned on
   Number of AuxJ basis functions       .... 856


General Settings:
 Integral files         IntName         .... sp
 Hartree-Fock type      HFTyp           .... RHF
 Total Charge           Charge          ....    0
 Multiplicity           Mult            ....    1
 Number of Electrons    NEL             ....  106
 Basis Dimension        Dim             ....  232
 Nuclear Repulsion      ENuc            ....    944.5480531900 Eh

Convergence Acceleration:
 AO-DIIS                CNVDIIS         .... on
   Start iteration      DIISMaxIt       ....    12
   Startup error        DIISStart       ....  0.200000
   # of expansion vecs  DIISMaxEq       ....     5
   Bias factor          DIISBfac        ....   1.050
   Max. coefficient     DIISMaxC        ....  10.000
 MO-DIIS                CNVKDIIS        .... off
 Trust-Rad. Augm. Hess. CNVTRAH         .... auto
   Auto Start mean grad. ratio tolernc. ....  1.125000
   Auto Start start iteration           ....    50
   Auto Start num. interpolation iter.  ....    10
   Max. Number of Micro iterations      ....    24
   Max. Number of Macro iterations      .... Maxiter - #DIIS iter
   Number of Davidson start vectors     ....     2
   Converg. threshold    (grad. norm)   ....   1.000e-04
   Grad. Scal. Fac. for Micro threshold ....   0.100
   Minimum threshold for Micro iter.    ....   1.000e-02
   NR start threshold (gradient norm)   ....   1.000e-04
   Initial trust radius                 ....   0.400
   Minimum AH scaling param. (alpha)    ....   1.000
   Maximum AH scaling param. (alpha)    .... 1000.000
   Quad. conv. algorithm                .... NR
   White noise on init. David. guess    .... on
   Maximum white noise                  ....   0.010
   Pseudo random numbers                .... off
   Inactive MOs                         .... canonical
   Orbital update algorithm             .... Taylor
   Preconditioner                       .... Diag
   Full preconditioner red. dimension   ....   250
 SOSCF                  CNVSOSCF        .... on
   Start iteration      SOSCFMaxIt      ....   150
   Startup grad/error   SOSCFStart      ....  0.003300
   Hessian update       SOSCFHessUp     .... L-BFGS
 Level Shifting         CNVShift        .... on
   Level shift para.    LevelShift      ....    0.2500
   Turn off err/grad.   ShiftErr        ....    0.0010
 Zerner damping         CNVZerner       .... off
 Static damping         CNVDamp         .... on
   Fraction old density DampFac         ....    0.7000
   Max. Damping (<1)    DampMax         ....    0.9800
   Min. Damping (>=0)   DampMin         ....    0.0000
   Turn off err/grad.   DampErr         ....    0.1000

SCF Procedure:
 Maximum # iterations   MaxIter         ....   125
 SCF integral mode      SCFMode         .... Direct
   Integral package                     .... SHARK and LIBINT hybrid scheme
 Reset frequency        DirectResetFreq ....    20
 Integral Threshold     Thresh          ....  1.000e-09 Eh
 Primitive CutOff       TCut            ....  1.000e-10 Eh

Convergence Tolerance:
 Convergence Check Mode ConvCheckMode   .... Total+1el-Energy
 Convergence forced     ConvForced      .... 0
 Energy Change          TolE            ....  1.000e-05 Eh
 1-El. energy change                    ....  1.000e-02 Eh
 Orbital Gradient       TolG            ....  1.000e-04
 Orbital Rotation angle TolX            ....  1.000e-04
 DIIS Error             TolErr          ....  5.000e-04

------------------------------
INITIAL GUESS: MODEL POTENTIAL
------------------------------
Loading Hartree-Fock densities                     ... done
Calculating cut-offs                               ... done
Initializing the effective Hamiltonian             ... done
Setting up the integral package (SHARK)            ... done
Starting the Coulomb interaction                   ... done (   0.3 sec)
Making the grid                                    ... done (   0.3 sec)
Mapping shells                                     ... done
Starting the XC term evaluation                    ... done (   0.2 sec)
  promolecular density results
     # of electrons  =    105.990749914
     EX              =    -87.547026621
     EC              =     -3.557442158
     EX+EC           =    -91.104468779
Transforming the Hamiltonian                       ... done (   0.0 sec)
Diagonalizing the Hamiltonian                      ... done (   0.0 sec)
Back transforming the eigenvectors                 ... done (   0.0 sec)
Now organizing SCF variables                       ... done
                      ------------------
                      INITIAL GUESS DONE (   0.8 sec)
                      ------------------
             **** ENERGY FILE WAS UPDATED (sp.en.tmp) ****
Finished Guess after   1.0 sec
Maximum memory used throughout the entire GUESS-calculation: 26.8 MB

-------------------------------------------------------------------------------------------
                                      ORCA LEAN-SCF
                              memory conserving SCF solver
-------------------------------------------------------------------------------------------

----------------------------------------D-I-I-S--------------------------------------------
Iteration    Energy (Eh)           Delta-E    RMSDP     MaxDP     DIISErr   Damp  Time(sec)
-------------------------------------------------------------------------------------------
               ***  Starting incremental Fock matrix formation  ***
    1    -667.4900377054585761     0.00e+00  3.55e-03  1.05e-01  2.62e-01  0.700   1.1
    2    -667.6476429269260962    -1.58e-01  2.22e-03  5.12e-02  7.64e-02  0.700   1.0
                               ***Turning on AO-DIIS***
    3    -667.6989141773796064    -5.13e-02  9.29e-04  1.27e-02  2.69e-02  0.700   0.9
    4    -667.7324081531129423    -3.35e-02  1.54e-03  2.88e-02  1.12e-02  0.000   0.9
    5    -667.8081302550195915    -7.57e-02  4.09e-04  9.24e-03  6.01e-03  0.000   0.9
                              *** Initializing SOSCF ***
---------------------------------------S-O-S-C-F--------------------------------------
Iteration    Energy (Eh)           Delta-E    RMSDP     MaxDP     MaxGrad    Time(sec)
--------------------------------------------------------------------------------------
    6    -667.8088321648625652    -7.02e-04  1.55e-04  4.35e-03  3.27e-03     0.9
               *** Restarting incremental Fock matrix formation ***
    7    -667.8089031190974083    -7.10e-05  8.43e-05  2.19e-03  1.84e-04     1.0
    8    -667.8089032718115732    -1.53e-07  4.30e-05  1.07e-03  5.06e-04     0.8
                 **** Energy Check signals convergence ****

               *****************************************************
               *                     SUCCESS                       *
               *           SCF CONVERGED AFTER   8 CYCLES          *
               *****************************************************

             **** ENERGY FILE WAS UPDATED (sp.en.tmp) ****

----------------
TOTAL SCF ENERGY
----------------

Total Energy       :       -667.80890327181157 Eh          -18172.00410 eV

Components:
Nuclear Repulsion  :        944.54805318998217 Eh           25702.45922 eV
Electronic Energy  :      -1612.35695646179374 Eh          -43874.46332 eV
One Electron Energy:      -2781.78094835653656 Eh          -75696.10792 eV
Two Electron Energy:       1169.42399189474281 Eh           31821.64460 eV

Virial components:
Potential Energy   :      -1330.11880794901663 Eh          -36194.37285 eV
Kinetic Energy     :        662.30990467720494 Eh           18022.36875 eV
Virial Ratio       :          2.00830275759999

DFT components:
N(Alpha)           :       52.999789523274 electrons
N(Beta)            :       52.999789523274 electrons
N(Total)           :      105.999579046548 electrons
E(X)               :      -88.967663193918 Eh       
E(C)               :       -3.577282550464 Eh       
E(XC)              :      -92.544945744382 Eh       

---------------
SCF CONVERGENCE
---------------

  Last Energy change         ...    1.5271e-07  Tolerance :   1.0000e-05
  Last MAX-Density change    ...    1.0660e-03  Tolerance :   1.0000e-03
  Last RMS-Density change    ...    4.2992e-05  Tolerance :   1.0000e-04
  Last DIIS Error            ...    3.2658e-03  Tolerance :   5.0000e-04
  Last Orbital Gradient      ...    5.0619e-04  Tolerance :   1.0000e-04
  Last Orbital Rotation      ...    1.4804e-03  Tolerance :   1.0000e-04


----------------
ORBITAL ENERGIES
----------------

  NO   OCC          E(Eh)            E(eV) 
   0   2.0000     -18.804518      -511.6969 
   1   2.0000     -18.713976      -509.2332 
   2   2.0000     -14.020757      -381.5242 
   3   2.0000     -10.022408      -272.7236 
   4   2.0000      -9.953564      -270.8502 
   5   2.0000      -9.925437      -270.0849 
   6   2.0000      -9.905285      -269.5365 
   7   2.0000      -9.904286      -269.5093 
   8   2.0000      -9.896702      -269.3030 
   9   2.0000      -9.895062      -269.2583 
  10   2.0000      -9.894964      -269.2557 
  11   2.0000      -9.894696      -269.2484 
  12   2.0000      -9.894356      -269.2391 
  13   2.0000      -9.894220      -269.2354 
  14   2.0000      -9.894068      -269.2313 
  15   2.0000      -1.012345       -27.5473 
  16   2.0000      -0.914633       -24.8884 
  17   2.0000      -0.844318       -22.9751 
  18   2.0000      -0.795340       -21.6423 
  19   2.0000      -0.746749       -20.3201 
  20   2.0000      -0.698949       -19.0194 
  21   2.0000      -0.670688       -18.2503 
  22   2.0000      -0.656413       -17.8619 
  23   2.0000      -0.639623       -17.4050 
  24   2.0000      -0.593096       -16.1390 
  25   2.0000      -0.559791       -15.2327 
  26   2.0000      -0.556185       -15.1346 
  27   2.0000      -0.517531       -14.0827 
  28   2.0000      -0.487829       -13.2745 
  29   2.0000      -0.466853       -12.7037 
  30   2.0000      -0.451363       -12.2822 
  31   2.0000      -0.445308       -12.1175 
  32   2.0000      -0.441599       -12.0165 
  33   2.0000      -0.422405       -11.4942 
  34   2.0000      -0.402486       -10.9522 
  35   2.0000      -0.400716       -10.9040 
  36   2.0000      -0.383326       -10.4308 
  37   2.0000      -0.381313       -10.3761 
  38   2.0000      -0.366390        -9.9700 
  39   2.0000      -0.363268        -9.8850 
  40   2.0000      -0.357274        -9.7219 
  41   2.0000      -0.355215        -9.6659 
  42   2.0000      -0.341288        -9.2869 
  43   2.0000      -0.332798        -9.0559 
  44   2.0000      -0.304927        -8.2975 
  45   2.0000      -0.299177        -8.1410 
  46   2.0000      -0.294908        -8.0249 
  47   2.0000      -0.260345        -7.0844 
  48   2.0000      -0.254366        -6.9217 
  49   2.0000      -0.227613        -6.1937 
  50   2.0000      -0.219892        -5.9836 
  51   2.0000      -0.215004        -5.8506 
  52   2.0000      -0.195828        -5.3287 
  53   0.0000      -0.069756        -1.8982 
  54   0.0000      -0.041044        -1.1169 
  55   0.0000      -0.003566        -0.0970 
  56   0.0000       0.026257         0.7145 
  57   0.0000       0.030732         0.8363 
  58   0.0000       0.045771         1.2455 
  59   0.0000       0.055836         1.5194 
  60   0.0000       0.058093         1.5808 
  61   0.0000       0.069255         1.8845 
  62   0.0000       0.079047         2.1510 
  63   0.0000       0.091908         2.5009 
*Only the first 10 virtual orbitals were printed.

                    ********************************
                    * MULLIKEN POPULATION ANALYSIS *
                    ********************************

-----------------------
MULLIKEN ATOMIC CHARGES
-----------------------
   0 C :   -0.183441
   1 N :   -0.292960
   2 C :    0.187928
   3 O :   -0.212498
   4 O :   -0.265101
   5 C :    0.174565
   6 C :   -0.112118
   7 C :   -0.042649
   8 C :   -0.110173
   9 C :    0.133296
  10 C :    0.132645
  11 C :   -0.135457
  12 C :   -0.039173
  13 C :   -0.036644
  14 C :   -0.131936
  15 H :    0.113315
  16 H :    0.113210
  17 H :    0.140825
  18 H :    0.238676
  19 H :    0.040129
  20 H :    0.055642
  21 H :    0.038509
  22 H :    0.046588
  23 H :    0.052466
  24 H :    0.053775
  25 H :    0.040581
Sum of atomic charges:    0.0000000

--------------------------------
MULLIKEN REDUCED ORBITAL CHARGES
--------------------------------
  0 C s       :     3.095264  s :     3.095264
      pz      :     0.906057  p :     3.045800
      px      :     1.082921
      py      :     1.056822
      dz2     :     0.009781  d :     0.042377
      dxz     :     0.011663
      dyz     :     0.008063
      dx2y2   :     0.005960
      dxy     :     0.006911

  1 N s       :     3.377338  s :     3.377338
      pz      :     1.119702  p :     3.893665
      px      :     1.207184
      py      :     1.566779
      dz2     :     0.004697  d :     0.021958
      dxz     :     0.008119
      dyz     :     0.002532
      dx2y2   :     0.003338
      dxy     :     0.003272

  2 C s       :     2.971347  s :     2.971347
      pz      :     0.876125  p :     2.687449
      px      :     0.902189
      py      :     0.909135
      dz2     :     0.039693  d :     0.153276
      dxz     :     0.047116
      dyz     :     0.028652
      dx2y2   :     0.019631
      dxy     :     0.018184

  3 O s       :     3.729399  s :     3.729399
      pz      :     1.356865  p :     4.464733
      px      :     1.631930
      py      :     1.475938
      dz2     :     0.006533  d :     0.018365
      dxz     :     0.004482
      dyz     :     0.005455
      dx2y2   :     0.001045
      dxy     :     0.000850

  4 O s       :     3.711131  s :     3.711131
      pz      :     1.509165  p :     4.538141
      px      :     1.334811
      py      :     1.694165
      dz2     :     0.003898  d :     0.015829
      dxz     :     0.004693
      dyz     :     0.002577
      dx2y2   :     0.002101
      dxy     :     0.002561

  5 C s       :     2.991547  s :     2.991547
      pz      :     1.007013  p :     2.766499
      px      :     0.871055
      py      :     0.888431
      dz2     :     0.005463  d :     0.067389
      dxz     :     0.009722
      dyz     :     0.008747
      dx2y2   :     0.021139
      dxy     :     0.022318

  6 C s       :     3.304017  s :     3.304017
      pz      :     1.006212  p :     2.774748
      px      :     0.775621
      py      :     0.992914
      dz2     :     0.003128  d :     0.033354
      dxz     :     0.003779
      dyz     :     0.005729
      dx2y2   :     0.010150
      dxy     :     0.010568

  7 C s       :     3.184103  s :     3.184103
      pz      :     0.993783  p :     2.823109
      px      :     0.975660
      py      :     0.853666
      dz2     :     0.003386  d :     0.035438
      dxz     :     0.006923
      dyz     :     0.002309
      dx2y2   :     0.013871
      dxy     :     0.008948

  8 C s       :     3.275393  s :     3.275393
      pz      :     1.001261  p :     2.800228
      px      :     0.809475
      py      :     0.989493
      dz2     :     0.003405  d :     0.034551
      dxz     :     0.003334
      dyz     :     0.005425
      dx2y2   :     0.010993
      dxy     :     0.011395

  9 C s       :     3.031424  s :     3.031424
      pz      :     0.966825  p :     2.794105
      px      :     0.978921
      py      :     0.848358
      dz2     :     0.003188  d :     0.041176
      dxz     :     0.005980
      dyz     :     0.006890
      dx2y2   :     0.012462
      dxy     :     0.012656

 10 C s       :     3.069046  s :     3.069046
      pz      :     0.987238  p :     2.759049
      px      :     0.957512
      py      :     0.814299
      dz2     :     0.003287  d :     0.039261
      dxz     :     0.005828
      dyz     :     0.006861
      dx2y2   :     0.010548
      dxy     :     0.012735

 11 C s       :     3.292146  s :     3.292146
      pz      :     0.988017  p :     2.808804
      px      :     0.812685
      py      :     1.008102
      dz2     :     0.003440  d :     0.034507
      dxz     :     0.003316
      dyz     :     0.005457
      dx2y2   :     0.011068
      dxy     :     0.011225

 12 C s       :     3.183956  s :     3.183956
      pz      :     0.991056  p :     2.820042
      px      :     0.981372
      py      :     0.847614
      dz2     :     0.003336  d :     0.035175
      dxz     :     0.006573
      dyz     :     0.002335
      dx2y2   :     0.013985
      dxy     :     0.008946

 13 C s       :     3.177825  s :     3.177825
      pz      :     0.986428  p :     2.823701
      px      :     0.885016
      py      :     0.952257
      dz2     :     0.002926  d :     0.035118
      dxz     :     0.003766
      dyz     :     0.005610
      dx2y2   :     0.009629
      dxy     :     0.013187

 14 C s       :     3.282296  s :     3.282296
      pz      :     0.997708  p :     2.815111
      px      :     0.886829
      py      :     0.930574
      dz2     :     0.003357  d :     0.034529
      dxz     :     0.002702
      dyz     :     0.006079
      dx2y2   :     0.009718
      dxy     :     0.012672

 15 H s       :     0.886685  s :     0.886685

 16 H s       :     0.886790  s :     0.886790

 17 H s       :     0.859175  s :     0.859175

 18 H s       :     0.761324  s :     0.761324

 19 H s       :     0.959871  s :     0.959871

 20 H s       :     0.944358  s :     0.944358

 21 H s       :     0.961491  s :     0.961491

 22 H s       :     0.953412  s :     0.953412

 23 H s       :     0.947534  s :     0.947534

 24 H s       :     0.946225  s :     0.946225

 25 H s       :     0.959419  s :     0.959419


------------------------
MULLIKEN OVERLAP CHARGES
------------------------
B(  0-C ,  1-N ) :   0.6305 B(  0-C , 15-H ) :   0.7725 B(  0-C , 16-H ) :   0.7630 
B(  0-C , 17-H ) :   0.7557 B(  0-C , 18-H ) :  -0.0514 B(  1-N ,  2-C ) :   0.7187 
B(  1-N ,  3-O ) :  -0.2001 B(  1-N ,  4-O ) :  -0.2243 B(  1-N , 15-H ) :  -0.0693 
B(  1-N , 16-H ) :  -0.0554 B(  1-N , 18-H ) :   0.6248 B(  2-C ,  3-O ) :   1.4453 
B(  2-C ,  4-O ) :   0.5961 B(  2-C ,  5-C ) :  -0.0663 B(  3-O ,  4-O ) :  -0.1616 
B(  4-O ,  5-C ) :   0.6661 B(  4-O ,  6-C ) :  -0.1402 B(  4-O , 10-C ) :  -0.1923 
B(  5-C ,  6-C ) :   0.3644 B(  5-C ,  7-C ) :   0.4665 B(  5-C ,  8-C ) :  -0.4394 
B(  5-C ,  9-C ) :   0.1545 B(  5-C , 10-C ) :   0.1490 B(  5-C , 11-C ) :  -0.3153 
B(  5-C , 14-C ) :   0.0629 B(  5-C , 19-H ) :  -0.1648 B(  5-C , 22-H ) :  -0.0748 
B(  6-C ,  8-C ) :   0.4040 B(  6-C ,  9-C ) :  -0.3835 B(  6-C , 10-C ) :   0.2194 
B(  6-C , 11-C ) :   0.0532 B(  6-C , 19-H ) :   0.8657 B(  6-C , 20-H ) :  -0.1759 
B(  7-C ,  8-C ) :   0.2020 B(  7-C ,  9-C ) :   0.3950 B(  7-C , 10-C ) :  -0.3666 
B(  7-C , 19-H ) :  -0.1897 B(  7-C , 20-H ) :   0.8869 B(  7-C , 21-H ) :  -0.1886 
B(  8-C ,  9-C ) :   0.3237 B(  8-C , 10-C ) :   0.1144 B(  8-C , 11-C ) :   0.0560 
B(  8-C , 14-C ) :  -0.3184 B(  8-C , 20-H ) :  -0.1791 B(  8-C , 21-H ) :   0.8809 
B(  9-C , 10-C ) :  -0.0977 B(  9-C , 11-C ) :   0.0919 B(  9-C , 12-C ) :  -0.3672 
B(  9-C , 13-C ) :   0.3399 B(  9-C , 14-C ) :   0.3929 B(  9-C , 21-H ) :  -0.1608 
B(  9-C , 25-H ) :  -0.1619 B( 10-C , 11-C ) :   0.3381 B( 10-C , 12-C ) :   0.3278 
B( 10-C , 13-C ) :  -0.3609 B( 10-C , 14-C ) :   0.0890 B( 10-C , 22-H ) :  -0.1406 
B( 11-C , 12-C ) :   0.2945 B( 11-C , 13-C ) :   0.3531 B( 11-C , 14-C ) :  -0.3787 
B( 11-C , 22-H ) :   0.8650 B( 11-C , 23-H ) :  -0.1748 B( 12-C , 13-C ) :   0.1812 
B( 12-C , 14-C ) :   0.3638 B( 12-C , 22-H ) :  -0.1749 B( 12-C , 23-H ) :   0.8838 
B( 12-C , 24-H ) :  -0.1779 B( 13-C , 14-C ) :   0.3061 B( 13-C , 23-H ) :  -0.1777 
B( 13-C , 24-H ) :   0.8816 B( 13-C , 25-H ) :  -0.1863 B( 14-C , 24-H ) :  -0.1749 
B( 14-C , 25-H ) :   0.8789 B( 15-H , 16-H ) :  -0.0700 


                     *******************************
                     * LOEWDIN POPULATION ANALYSIS *
                     *******************************

----------------------
LOEWDIN ATOMIC CHARGES
----------------------
   0 C :   -0.263582
   1 N :   -0.177422
   2 C :    0.021467
   3 O :   -0.193910
   4 O :   -0.058348
   5 C :    0.051850
   6 C :   -0.128217
   7 C :   -0.118078
   8 C :   -0.114808
   9 C :   -0.020770
  10 C :   -0.029115
  11 C :   -0.107834
  12 C :   -0.120911
  13 C :   -0.122832
  14 C :   -0.109062
  15 H :    0.114112
  16 H :    0.118033
  17 H :    0.133571
  18 H :    0.242343
  19 H :    0.131543
  20 H :    0.126775
  21 H :    0.124697
  22 H :    0.126312
  23 H :    0.124734
  24 H :    0.124761
  25 H :    0.124692

-------------------------------
LOEWDIN REDUCED ORBITAL CHARGES
-------------------------------
  0 C s       :     2.939320  s :     2.939320
      pz      :     0.981268  p :     3.225561
      px      :     1.128301
      py      :     1.115992
      dz2     :     0.022697  d :     0.098702
      dxz     :     0.027612
      dyz     :     0.018068
      dx2y2   :     0.013779
      dxy     :     0.016545

  1 N s       :     3.105014  s :     3.105014
      pz      :     1.202968  p :     4.017562
      px      :     1.262858
      py      :     1.551736
      dz2     :     0.012803  d :     0.054846
      dxz     :     0.020392
      dyz     :     0.006146
      dx2y2   :     0.006949
      dxy     :     0.008555

  2 C s       :     2.802600  s :     2.802600
      pz      :     0.977933  p :     2.829338
      px      :     0.930899
      py      :     0.920506
      dz2     :     0.097173  d :     0.346595
      dxz     :     0.108028
      dyz     :     0.060109
      dx2y2   :     0.040491
      dxy     :     0.040794

  3 O s       :     3.543009  s :     3.543009
      pz      :     1.479871  p :     4.618682
      px      :     1.646331
      py      :     1.492480
      dz2     :     0.013015  d :     0.032219
      dxz     :     0.007361
      dyz     :     0.009120
      dx2y2   :     0.001397
      dxy     :     0.001325

  4 O s       :     3.430971  s :     3.430971
      pz      :     1.558761  p :     4.595330
      px      :     1.363163
      py      :     1.673405
      dz2     :     0.007632  d :     0.032047
      dxz     :     0.010620
      dyz     :     0.003679
      dx2y2   :     0.004698
      dxy     :     0.005418

  5 C s       :     2.843963  s :     2.843963
      pz      :     0.995717  p :     2.941289
      px      :     0.892332
      py      :     1.053241
      dz2     :     0.012702  d :     0.162898
      dxz     :     0.019122
      dyz     :     0.018146
      dx2y2   :     0.054958
      dxy     :     0.057970

  6 C s       :     2.895370  s :     2.895370
      pz      :     1.004272  p :     3.143721
      px      :     1.066716
      py      :     1.072732
      dz2     :     0.007304  d :     0.089126
      dxz     :     0.007545
      dyz     :     0.012346
      dx2y2   :     0.030704
      dxy     :     0.031228

  7 C s       :     2.888190  s :     2.888190
      pz      :     0.988104  p :     3.136707
      px      :     1.084256
      py      :     1.064347
      dz2     :     0.007548  d :     0.093181
      dxz     :     0.015891
      dyz     :     0.004187
      dx2y2   :     0.037933
      dxy     :     0.027623

  8 C s       :     2.890194  s :     2.890194
      pz      :     0.997911  p :     3.133530
      px      :     1.071427
      py      :     1.064192
      dz2     :     0.007503  d :     0.091084
      dxz     :     0.006672
      dyz     :     0.011912
      dx2y2   :     0.032145
      dxy     :     0.032851

  9 C s       :     2.836533  s :     2.836533
      pz      :     0.961874  p :     3.072045
      px      :     1.055447
      py      :     1.054724
      dz2     :     0.008059  d :     0.112191
      dxz     :     0.012796
      dyz     :     0.014511
      dx2y2   :     0.038235
      dxy     :     0.038591

 10 C s       :     2.840093  s :     2.840093
      pz      :     0.978395  p :     3.079960
      px      :     1.046778
      py      :     1.054787
      dz2     :     0.008485  d :     0.109062
      dxz     :     0.012381
      dyz     :     0.014392
      dx2y2   :     0.034194
      dxy     :     0.039610

 11 C s       :     2.889343  s :     2.889343
      pz      :     0.986584  p :     3.127572
      px      :     1.076542
      py      :     1.064446
      dz2     :     0.007498  d :     0.090920
      dxz     :     0.006702
      dyz     :     0.012150
      dx2y2   :     0.032199
      dxy     :     0.032371

 12 C s       :     2.890433  s :     2.890433
      pz      :     0.986509  p :     3.137782
      px      :     1.087654
      py      :     1.063618
      dz2     :     0.007488  d :     0.092696
      dxz     :     0.015019
      dyz     :     0.004297
      dx2y2   :     0.038220
      dxy     :     0.027672

 13 C s       :     2.890993  s :     2.890993
      pz      :     0.985987  p :     3.139354
      px      :     1.064739
      py      :     1.088628
      dz2     :     0.006817  d :     0.092486
      dxz     :     0.007578
      dyz     :     0.012287
      dx2y2   :     0.029002
      dxy     :     0.036801

 14 C s       :     2.891672  s :     2.891672
      pz      :     0.989499  p :     3.126452
      px      :     1.055097
      py      :     1.081856
      dz2     :     0.007432  d :     0.090938
      dxz     :     0.005390
      dyz     :     0.013250
      dx2y2   :     0.029290
      dxy     :     0.035576

 15 H s       :     0.885888  s :     0.885888

 16 H s       :     0.881967  s :     0.881967

 17 H s       :     0.866429  s :     0.866429

 18 H s       :     0.757657  s :     0.757657

 19 H s       :     0.868457  s :     0.868457

 20 H s       :     0.873225  s :     0.873225

 21 H s       :     0.875303  s :     0.875303

 22 H s       :     0.873688  s :     0.873688

 23 H s       :     0.875266  s :     0.875266

 24 H s       :     0.875239  s :     0.875239

 25 H s       :     0.875308  s :     0.875308


---------------------------------
LOEWDIN BOND ORDERS (THRESH 0.050000)
---------------------------------
B(  0-C ,  1-N ) :   1.1285 B(  0-C ,  2-C ) :   0.0696 B(  0-C , 15-H ) :   0.9409 
B(  0-C , 16-H ) :   0.9425 B(  0-C , 17-H ) :   0.9353 B(  1-N ,  2-C ) :   1.3677 
B(  1-N ,  3-O ) :   0.1948 B(  1-N ,  4-O ) :   0.0912 B(  1-N , 18-H ) :   0.8539 
B(  2-C ,  3-O ) :   2.1769 B(  2-C ,  4-O ) :   1.2404 B(  2-C ,  5-C ) :   0.0768 
B(  3-O ,  4-O ) :   0.1606 B(  4-O ,  5-C ) :   1.1296 B(  4-O ,  6-C ) :   0.0821 
B(  4-O , 10-C ) :   0.0674 B(  5-C ,  6-C ) :   1.5508 B(  5-C ,  7-C ) :   0.0921 
B(  5-C ,  8-C ) :   0.1149 B(  5-C ,  9-C ) :   0.0796 B(  5-C , 10-C ) :   1.2655 
B(  5-C , 11-C ) :   0.0785 B(  6-C ,  7-C ) :   1.3814 B(  6-C ,  8-C ) :   0.0862 
B(  6-C ,  9-C ) :   0.0675 B(  6-C , 10-C ) :   0.0858 B(  6-C , 19-H ) :   0.8804 
B(  7-C ,  8-C ) :   1.6098 B(  7-C ,  9-C ) :   0.0869 B(  7-C , 10-C ) :   0.0673 
B(  7-C , 20-H ) :   0.8855 B(  8-C ,  9-C ) :   1.3136 B(  8-C , 10-C ) :   0.0735 
B(  8-C , 14-C ) :   0.0814 B(  8-C , 21-H ) :   0.8822 B(  9-C , 10-C ) :   1.2369 
B(  9-C , 11-C ) :   0.0729 B(  9-C , 12-C ) :   0.0706 B(  9-C , 13-C ) :   0.0859 
B(  9-C , 14-C ) :   1.3157 B( 10-C , 11-C ) :   1.3127 B( 10-C , 12-C ) :   0.0868 
B( 10-C , 13-C ) :   0.0705 B( 10-C , 14-C ) :   0.0746 B( 11-C , 12-C ) :   1.6107 
B( 11-C , 13-C ) :   0.0860 B( 11-C , 14-C ) :   0.1246 B( 11-C , 22-H ) :   0.8804 
B( 12-C , 13-C ) :   1.3846 B( 12-C , 14-C ) :   0.0856 B( 12-C , 23-H ) :   0.8875 
B( 13-C , 14-C ) :   1.6121 B( 13-C , 24-H ) :   0.8874 B( 14-C , 25-H ) :   0.8823 


------------------------------------------
LOEWDIN REDUCED ORBITAL POPULATIONS PER MO
-------------------------------------------
THRESHOLD FOR PRINTING IS 0.1%%
                      0         1         2         3         4         5   
                 -18.80452 -18.71398 -14.02076 -10.02241  -9.95356  -9.92544
                   2.00000   2.00000   2.00000   2.00000   2.00000   2.00000
                  --------  --------  --------  --------  --------  --------
 0 C  s               0.0       0.0       0.0       0.0       0.0      99.7
 1 N  s               0.0       0.0      99.8       0.0       0.0       0.0
 1 N  pz              0.0       0.0       0.0       0.0       0.0       0.1
 1 N  px              0.0       0.0       0.0       0.1       0.0       0.0
 2 C  s               0.0       0.0       0.0      99.3       0.0       0.0
 3 O  s               0.0      99.9       0.0       0.0       0.0       0.0
 3 O  pz              0.0       0.0       0.0       0.2       0.0       0.0
 4 O  s              99.9       0.0       0.0       0.0       0.0       0.0
 5 C  s               0.0       0.0       0.0       0.0      99.5       0.0
 6 C  py              0.0       0.0       0.0       0.0       0.2       0.0

                      6         7         8         9        10        11   
                  -9.90528  -9.90429  -9.89670  -9.89506  -9.89496  -9.89470
                   2.00000   2.00000   2.00000   2.00000   2.00000   2.00000
                  --------  --------  --------  --------  --------  --------
 5 C  py              0.0       0.0       0.0       0.0       0.1       0.0
 6 C  s               0.0       0.0       0.3       0.1      99.1       0.0
 6 C  px              0.0       0.0       0.1       0.0       0.0       0.0
 7 C  s               0.0       0.0      98.9       0.0       0.3       0.0
 7 C  px              0.0       0.0       0.0       0.0       0.1       0.0
 8 C  s               0.0       0.0       0.5       0.0       0.0       0.0
 8 C  px              0.0       0.0       0.1       0.0       0.0       0.0
 8 C  py              0.1       0.0       0.0       0.0       0.0       0.0
 9 C  s              99.2       0.3       0.0       0.0       0.0       0.0
 9 C  px              0.0       0.1       0.0       0.1       0.0       0.0
10 C  s               0.3      99.2       0.0       0.0       0.0       0.0
10 C  px              0.1       0.0       0.0       0.0       0.0       0.0
11 C  s               0.0       0.0       0.0       0.4       0.0      16.1
11 C  py              0.0       0.1       0.0       0.0       0.0       0.0
12 C  s               0.0       0.0       0.0       0.1       0.0      77.7
13 C  s               0.0       0.0       0.0       6.7       0.0       5.4
13 C  py              0.0       0.0       0.0       0.1       0.0       0.0
14 C  s               0.0       0.0       0.0      92.2       0.1       0.4

                     12        13        14        15        16        17   
                  -9.89436  -9.89422  -9.89407  -1.01235  -0.91463  -0.84432
                   2.00000   2.00000   2.00000   2.00000   2.00000   2.00000
                  --------  --------  --------  --------  --------  --------
 0 C  s               0.0       0.0       0.0       0.3       0.3       9.6
 0 C  pz              0.0       0.0       0.0       0.3       0.3       4.3
 0 C  px              0.0       0.0       0.0       0.2       0.0       0.6
 0 C  py              0.0       0.0       0.0       0.1       0.0       0.5
 0 C  dz2             0.0       0.0       0.0       0.0       0.0       0.2
 1 N  s               0.0       0.0       0.0       3.2       3.9      39.0
 1 N  pz              0.0       0.0       0.0       0.0       0.4       0.6
 1 N  px              0.0       0.0       0.0       1.3       0.3       0.0
 1 N  py              0.0       0.0       0.0       0.4       0.2       0.0
 2 C  s               0.0       0.0       0.0      19.0       8.2       0.8
 2 C  pz              0.0       0.0       0.0       1.1      19.1       5.0
 2 C  px              0.0       0.0       0.0       2.1       0.9      10.5
 2 C  py              0.0       0.0       0.0       0.2       0.3       4.6
 2 C  dz2             0.0       0.0       0.0       0.5       0.2       0.5
 2 C  dxz             0.0       0.0       0.0       0.2       0.9       0.0
 2 C  dyz             0.0       0.0       0.0       0.0       0.5       0.0
 2 C  dx2y2           0.0       0.0       0.0       0.1       0.0       0.1
 2 C  dxy             0.0       0.0       0.0       0.1       0.1       0.2
 3 O  s               0.0       0.0       0.0       8.6      35.8       8.1
 3 O  pz              0.0       0.0       0.0       2.1       3.5       0.6
 3 O  px              0.0       0.0       0.0       0.1       0.6       0.0
 3 O  py              0.0       0.0       0.0       0.2       0.6       0.0
 4 O  s               0.0       0.0       0.0      41.1      14.6       0.2
 4 O  pz              0.0       0.0       0.0       2.8       0.2       0.0
 4 O  px              0.0       0.0       0.0       0.0       0.8       1.1
 4 O  py              0.0       0.0       0.0       0.1       0.2       0.3
 5 C  s               0.0       0.0       0.0       5.4       2.9       0.8
 5 C  pz              0.0       0.0       0.0       0.0       0.2       0.0
 5 C  px              0.0       0.0       0.0       5.0       1.3       0.1
 5 C  py              0.0       0.0       0.0       1.2       0.4       0.0
 5 C  dz2             0.0       0.0       0.0       0.2       0.1       0.0
 5 C  dx2y2           0.0       0.0       0.0       0.1       0.1       0.0
 5 C  dxy             0.0       0.0       0.0       0.3       0.1       0.0
 6 C  s               0.0       0.0       0.0       0.4       0.3       0.2
 6 C  py              0.0       0.0       0.0       0.6       0.4       0.1
 7 C  s               0.0       0.0       0.5       0.0       0.0       0.0
 7 C  px              0.0       0.0       0.1       0.0       0.0       0.0
 8 C  s               0.1       0.2      98.8       0.0       0.0       0.0
 9 C  py              0.0       0.0       0.1       0.0       0.0       0.0
10 C  s               0.0       0.0       0.0       0.4       0.3       0.2
10 C  px              0.0       0.0       0.0       0.6       0.3       0.0
11 C  s               4.2      78.7       0.1       0.0       0.0       0.0
12 C  s               2.9      19.0       0.0       0.0       0.0       0.0
12 C  px              0.1       0.1       0.0       0.0       0.0       0.0
13 C  s              85.8       1.6       0.1       0.0       0.0       0.0
14 C  s               6.7       0.1       0.0       0.0       0.0       0.0
14 C  py              0.1       0.0       0.0       0.0       0.0       0.0
15 H  s               0.0       0.0       0.0       0.0       0.0       1.2
16 H  s               0.0       0.0       0.0       0.0       0.0       1.3
17 H  s               0.0       0.0       0.0       0.2       0.0       1.4
18 H  s               0.0       0.0       0.0       0.5       0.9       6.7

                     18        19        20        21        22        23   
                  -0.79534  -0.74675  -0.69895  -0.67069  -0.65641  -0.63962
                   2.00000   2.00000   2.00000   2.00000   2.00000   2.00000
                  --------  --------  --------  --------  --------  --------
 0 C  s               0.2       0.1       0.8       0.0       7.5      23.5
 0 C  pz              0.1       0.0       0.1       0.0       0.0       0.6
 0 C  px              0.0       0.0       0.0       0.0       0.2       0.1
 0 C  py              0.0       0.0       0.0       0.0       0.0       0.1
 1 N  s               0.7       0.2       0.4       0.0       0.0       2.1
 1 N  pz              0.0       0.0       0.0       0.0       1.4      11.3
 1 N  px              0.1       0.1       1.0       0.0       4.2       3.0
 1 N  py              0.0       0.0       0.2       0.0       1.4       2.4
 2 C  s               0.0       0.1       0.9       0.0       2.3       1.0
 2 C  pz              0.3       0.2       1.6       0.0       2.1       0.1
 2 C  px              0.3       0.1       0.1       0.0       0.3       4.6
 2 C  py              0.0       0.0       0.0       0.0       0.5       1.2
 2 C  dz2             0.0       0.0       0.0       0.0       0.0       0.2
 3 O  s               0.0       0.0       0.2       0.0       0.8       1.2
 3 O  pz              0.0       0.0       0.1       0.0       0.1       0.1
 3 O  px              0.0       0.0       0.0       0.0       0.0       0.4
 3 O  py              0.0       0.0       0.0       0.0       0.0       0.1
 4 O  s               0.9       0.4       0.8       0.0       0.0       0.3
 4 O  pz              0.1       0.1       0.6       0.0       1.0       0.0
 4 O  px              0.5       0.6       4.7       0.0       5.5       0.1
 4 O  py              0.0       0.2       0.5       0.2       1.6       0.1
 5 C  s               4.8       4.1       8.2       0.0       3.9       2.1
 5 C  pz              0.1       0.0       0.0       0.2       0.1       0.0
 5 C  px              3.5       0.4       0.7       1.4       0.7       0.2
 5 C  py              0.1       3.1       0.2       6.2       0.3       0.7
 5 C  dx2y2           0.0       0.0       0.0       0.1       0.0       0.0
 6 C  s               4.2      10.7       1.3      10.3       0.6       1.6
 6 C  px              1.0       1.4       0.6       0.4       1.4       0.4
 6 C  py              0.4       0.1       2.1       0.7       1.9       0.9
 6 C  dz2             0.0       0.1       0.0       0.1       0.0       0.0
 7 C  s               4.7      10.7       2.2       8.1       3.3       1.3
 7 C  px              0.0       0.2       2.5       2.0       1.1       2.0
 7 C  py              1.4       1.3       0.1       0.0       0.0       0.0
 7 C  dz2             0.1       0.1       0.0       0.1       0.0       0.0
 8 C  s               7.2       4.9       9.8       0.1       2.9       3.4
 8 C  pz              0.0       0.1       0.0       0.1       0.0       0.0
 8 C  px              0.7       2.0       0.0       1.2       0.6       0.1
 8 C  py              1.2       0.4       0.3       4.4       0.8       0.3
 8 C  dx2y2           0.0       0.0       0.0       0.1       0.0       0.0
 9 C  s              15.4       0.0       6.2       8.5       0.2       0.0
 9 C  pz              0.0       0.1       0.0       0.0       0.1       0.0
 9 C  px              0.4       1.0       4.8       0.8       2.0       0.0
 9 C  py              0.1       4.6       1.6       0.1       1.5       1.4
 9 C  dz2             0.2       0.0       0.1       0.1       0.0       0.0
10 C  s              14.3       0.0       6.2       8.6       0.4       0.2
10 C  pz              0.0       0.1       0.1       0.0       0.1       0.0
10 C  px              0.8       0.9       4.9       0.6       0.2       0.2
10 C  py              0.1       4.6       1.3       0.2       2.8       1.0
10 C  dz2             0.2       0.0       0.1       0.1       0.0       0.0
10 C  dx2y2           0.0       0.0       0.0       0.0       0.1       0.0
10 C  dxy             0.0       0.0       0.1       0.1       0.0       0.0
11 C  s               6.7       5.4       8.4       0.0       8.4       1.6
11 C  pz              0.0       0.1       0.0       0.2       0.0       0.0
11 C  px              0.8       1.8       0.0       1.5       0.2       0.1
11 C  py              1.1       0.2       0.4       4.7       0.2       0.4
11 C  dx2y2           0.0       0.0       0.0       0.1       0.0       0.0
12 C  s               4.7      10.4       1.6       9.5       2.9       1.1
12 C  pz              0.0       0.0       0.1       0.0       0.1       0.0
12 C  px              0.0       0.1       2.3       1.6       3.9       0.8
12 C  py              1.4       1.3       0.1       0.0       0.0       0.0
12 C  dz2             0.1       0.1       0.0       0.1       0.0       0.0
12 C  dxy             0.0       0.0       0.1       0.0       0.1       0.0
13 C  s               4.8      10.2       1.4      10.1       3.3       0.6
13 C  px              0.8       1.3       0.5       0.6       1.3       0.4
13 C  py              0.6       0.1       2.0       0.9       2.7       0.7
13 C  dz2             0.1       0.1       0.0       0.1       0.0       0.0
13 C  dx2y2           0.0       0.0       0.1       0.0       0.1       0.0
14 C  s               7.3       4.9       8.4       0.0       8.6       1.6
14 C  pz              0.0       0.0       0.0       0.2       0.0       0.0
14 C  px              1.9       0.1       0.2       1.1       0.1       0.0
14 C  py              0.0       2.1       0.3       5.2       0.4       0.2
14 C  dx2y2           0.0       0.0       0.0       0.1       0.0       0.0
15 H  s               0.0       0.0       0.2       0.0       1.9       6.2
16 H  s               0.0       0.0       0.2       0.0       2.1       6.5
17 H  s               0.0       0.0       0.1       0.0       1.3       6.3
18 H  s               0.2       0.1       0.3       0.0       0.1       1.5
19 H  s               0.5       1.5       0.2       2.4       0.2       0.4
20 H  s               0.6       1.5       0.4       1.8       0.8       0.4
21 H  s               1.0       0.6       2.1       0.0       0.5       0.9
22 H  s               0.8       0.7       1.7       0.0       2.0       0.4
23 H  s               0.6       1.5       0.3       2.1       0.7       0.3
24 H  s               0.6       1.5       0.3       2.2       0.8       0.2
25 H  s               1.0       0.6       1.9       0.0       2.0       0.3

                     24        25        26        27        28        29   
                  -0.59310  -0.55979  -0.55619  -0.51753  -0.48783  -0.46685
                   2.00000   2.00000   2.00000   2.00000   2.00000   2.00000
                  --------  --------  --------  --------  --------  --------
 0 C  s               1.7       0.1       0.0       0.3       0.6       0.0
 0 C  pz              1.3       0.2       0.0       1.8       5.7       0.1
 0 C  px              0.3       0.1       0.0       0.9       1.2       0.0
 0 C  py              0.0       0.0       0.0       0.0       0.0       0.2
 0 C  dz2             0.0       0.0       0.0       0.1       0.1       0.0
 1 N  s               2.1       0.1       0.0       0.3       0.2       0.0
 1 N  pz              5.3       0.5       0.0       1.7       0.2       0.2
 1 N  px              4.8       1.2       0.0      10.7      14.8       0.3
 1 N  py              0.3       0.1       0.0       1.4       3.3       0.2
 1 N  dxz             0.0       0.0       0.0       0.1       0.1       0.0
 2 C  s               2.3       0.3       0.0       0.8       0.0       0.0
 2 C  pz              3.8       0.3       0.0       0.1       1.4       0.3
 2 C  px              0.5       0.0       0.0       1.9      10.7       0.1
 2 C  py              0.0       0.1       0.2       1.1       1.7       1.9
 2 C  dz2             0.1       0.0       0.0       0.0       0.0       0.0
 2 C  dxz             0.0       0.0       0.0       0.1       0.2       0.0
 3 O  s               0.1       0.0       0.0       0.1       0.0       0.0
 3 O  pz              0.2       0.0       0.0       0.0       0.4       0.2
 3 O  px              0.1       0.0       0.0       0.2       2.3       0.0
 3 O  py              0.0       0.0       0.0       0.1       0.3       0.4
 4 O  s               0.6       0.2       0.0       1.4       0.5       0.4
 4 O  pz              3.0       0.4       0.0       0.0      11.9       0.4
 4 O  px             14.9       0.5       0.5       0.0       4.9       1.7
 4 O  py              1.7       0.4       1.2       0.1       0.5       4.2
 4 O  dz2             0.1       0.0       0.0       0.0       0.1       0.0
 5 C  s               0.5       1.1       0.1       2.7       0.0       0.0
 5 C  pz              0.4       0.3       0.2       0.0       2.9       0.0
 5 C  px              4.3       4.8       1.1       0.7       2.7       2.0
 5 C  py              3.6       0.5       9.0       0.2       0.8       6.4
 5 C  dx2y2           0.1       0.0       0.0       0.2       0.0       0.1
 5 C  dxy             0.1       0.1       0.0       0.1       0.1       0.1
 6 C  s               4.8       2.7       2.5       0.0       0.1       0.5
 6 C  pz              0.0       0.1       0.0       0.0       0.4       0.0
 6 C  px              0.1       0.4       3.4       0.4       0.3       7.1
 6 C  py              0.4       3.5       2.2       3.9       0.5       3.0
 7 C  s               0.0       1.5       6.8       1.5       0.6       1.6
 7 C  pz              0.2       0.1       0.0       0.1       0.0       0.2
 7 C  px              7.4       2.0       0.9       1.1       0.1       4.9
 7 C  py              0.0       1.4       1.8       0.8       1.7       0.6
 7 C  dxy             0.2       0.0       0.0       0.0       0.0       0.1
 8 C  s               7.6       0.5       0.0       2.1       0.0       3.9
 8 C  pz              0.0       0.0       0.2       0.0       0.0       0.0
 8 C  px              0.6       0.3       1.8       2.6       0.0       1.8
 8 C  py              0.3       0.3       7.9       0.0       0.5       2.5
 8 C  dx2y2           0.0       0.0       0.1       0.0       0.0       0.0
 9 C  s               0.0       0.0       4.5       1.7       0.3       0.8
 9 C  pz              0.0       0.3       0.0       0.0       0.0       0.0
 9 C  px              0.9       7.5       0.5       4.0       0.0       0.7
 9 C  py              4.6       2.1       1.3       4.2       1.7       0.0
 9 C  dx2y2           0.1       0.0       0.0       0.0       0.0       0.2
 9 C  dxy             0.0       0.0       0.0       0.0       0.0       0.1
10 C  s               1.6       1.2       2.8       0.4       0.0       0.0
10 C  pz              0.1       0.1       0.0       0.2       0.1       0.3
10 C  px              0.9       0.4       3.4       9.9       1.7       1.4
10 C  py              0.0       9.0       1.7       0.2       0.2       4.8
10 C  dx2y2           0.0       0.0       0.0       0.1       0.1       0.2
11 C  s               0.0       6.4       0.0       2.5       0.8       0.9
11 C  pz              0.0       0.0       0.3       0.0       0.0       0.0
11 C  px              0.0       0.5       2.9       3.6       1.7       0.4
11 C  py              1.2       0.1       6.2       1.5       0.8       4.3
12 C  s               1.5       1.5       5.8       0.0       0.0       2.6
12 C  pz              0.0       0.4       0.0       0.0       0.0       0.1
12 C  px              0.0       9.8       1.1       1.7       0.6       0.2
12 C  py              0.3       0.8       1.2       0.5       0.6      10.3
12 C  dxy             0.0       0.2       0.0       0.0       0.0       0.0
13 C  s               0.1       5.9       3.0       0.1       0.1       1.1
13 C  px              0.1       0.1       3.5       2.4       2.1       0.0
13 C  py              0.9       6.8       2.1       0.5       0.0       0.5
14 C  s               0.3       5.2       0.9       2.1       0.4       1.6
14 C  pz              0.0       0.0       0.2       0.1       0.1       0.0
14 C  px              0.1       0.1       2.1       6.0       3.2       0.5
14 C  py              0.1       3.3       5.4       0.3       0.0       5.1
15 H  s               0.5       0.0       0.0       0.1       0.3       0.0
16 H  s               0.3       0.0       0.0       0.0       0.0       0.1
17 H  s               1.4       0.1       0.0       1.2       3.2       0.1
18 H  s               5.2       0.7       0.0       4.7       4.5       0.0
19 H  s               1.4       2.3       1.4       0.0       0.1       1.4
20 H  s               0.0       1.3       3.8       1.2       1.3       1.3
21 H  s               3.0       0.0       0.0       2.6       0.0       4.7
22 H  s               0.0       2.6       0.1       3.8       1.6       0.2
23 H  s               0.7       1.0       3.0       0.1       0.1       7.5
24 H  s               0.1       3.4       1.5       0.3       0.6       0.2
25 H  s               0.0       2.3       0.3       4.1       1.4       2.4

                     30        31        32        33        34        35   
                  -0.45136  -0.44531  -0.44160  -0.42241  -0.40249  -0.40072
                   2.00000   2.00000   2.00000   2.00000   2.00000   2.00000
                  --------  --------  --------  --------  --------  --------
 0 C  s               0.0       1.2       0.6       0.0       0.0       0.1
 0 C  pz              0.0      13.6       3.9       0.3       0.5       0.5
 0 C  px              0.0       7.5       5.0       2.0       1.9       0.4
 0 C  py              0.1       2.2       1.5      13.9      11.3       2.0
 0 C  dz2             0.0       0.3       0.1       0.0       0.0       0.0
 0 C  dxz             0.0       0.2       0.0       0.0       0.0       0.1
 0 C  dyz             0.0       0.2       0.1       0.0       0.0       0.0
 1 N  s               0.0       1.1       0.3       0.0       0.0       0.2
 1 N  pz              0.0      21.7       6.7       0.7       0.0       3.0
 1 N  px              0.0       0.1       0.0       2.7       1.7       1.0
 1 N  py              0.1       1.4       0.4      11.2       3.7       0.9
 1 N  dxz             0.0       0.0       0.0       0.0       0.0       0.1
 2 C  s               0.0       0.2       1.6       0.0       0.1       1.1
 2 C  pz              0.0       0.3       0.1       0.7       0.1       0.6
 2 C  px              0.1       0.8       0.3       3.5       0.1       0.0
 2 C  py              0.4       0.0       0.0      12.8       0.3       0.1
[...]
                  --------  --------  --------  --------
 0 C  dz2             0.1       0.0       0.0       0.3
 0 C  dxz             0.0       0.0       0.1       0.0
 1 N  s               0.1       0.1       0.2       0.0
 1 N  px              0.0       0.1       0.9       0.0
 1 N  py              0.0       0.0       0.3       0.0
 1 N  dz2             0.0       0.2       2.6       0.3
 1 N  dxz             0.7       0.0       0.0       2.8
 1 N  dyz             0.1       0.0       0.1       1.0
 1 N  dx2y2           0.0       0.1       0.7       0.3
 1 N  dxy             0.2       0.1       1.4       0.0
 2 C  s               1.0       2.3       1.6       2.6
 2 C  pz              0.1       1.4       0.0       4.2
 2 C  px              0.2       0.3       0.9       0.1
 2 C  py              0.0       0.2       0.3       0.4
 2 C  dz2             0.7       0.5      13.0       2.8
 2 C  dxz             0.0       1.0       9.1       5.7
 2 C  dyz             0.4       0.2       0.2       3.3
 2 C  dx2y2           0.7       0.1       0.1       0.4
 2 C  dxy             0.7       0.8       2.0       0.0
 3 O  s               0.5       1.7       0.6       3.2
 3 O  pz              0.2       1.1       0.1       2.5
 3 O  px              0.0       0.0       0.8       0.1
 3 O  py              0.0       0.0       0.3       0.2
 3 O  dz2             3.9      19.6       0.8      24.3
 3 O  dxz             0.5       0.0      19.5       3.1
 3 O  dyz             1.3       3.0       5.8       8.2
 3 O  dx2y2           0.2       0.1       0.1       0.2
 3 O  dxy             0.0       0.0       4.9       0.1
 4 O  s               0.1       0.7       0.3       0.6
 4 O  pz              0.2       0.1       0.5       0.5
 4 O  px              0.3       0.6       2.0       1.0
 4 O  py              0.1       0.1       0.4       0.1
 4 O  dz2             7.0       3.2       1.5      10.3
 4 O  dxz             0.0       0.0      21.9       1.3
 4 O  dyz             0.1       0.0       3.1       0.0
 4 O  dx2y2           0.0       5.2       1.2       2.9
 4 O  dxy             7.0       6.3       0.0       6.3
 5 C  s               0.7       0.0       0.3       0.3
 5 C  px              0.1       0.9       0.2       0.8
 5 C  py              0.7       0.1       0.0       0.2
 5 C  dz2             0.2       0.0       0.4       0.3
 5 C  dxz             0.7       0.1       0.5       0.2
 5 C  dyz             0.0       0.5       0.2       0.2
 5 C  dx2y2           3.2       2.8       0.3       1.3
 5 C  dxy             0.4       8.2       0.1       2.8
 6 C  s               0.0       0.4       0.0       0.1
 6 C  py              0.3       0.0       0.0       0.0
 6 C  dz2             0.0       0.1       0.0       0.0
 6 C  dx2y2           0.5       0.5       0.0       0.1
 6 C  dxy             0.3       4.4       0.0       0.7
 7 C  s               0.0       0.3       0.0       0.0
 7 C  px              0.2       0.0       0.0       0.0
 7 C  dxz             0.0       0.1       0.0       0.0
 7 C  dx2y2           0.2       3.5       0.0       0.5
 7 C  dxy             0.4       0.0       0.0       0.0
 8 C  s               0.1       0.4       0.0       0.1
 8 C  py              0.5       0.1       0.0       0.0
 8 C  dz2             0.0       0.1       0.0       0.0
 8 C  dyz             0.0       0.2       0.0       0.0
 8 C  dx2y2           1.5       1.5       0.0       0.1
 8 C  dxy             0.0       1.8       0.0       0.2
 9 C  s               0.2       0.0       0.0       0.0
 9 C  py              0.4       0.1       0.0       0.0
 9 C  dxz             0.3       0.2       0.0       0.0
 9 C  dx2y2           9.9       3.4       0.0       0.3
 9 C  dxy             0.0       3.2       0.0       0.4
10 C  s               0.1       0.0       0.0       0.0
10 C  px              0.3       0.1       0.0       0.0
10 C  py              0.1       0.2       0.0       0.0
10 C  dxz             0.1       0.2       0.0       0.1
10 C  dyz             0.1       0.0       0.1       0.0
10 C  dx2y2           0.3       7.2       0.0       1.1
10 C  dxy            11.7       1.2       0.0       0.0
11 C  s               0.6       0.3       0.0       0.0
11 C  py              0.0       0.3       0.0       0.0
11 C  dz2             0.2       0.0       0.0       0.0
11 C  dyz             0.4       0.1       0.0       0.0
11 C  dx2y2           1.7       1.5       0.0       0.1
11 C  dxy             7.5       0.3       0.0       0.0
12 C  s               1.0       0.1       0.0       0.0
12 C  py              0.1       0.0       0.0       0.0
12 C  dz2             0.3       0.0       0.0       0.0
12 C  dxz             0.4       0.0       0.0       0.0
12 C  dx2y2           7.6       1.1       0.0       0.1
13 C  s               0.8       0.1       0.0       0.0
13 C  dz2             0.5       0.1       0.0       0.0
13 C  dx2y2           1.3       0.0       0.0       0.0
13 C  dxy             6.1       1.1       0.0       0.1
14 C  s               0.6       0.2       0.0       0.0
14 C  px              0.0       0.1       0.0       0.0
14 C  dz2             0.2       0.0       0.0       0.0
14 C  dyz             0.4       0.1       0.0       0.0
14 C  dx2y2           3.1       0.1       0.0       0.0
14 C  dxy             4.4       1.6       0.0       0.1
19 H  s               0.0       0.2       0.0       0.1
20 H  s               0.0       0.2       0.0       0.0
21 H  s               0.0       0.1       0.0       0.0
22 H  s               0.4       0.1       0.0       0.0
23 H  s               0.3       0.0       0.0       0.0
24 H  s               0.3       0.0       0.0       0.0
25 H  s               0.3       0.1       0.0       0.0


                      *****************************
                      * MAYER POPULATION ANALYSIS *
                      *****************************

  NA   - Mulliken gross atomic population
  ZA   - Total nuclear charge
  QA   - Mulliken gross atomic charge
  VA   - Mayer's total valence
  BVA  - Mayer's bonded valence
  FA   - Mayer's free valence

  ATOM       NA         ZA         QA         VA         BVA        FA
  0 C      6.1834     6.0000    -0.1834     3.9061     3.9061    -0.0000
  1 N      7.2930     7.0000    -0.2930     3.2085     3.2085     0.0000
  2 C      5.8121     6.0000     0.1879     4.4175     4.4175    -0.0000
  3 O      8.2125     8.0000    -0.2125     2.2977     2.2977    -0.0000
  4 O      8.2651     8.0000    -0.2651     2.2180     2.2180    -0.0000
  5 C      5.8254     6.0000     0.1746     3.9443     3.9443     0.0000
  6 C      6.1121     6.0000    -0.1121     3.8146     3.8146     0.0000
  7 C      6.0426     6.0000    -0.0426     3.7613     3.7613     0.0000
  8 C      6.1102     6.0000    -0.1102     3.7317     3.7317     0.0000
  9 C      5.8667     6.0000     0.1333     3.8450     3.8450     0.0000
 10 C      5.8674     6.0000     0.1326     3.8455     3.8455     0.0000
 11 C      6.1355     6.0000    -0.1355     3.7777     3.7777     0.0000
 12 C      6.0392     6.0000    -0.0392     3.7970     3.7970     0.0000
 13 C      6.0366     6.0000    -0.0366     3.7926     3.7926    -0.0000
 14 C      6.1319     6.0000    -0.1319     3.7868     3.7868     0.0000
 15 H      0.8867     1.0000     0.1133     0.9498     0.9498     0.0000
 16 H      0.8868     1.0000     0.1132     0.9532     0.9532    -0.0000
 17 H      0.8592     1.0000     0.1408     0.9830     0.9830    -0.0000
 18 H      0.7613     1.0000     0.2387     0.9236     0.9236     0.0000
 19 H      0.9599     1.0000     0.0401     0.9644     0.9644     0.0000
 20 H      0.9444     1.0000     0.0556     0.9503     0.9503    -0.0000
 21 H      0.9615     1.0000     0.0385     0.9585     0.9585     0.0000
 22 H      0.9534     1.0000     0.0466     0.9644     0.9644     0.0000
 23 H      0.9475     1.0000     0.0525     0.9503     0.9503    -0.0000
 24 H      0.9462     1.0000     0.0538     0.9495     0.9495    -0.0000
 25 H      0.9594     1.0000     0.0406     0.9580     0.9580     0.0000

  Mayer bond orders larger than 0.100000
B(  0-C ,  1-N ) :   1.0188 B(  0-C , 15-H ) :   0.9547 B(  0-C , 16-H ) :   0.9566 
B(  0-C , 17-H ) :   0.9443 B(  1-N ,  2-C ) :   1.2183 B(  1-N , 18-H ) :   0.8645 
B(  2-C ,  3-O ) :   2.0669 B(  2-C ,  4-O ) :   1.0530 B(  4-O ,  5-C ) :   0.9940 
B(  5-C ,  6-C ) :   1.4931 B(  5-C , 10-C ) :   1.2492 B(  6-C ,  7-C ) :   1.2170 
B(  6-C , 19-H ) :   0.9617 B(  7-C ,  8-C ) :   1.4452 B(  7-C , 20-H ) :   0.9607 
B(  8-C ,  9-C ) :   1.2365 B(  8-C , 21-H ) :   0.9671 B(  9-C , 10-C ) :   1.2519 
B(  9-C , 14-C ) :   1.2393 B( 10-C , 11-C ) :   1.2585 B( 11-C , 12-C ) :   1.4501 
B( 11-C , 22-H ) :   0.9559 B( 12-C , 13-C ) :   1.2574 B( 12-C , 23-H ) :   0.9625 
B( 13-C , 14-C ) :   1.4624 B( 13-C , 24-H ) :   0.9620 B( 14-C , 25-H ) :   0.9649 


-------
TIMINGS
-------

Total SCF time: 0 days 0 hours 0 min 9 sec 

Total time                  ....       9.982 sec
Sum of individual times     ....       9.946 sec  ( 99.6%)

SCF preparation             ....       0.612 sec  (  6.1%)
Fock matrix formation       ....       7.301 sec  ( 73.1%)
  Startup                   ....       0.008 sec  (  0.1% of F)
  Split-RI-J                ....       4.105 sec  ( 56.2% of F)
  XC integration            ....       3.096 sec  ( 42.4% of F)
    XC Preparation          ....       0.000 sec  (  0.0% of XC)
    Basis function eval.    ....       1.251 sec  ( 40.4% of XC)
    Density eval.           ....       0.714 sec  ( 23.1% of XC)
    XC-Functional eval.     ....       0.183 sec  (  5.9% of XC)
    XC-Potential eval.      ....       0.753 sec  ( 24.3% of XC)
Diagonalization             ....       0.000 sec  (  0.0%)
Density matrix formation    ....       0.033 sec  (  0.3%)
Total Energy calculation    ....       0.002 sec  (  0.0%)
Population analysis         ....       1.639 sec  ( 16.4%)
Orbital Transformation      ....       0.229 sec  (  2.3%)
Orbital Orthonormalization  ....       0.000 sec  (  0.0%)
DIIS solution               ....       0.102 sec  (  1.0%)
  MO trafo                  ....       0.000 sec  (  0.0 % of DIIS)
  Orb grad                  ....       0.000 sec  (  0.0 % of DIIS)
  Energy W gradient         ....       0.000 sec  (  0.0 % of DIIS)
  DIIS error                ....       0.009 sec  (  8.6 % of DIIS)
  DIIS work                 ....       0.081 sec  ( 79.1 % of DIIS)
  Form Q                    ....       0.000 sec  (  0.0 % of DIIS)
  Form QpQm                 ....       0.000 sec  (  0.0 % of DIIS)
  Exp/Cayley                ....       0.000 sec  (  0.0 % of DIIS)
  Orb update                ....       0.000 sec  (  0.0 % of DIIS)
  Wake-sleep                ....       0.001 sec  (  1.2 % of DIIS)
SOSCF solution              ....       0.029 sec  (  0.3%)
  MO trafo                  ....       0.018 sec  ( 61.8 % of SOSCF)
  Orb grad                  ....       0.000 sec  (  0.8 % of SOSCF)
  Rot update                ....       0.002 sec  (  6.0 % of SOSCF)
  Step                      ....       0.009 sec  ( 30.9 % of SOSCF)
Finished LeanSCF after  11.5 sec

Maximum memory used throughout the entire LEANSCF-calculation: 22.8 MB


-------------------------------------------------------------------------------
                          DFT DISPERSION CORRECTION                            
                                                                               
                                DFTD4 V3.4.0                                   
-------------------------------------------------------------------------------
The PBE functional is recognized
Active option DFTDOPT                   ...         5   

-------------------------   ----------------
Dispersion correction           -0.032686816
-------------------------   ----------------

------------------   -----------------
gCP correction             0.107957558
------------------   -----------------

-------------------------   --------------------
FINAL SINGLE POINT ENERGY      -667.733632529976
-------------------------   --------------------


------------------------------------------------------------------------------
                              ORCA PROPERTY CALCULATIONS
------------------------------------------------------------------------------

GBWName                                 ... sp.gbw
Number of atoms                         ...     26
Number of basis functions               ...    232
Max core memory                         ...   1024 MB

Electric properties:
Dipole moment                           ... YES
Quadrupole moment                       ...  NO
Static polarizability (Dipole/Dipole)   ...  NO
Static polarizability (Dipole/Quad.)    ...  NO
Static polarizability (Quad./Quad.)     ...  NO
Static polarizability (Velocity)        ...  NO

Atomic electric properties:
Dipole moment                           ...  NO
Quadrupole moment                       ...  NO
Static polarizability                   ...  NO

Choice of electric origin               ... Center of mass
Position of electric origin             ...     0.000001    -0.000006    -0.000006

General magnetic properties:
Magnetizability                         ...  NO

EPR properties:
g-Tensor (aka g-matrix)                 ...  NO
Zero-Field splitting spin-orbit         ...  NO
Zero-field splitting spin-spin          ...  NO
Hyperfine couplings                     ...  NO (   0 nuclei)
Quadrupole couplings                    ...  NO (   0 nuclei)
Contact density                         ...  NO (   0 nuclei)

NMR properties:
Chemical shifts                         ...  NO (   0 nuclei)
Spin-rotation constants                 ...  NO (   0 nuclei)
Spin-spin couplings                     ...  NO (   0 nuclei,    0 pairs)

Choice of magnetic origin               ... GIAO
Position of magnetic origin             ...     0.000000     0.000000     0.000000

Properties with geometric perturbations:
SCF Hessian                             ...  NO
IR spectrum                             ...  NO
VCD spectrum                            ...  NO
X-ray spectroscopy properties:
SCF XES/XAS/RIXS spectra                ...  NO


-------------
DIPOLE MOMENT
-------------

Method             : SCF
Type of density    : Electron Density
Multiplicity       :   1
Irrep              :   0
Energy             :  -667.8089032718115732 Eh
Relativity type    : 
Basis              : AO
                                X                 Y                 Z
Electronic contribution:      2.211295437       2.694024823       2.300885263
Nuclear contribution   :     -2.756346410      -3.097694836      -2.975411121
                        -----------------------------------------
Total Dipole Moment    :     -0.545050972      -0.403670013      -0.674525858
                        -----------------------------------------
Magnitude (a.u.)       :      0.956564256
Magnitude (Debye)      :      2.431393112



--------------------
Rotational spectrum 
--------------------
 
Rotational constants in cm-1:             0.035909             0.014708             0.011585 
Rotational constants in MHz :          1076.537902           440.935517           347.317877 

Dipole components along the rotational axes: 
x,y,z [a.u.] :    -0.585376    -0.289192    -0.699084 
x,y,z [Debye]:    -1.487908    -0.735067    -1.776930 

 

Dipole moment calculation done in   1.2 sec 

Maximum memory used throughout the entire PROP-calculation: 15.4 MB

--------------------------------
SUGGESTED CITATIONS FOR THIS RUN
--------------------------------

Below you find a list of papers that are relevant to this ORCA run
We neither can nor want to force you to cite these papers, but we appreciate if you do
You receive ORCA, which is the product of decades of hard work by many enthusiastic individuals, for free
The only thing we kindly ask in return is that you cite our papers,
We deeply appreciate it, if you show your appreciation for ORCA by not just citing the generic ORCA reference.

Please note that relegating all ORCA citations to the supporting information does *not* help us.
SI sections are not indexed - citations you put there will not count into any citation statistics
But we need these citations in order to attract the funding resources that allow us to do what we are doing

Therefore, if you are a happy ORCA user, please consider citing a few of the papers listed below in the main body of your paper

In addition to the list printed below, the program has created the file sp.bibtex that contains the list in bibtex format
You can import this file easily into all common literature databanks and citation aid programs


List of essential papers. We consider these as the minimum necessary citations

  1. Neese,F.
     Software update: the ORCA program system, version 5.0
     WIRES Comput. Molec. Sci., 2022 12(1)e1606
     doi.org/10.1002/wcms.1606

List of papers to cite with high priority. The work reported in these papers was absolutely
necessary for this run to complete.
Our perspective: the developers of density functionals and basis sets usually get cited in chemistry papers
Good! But without the algorithms to do something with them, the functionals or basis sets would not do anything.
Hence, in our opinion, the algorithm design and method developments papers are equally worthy of getting cited

  1. Neese,F.
     An improvement of the resolution of the identity approximation for the formation of the Coulomb matrix
     J. Comp. Chem., 2003 24(14)1740-1747
     doi.org/10.1002/jcc.10318
  2. Neese,F.
     The SHARK Integral Generation and Digestion System
     J. Comp. Chem., 2022  1-16
     doi.org/10.1002/jcc.26942
  3. Caldeweyher,E.; Bannwarth,C.; Grimme,S.
     Extension of the D3 dispersion coefficient model
     J. Chem. Phys., 2017 147 034112
     doi.org/10.1063/1.4993215
  4. Caldeweyher,E.; Ehlert,S.; Hansen,A.; Neugebauer,H.; Spicher,S.; Bannwarth,C.; Grimme,S.
     A generally applicable atomic-charge dependent London dispersion correction
     J. Chem. Phys., 2019 150 154122
     doi.org/10.1063/1.5090222
  5. Caldeweyher,E.; Mewes,J.; Ehlert,S.; Grimme,S.
     Extension and evaluation of the D4 London-dispersion model for periodic systems
     Phys. Chem. Chem. Phys., 2020 22(16)8499-8512
     doi.org/10.1039/D0CP00502A
  6. Wittmann,L.; Gordiy,I.; Friede,M.; Helmich-Paris,B.; Grimme,S.; Hansen,A.; Bursch,M.
     Extension of the D3 and D4 London Dispersion Corrections to the full Actinides Series
     Phys. Chem. Chem. Phys., 2024 26(32)21379-21394
     doi.org/https://doi.org/10.1039/D4CP01514B 

List of suggested additional citations. These are papers that are important in the 'surrounding' of 
of this run, or papers that preceded the highly important papers. If you like your results we are grateful for a citation.

  1. Neese,F.
     The ORCA program system
     WIRES Comput. Molec. Sci., 2012 2(1)73-78
     doi.org/10.1002/wcms.81
  2. Neese,F.
     Software update: the ORCA program system, version 4.0
     WIRES Comput. Molec. Sci., 2018 8(1)1-6
     doi.org/10.1002/wcms.1327
  3. Neese,F.; Wennmohs,F.; Becker,U.; Riplinger,C.
     The ORCA quantum chemistry program package
     J. Chem. Phys., 2020 152 Art. No. L224108
     doi.org/10.1063/5.0004608

List of optional additional citations

  1. Neese,F.
     Approximate second-order SCF convergence for spin unrestricted wavefunctions
     Chem. Phys. Lett., 2000 325(1-3)93-98
     doi.org/10.1016/s0009-2614(00)00662-x

Timings for individual modules:

Sum of individual times          ...       14.685 sec (=   0.245 min)
Startup calculation              ...        0.836 sec (=   0.014 min)   5.7 %
SCF iterations                   ...       12.606 sec (=   0.210 min)  85.8 %
Property calculations            ...        1.244 sec (=   0.021 min)   8.5 %
                             ****ORCA TERMINATED NORMALLY****
TOTAL RUN TIME: 0 days 0 hours 0 minutes 16 seconds 598 msec
