
                                 *****************
                                 * O   R   C   A *
                                 *****************

                                            #,                                       
                                            ###                                      
                                            ####                                     
                                            #####                                    
                                            ######                                   
                                           ########,                                 
                                     ,,################,,,,,                         
                               ,,#################################,,                 
                          ,,##########################################,,             
                       ,#########################################, ''#####,          
                    ,#############################################,,   '####,        
                  ,##################################################,,,,####,       
                ,###########''''           ''''###############################       
              ,#####''   ,,,,##########,,,,          '''####'''          '####       
            ,##' ,,,,###########################,,,                        '##       
           ' ,,###''''                  '''############,,,                           
         ,,##''                                '''############,,,,        ,,,,,,###''
      ,#''                                            '''#######################'''  
     '                                                          ''''####''''         
             ,#######,   #######,   ,#######,      ##                                
            ,#'     '#,  ##    ##  ,#'     '#,    #''#        ,####,   ,####,        
            ##       ##  ##   ,#'  ##            #'  '#       #'       #'  '#        
            ##       ##  #######   ##           ,######,      #####,   #    #        
            '#,     ,#'  ##    ##  '#,     ,#' ,#      #,     #,   #   #,  ,#        
             '#######'   ##     ##  '#######'  #'      '#     '####' # '####'        



                #########################################################
                #                        -***-                          #
                #          Department of theory and spectroscopy        #
                #                                                       #
                #                      Frank Neese                      #
                #                                                       #
                #     Directorship, Architecture, Infrastructure        #
                #                    SHARK, DRIVERS                     #
                #        Core code/Algorithms in most modules           #
                #                                                       #
                #        Max Planck Institute fuer Kohlenforschung      #
                #                Kaiser Wilhelm Platz 1                 #
                #                 D-45470 Muelheim/Ruhr                 #
                #                      Germany                          #
                #                                                       #
                #                  All rights reserved                  #
                #                        -***-                          #
                #########################################################


                         Program Version 6.0.0  -   RELEASE  -


 With contributions from (in alphabetic order):
   Daniel Aravena         : Magnetic Suceptibility
   Michael Atanasov       : Ab Initio Ligand Field Theory (pilot matlab implementation)
   Alexander A. Auer      : GIAO ZORA, VPT2 properties, NMR spectrum
   Ute Becker             : All parallelization in ORCA, NUMFREQ, NUMCALC
   Giovanni Bistoni       : ED, misc. LED, open-shell LED, HFLD
   Martin Brehm           : Molecular dynamics
   Dmytro Bykov           : pre 5.0 version of the SCF Hessian
   Marcos Casanova-Páez   : Triplet and SCS-CIS(D). UHF-(DLPNO)-IP/EA/STEOM-CCSD. UHF-CVS-IP/STEOM-CCSD
   Vijay G. Chilkuri      : MRCI spin determinant printing, contributions to CSF-ICE
   Pauline Colinet        : FMM embedding
   Dipayan Datta          : RHF DLPNO-CCSD density
   Achintya Kumar Dutta   : EOM-CC, STEOM-CC
   Nicolas Foglia         : Exact transition moments, OPA infrastructure, MCD improvements
   Dmitry Ganyushin       : Spin-Orbit,Spin-Spin,Magnetic field MRCI
   Miquel Garcia          : C-PCM and meta-GGA Hessian, CCSD/C-PCM, Gaussian charge scheme
   Tiago L. C. Gouveia    : GS-ROHF, GS-ROCIS
   Yang Guo               : DLPNO-NEVPT2, F12-NEVPT2, CIM, IAO-localization
   Andreas Hansen         : Spin unrestricted coupled pair/coupled cluster methods
   Ingolf Harden          : AUTO-CI MPn and infrastructure 
   Benjamin Helmich-Paris : MC-RPA, TRAH-(SCF,CASSCF), AVAS, COSX integrals, SCF dyn. polar.
   Lee Huntington         : MR-EOM, pCC
   Robert Izsak           : Overlap fitted RIJCOSX, COSX-SCS-MP3, EOM
   Riya Kayal             : Wick's Theorem for AUTO-CI, AUTO-CI UHF-CCSDT
   Emily Kempfer          : AUTO-CI, RHF CISDT and CCSDT
   Christian Kollmar      : KDIIS, OOCD, Brueckner-CCSD(T), CCSD density, CASPT2, CASPT2-K, improved NEVPT2
   Axel Koslowski         : Symmetry handling
   Simone Kossmann        : Meta GGA functionals, TD-DFT gradient, OOMP2, (MP2 Hessian; deprecated post 5.0)
   Lucas Lang             : DCDCAS
   Marvin Lechner         : AUTO-CI (C++ implementation), FIC-MRCC
   Spencer Leger          : CASSCF response
   Dagmar Lenk            : GEPOL surface, SMD, ORCA-2-JSON
   Dimitrios Liakos       : Extrapolation schemes; Compound Job, initial MDCI parallelization
   Dimitrios Manganas     : Further ROCIS development; embedding schemes. LFT, Crystal Embedding
   Dimitrios Pantazis     : SARC Basis sets
   Anastasios Papadopoulos: AUTO-CI, single reference methods and gradients
   Taras Petrenko         : pre 6.0 DFT Hessian and TD-DFT gradient, (ASA, deprecated), ECA, 1-Electron XAS/XES, NRVS
   Peter Pinski           : DLPNO-MP2, DLPNO-MP2 Gradient
   Christoph Reimann      : Effective Core Potentials
   Marius Retegan         : Local ZFS, SOC
   Christoph Riplinger    : Optimizer, TS searches, QM/MM, DLPNO-CCSD(T), (RO)-DLPNO pert. Triples
   Michael Roemelt        : Original ROCIS implementation
   Masaaki Saitow         : Open-shell DLPNO-CCSD energy and density
   Barbara Sandhoefer     : DKH picture change effects
   Kantharuban Sivalingam : CASSCF convergence/infrastructure, NEVPT2 and variants, FIC-MRCI
   Bernardo de Souza      : ESD, SOC TD-DFT
   Georgi Stoychev        : AutoAux, RI-MP2 NMR, DLPNO-MP2 response, X2C
   Van Anh Tran           : RI-MP2 g-tensors
   Willem Van den Heuvel  : Paramagnetic NMR
   Zikuan Wang            : NOTCH, Electric field optimization 
   Frank Wennmohs         : Technical directorship and infrastructure
   Hang Xu                : AUTO-CI-Response properties 


 We gratefully acknowledge several colleagues who have allowed us to
 interface, adapt or use parts of their codes:
   Stefan Grimme, W. Hujo, H. Kruse, P. Pracht,  : VdW corrections, initial TS optimization,
                  C. Bannwarth, S. Ehlert,         DFT functionals, gCP, sTDA/sTD-DF
                  L. Wittmann, M. Mueller
   Ed Valeev, F. Pavosevic, A. Kumar             : LibInt (2-el integral package), F12 methods
   Garnet Chan, S. Sharma, J. Yang, R. Olivares  : DMRG
   Ulf Ekstrom                                   : XCFun DFT Library
   Mihaly Kallay                                 : mrcc  (arbitrary order and MRCC methods)
   Frank Weinhold                                : gennbo (NPA and NBO analysis)
   Simon Mueller                                 : openCOSMO-RS
   Christopher J. Cramer and Donald G. Truhlar   : smd solvation model
   Lars Goerigk                                  : TD-DFT with DH, B97 family of functionals
   V. Asgeirsson, H. Jonsson                     : NEB implementation
   FAccTs GmbH                                   : IRC, NEB, NEB-TS, DLPNO-Multilevel, CI-OPT
                                                   MM, QMMM, 2- and 3-layer-ONIOM, Crystal-QMMM,
                                                   LR-CPCM, SF, NACMEs, symmetry and pop. for TD-DFT,
                                                   nearIR, NL-DFT gradient (VV10), updates on ESD,
                                                   ML-optimized integration grids, MBIS, APM,
                                                   GOAT, DOCKER, SOLVATOR, interface openCOSMO-RS
   S Lehtola, MJT Oliveira, MAL Marques          : LibXC Library
   Liviu Ungur et al                             : ANISO software


 Your calculation uses the libint2 library for the computation of 2-el integrals
 For citations please refer to: http://libint.valeyev.net

 Your ORCA version has been built with support for libXC version: 6.2.2
 For citations please refer to: https://libxc.gitlab.io

 This ORCA versions uses:
   CBLAS   interface :  Fast vector & matrix operations
   LAPACKE interface :  Fast linear algebra routines
   SCALAPACK package :  Parallel linear algebra routines
   Shared memory     :  Shared parallel matrices
   BLAS/LAPACK       :  OpenBLAS 0.3.27  USE64BITINT DYNAMIC_ARCH NO_AFFINITY SkylakeX SINGLE_THREADED
        Core in use  :  SkylakeX
   Copyright (c) 2011-2014, The OpenBLAS Project




***************************************
The coordinates will be read from file: vacuum_censo.xyz
***************************************


Your calculation utilizes the geometrical counterpoise correction gCP
Please cite in your paper:
H.Kruse, S. Grimme J.Chem.Phys., 136, (2012), 154101 
   

Your calculation utilizes the atom-pairwise dispersion correction
based on EEQ partial charges (D4)


================================================================================

----- Orbital basis set information -----
Your calculation utilizes the basis: def2-TZVP
   F. Weigend and R. Ahlrichs, Phys. Chem. Chem. Phys. 7, 3297 (2005).

----- AuxJ basis set information -----
Your calculation utilizes the basis: def2-mTZVPP/J
   Stefan Grimme, Andreas Hansen, Sebastian Ehlert, and Jan-Michael Mewes 
   J. Chem. Phys. 154, 000000 (2021). DOI: 10.1063/5.0040021

================================================================================
                                        WARNINGS
                       Please study these warnings very carefully!
================================================================================

Using LibXC functional ID 497 : Re-regularized SCAN exchange by Furness et al
[ 1]  J. W. Furness, A. D. Kaplan, J. Ning, J. P. Perdew, and J. Sun.,  J. Phys. Chem. Lett. 11, 8208-8215 (2020)
[ 2]  J. W. Furness, A. D. Kaplan, J. Ning, J. P. Perdew, and J. Sun.,  J. Phys. Chem. Lett. 11, 9248-9248 (2020)
Using LibXC functional ID 498 : Re-regularized SCAN correlation by Furness et al
[ 1]  J. W. Furness, A. D. Kaplan, J. Ning, J. P. Perdew, and J. Sun.,  J. Phys. Chem. Lett. 11, 8208-8215 (2020)
[ 2]  J. W. Furness, A. D. Kaplan, J. Ning, J. P. Perdew, and J. Sun.,  J. Phys. Chem. Lett. 11, 9248-9248 (2020)
Using LibXC functional ID 497 : Re-regularized SCAN exchange by Furness et al
[ 1]  J. W. Furness, A. D. Kaplan, J. Ning, J. P. Perdew, and J. Sun.,  J. Phys. Chem. Lett. 11, 8208-8215 (2020)
[ 2]  J. W. Furness, A. D. Kaplan, J. Ning, J. P. Perdew, and J. Sun.,  J. Phys. Chem. Lett. 11, 9248-9248 (2020)
Using LibXC functional ID 498 : Re-regularized SCAN correlation by Furness et al
[ 1]  J. W. Furness, A. D. Kaplan, J. Ning, J. P. Perdew, and J. Sun.,  J. Phys. Chem. Lett. 11, 8208-8215 (2020)
[ 2]  J. W. Furness, A. D. Kaplan, J. Ning, J. P. Perdew, and J. Sun.,  J. Phys. Chem. Lett. 11, 9248-9248 (2020)

================================================================================
                                       INPUT FILE
================================================================================
NAME = vacuum_censo.inp
|  1> ! r2SCAN-3c DEF2-TZVP FREQ
|  2> * xyzfile 0 1 vacuum_censo.xyz
|  3> 
|  4>                          ****END OF INPUT****
================================================================================

                       ****************************
                       * Single Point Calculation *
                       ****************************

---------------------------------
CARTESIAN COORDINATES (ANGSTROEM)
---------------------------------
  C     -2.594116   -0.698720   -0.000175
  C     -2.594236    0.698288   -0.000059
  C     -1.399002    1.420663    0.000052
  C     -0.220545    0.696840    0.000036
  C     -0.220425   -0.696863   -0.000068
  C     -1.398757   -1.420888   -0.000170
  C      1.192279   -1.171647   -0.000081
  O      1.619676   -2.303178   -0.000096
  N      1.962377    0.000175    0.000015
  C      1.192083    1.171867    0.000110
  O      1.619281    2.303471    0.000218
  H     -3.540450   -1.229455   -0.000279
  H     -3.540664    1.228856   -0.000041
  H     -1.386342    2.505234    0.000157
  H     -1.385912   -2.505458   -0.000287
  H      2.970786    0.000247    0.000120

----------------------------
CARTESIAN COORDINATES (A.U.)
----------------------------
  NO LB      ZA    FRAG     MASS         X           Y           Z
   0 C     6.0000    0    12.011   -4.902168   -1.320390   -0.000332
   1 C     6.0000    0    12.011   -4.902395    1.319574   -0.000111
   2 C     6.0000    0    12.011   -2.643731    2.684664    0.000099
   3 C     6.0000    0    12.011   -0.416769    1.316837    0.000069
   4 C     6.0000    0    12.011   -0.416543   -1.316879   -0.000129
   5 C     6.0000    0    12.011   -2.643267   -2.685090   -0.000321
   6 C     6.0000    0    12.011    2.253081   -2.214092   -0.000153
   7 O     8.0000    0    15.999    3.060745   -4.352376   -0.000181
   8 N     7.0000    0    14.007    3.708356    0.000331    0.000028
   9 C     6.0000    0    12.011    2.252710    2.214507    0.000207
  10 O     8.0000    0    15.999    3.059997    4.352930    0.000412
  11 H     1.0000    0     1.008   -6.690480   -2.323334   -0.000527
  12 H     1.0000    0     1.008   -6.690884    2.322202   -0.000078
  13 H     1.0000    0     1.008   -2.619807    4.734207    0.000296
  14 H     1.0000    0     1.008   -2.618994   -4.734629   -0.000542
  15 H     1.0000    0     1.008    5.613971    0.000467    0.000226

--------------------------------
INTERNAL COORDINATES (ANGSTROEM)
--------------------------------
 C      0   0   0     0.000000000000     0.00000000     0.00000000
 C      1   0   0     1.397008379106     0.00000000     0.00000000
 C      2   1   0     1.396570130543   121.14298130     0.00000000
 C      3   2   1     1.382997138620   117.29336211     0.00000000
 C      4   3   2     1.393702720440   121.56364210     0.00000000
 C      5   4   3     1.382996109474   121.56374741     0.00000000
 C      5   4   3     1.490353655870   108.58147744   179.99907156
 O      7   5   4     1.209557976000   129.26892400   179.99611743
 N      7   5   4     1.402219578085   104.73554337     0.00000000
 C      9   7   5     1.402217393368   113.36611959     0.00000000
 O     10   9   7     1.209556655817   125.99597349   179.99905439
 H      1   2   3     1.085001466206   119.28023297   180.00114234
 H      2   1   3     1.085001572632   119.27993580   180.00084364
 H      3   2   1     1.084645625225   121.81667098   180.00080994
 H      6   5   4     1.084645398981   120.89011570   179.99778400
 H      9   7   5     1.008408088703   123.31618103   179.99389834

---------------------------
INTERNAL COORDINATES (A.U.)
---------------------------
 C      0   0   0     0.000000000000     0.00000000     0.00000000
 C      1   0   0     2.639963243304     0.00000000     0.00000000
 C      2   1   0     2.639135073541   121.14298130     0.00000000
 C      3   2   1     2.613485835988   117.29336211     0.00000000
 C      4   3   2     2.633716453733   121.56364210     0.00000000
 C      5   4   3     2.613483891184   121.56374741     0.00000000
 C      5   4   3     2.816360252282   108.58147744   179.99907156
 O      7   5   4     2.285733317740   129.26892400   179.99611743
 N      7   5   4     2.649810982202   104.73554337     0.00000000
 C      9   7   5     2.649806853687   113.36611959     0.00000000
 O     10   9   7     2.285730822957   125.99597349   179.99905439
 H      1   2   3     2.050355626032   119.28023297   180.00114234
 H      2   1   3     2.050355827148   119.27993580   180.00084364
 H      3   2   1     2.049683184032   121.81667098   180.00080994
 H      6   5   4     2.049682756492   120.89011570   179.99778400
 H      9   7   5     1.905615118879   123.31618103   179.99389834

---------------------
BASIS SET INFORMATION
---------------------
There are 4 groups of distinct atoms

 Group   1 Type C   : 11s6p2d1f contracted to 5s3p2d1f pattern {62111/411/11/1}
 Group   2 Type O   : 11s6p2d1f contracted to 5s3p2d1f pattern {62111/411/11/1}
 Group   3 Type N   : 11s6p2d1f contracted to 5s3p2d1f pattern {62111/411/11/1}
 Group   4 Type H   : 5s1p contracted to 3s1p pattern {311/1}

Atom   0C    basis set group =>   1
Atom   1C    basis set group =>   1
Atom   2C    basis set group =>   1
Atom   3C    basis set group =>   1
Atom   4C    basis set group =>   1
Atom   5C    basis set group =>   1
Atom   6C    basis set group =>   1
Atom   7O    basis set group =>   2
Atom   8N    basis set group =>   3
Atom   9C    basis set group =>   1
Atom  10O    basis set group =>   2
Atom  11H    basis set group =>   4
Atom  12H    basis set group =>   4
Atom  13H    basis set group =>   4
Atom  14H    basis set group =>   4
Atom  15H    basis set group =>   4
---------------------------------
AUXILIARY/J BASIS SET INFORMATION
---------------------------------
There are 4 groups of distinct atoms

 Group   1 Type C   : 8s3p3d contracted to 6s3p3d pattern {311111/111/111}
 Group   2 Type O   : 8s3p3d contracted to 6s3p3d pattern {311111/111/111}
 Group   3 Type N   : 8s3p3d contracted to 6s3p3d pattern {311111/111/111}
 Group   4 Type H   : 5s2p1d contracted to 3s1p1d pattern {311/2/1}

Atom   0C    basis set group =>   1
Atom   1C    basis set group =>   1
Atom   2C    basis set group =>   1
Atom   3C    basis set group =>   1
Atom   4C    basis set group =>   1
Atom   5C    basis set group =>   1
Atom   6C    basis set group =>   1
Atom   7O    basis set group =>   2
Atom   8N    basis set group =>   3
Atom   9C    basis set group =>   1
Atom  10O    basis set group =>   2
Atom  11H    basis set group =>   4
Atom  12H    basis set group =>   4
Atom  13H    basis set group =>   4
Atom  14H    basis set group =>   4
Atom  15H    basis set group =>   4
------------------------------------------------------------------------------
                             ORCA STARTUP CALCULATIONS
                           -- RI-GTO INTEGRALS CHOSEN --
------------------------------------------------------------------------------
------------------------------------------------------------------------------
                   ___                                                        
                  /   \      - P O W E R E D   B Y -                         
                 /     \                                                     
                 |  |  |   _    _      __       _____    __    __             
                 |  |  |  | |  | |    /  \     |  _  \  |  |  /  |          
                  \  \/   | |  | |   /    \    | | | |  |  | /  /          
                 / \  \   | |__| |  /  /\  \   | |_| |  |  |/  /          
                |  |  |   |  __  | /  /__\  \  |    /   |      \           
                |  |  |   | |  | | |   __   |  |    \   |  |\   \          
                \     /   | |  | | |  |  |  |  | |\  \  |  | \   \       
                 \___/    |_|  |_| |__|  |__|  |_| \__\ |__|  \__/        
                                                                              
                      - O R C A' S   B I G   F R I E N D -                    
                                      &                                       
                       - I N T E G R A L  F E E D E R -                       
                                                                              
 v1 FN, 2020, v2 2021, v3 2022-2024                                           
------------------------------------------------------------------------------


----------------------
SHARK INTEGRAL PACKAGE
----------------------

Number of atoms                             ...     16
Number of basis functions                   ...    371
Number of shells                            ...    141
Maximum angular momentum                    ...      3
Integral batch strategy                     ... SHARK/LIBINT Hybrid
RI-J (if used) integral strategy            ... SPLIT-RIJ (Revised 2003 algorithm where possible)
Printlevel                                  ...      1
Contraction scheme used                     ... SEGMENTED contraction
Prescreening option                         ... SCHWARTZ
   Thresh                                   ... 1.000e-10
   Tcut                                     ... 1.000e-11
   Tpresel                                  ... 1.000e-11 
Coulomb Range Separation                    ... NOT USED
Exchange Range Separation                   ... NOT USED
Multipole approximations                    ... NOT USED
Finite Nucleus Model                        ... NOT USED
CABS basis                                  ... NOT available
Auxiliary Coulomb fitting basis             ... AVAILABLE
   # of basis functions in Aux-J            ...    385
   # of shells in Aux-J                     ...    157
   Maximum angular momentum in Aux-J        ...      2
Auxiliary J/K fitting basis                 ... NOT available
Auxiliary Correlation fitting basis         ... NOT available
Auxiliary 'external' fitting basis          ... NOT available

Checking pre-screening integrals            ... done (  0.0 sec) Dimension = 141
Check shell pair data                       ... done (  0.0 sec)
Shell pair information
Shell pair cut-off parameter TPreSel        ...   1.0e-11
Total number of shell pairs                 ...     10011
Shell pairs after pre-screening             ...      8793
Total number of primitive shell pairs       ...     31632
Primitive shell pairs kept                  ...     20158
          la=0 lb=0:   2039 shell pairs
          la=1 lb=0:   2384 shell pairs
          la=1 lb=1:    695 shell pairs
          la=2 lb=0:   1346 shell pairs
          la=2 lb=1:    782 shell pairs
          la=2 lb=2:    232 shell pairs
          la=3 lb=0:    648 shell pairs
          la=3 lb=1:    388 shell pairs
          la=3 lb=2:    220 shell pairs
          la=3 lb=3:     59 shell pairs

Calculating one electron integrals          ... done (  0.0 sec)
Calculating RI/J V-Matrix + Cholesky decomp.... done (  0.1 sec)
Calculating Nuclear repulsion               ... done (  0.0 sec) ENN=    555.778732389023 Eh

Diagonalization of the overlap matrix:
Smallest eigenvalue                        ... 7.480e-06
Time for diagonalization                   ...    0.013 sec
Threshold for overlap eigenvalues          ... 1.000e-07
Number of eigenvalues below threshold      ... 0
Time for construction of square roots      ...    0.022 sec
Total time needed                          ...    0.044 sec

-------------------
DFT GRID GENERATION
-------------------

General Integration Accuracy     IntAcc      ... 4.388
Radial Grid Type                 RadialGrid  ... OptM3 with GC (2021)
Angular Grid (max. ang.)         AngularGrid ... 4 (Lebedev-302)
Angular grid pruning method      GridPruning ... 4 (adaptive)
Weight generation scheme         WeightScheme... mBecke (2022)
Basis function cutoff            BFCut       ... 1.0000e-10
Integration weight cutoff        WCut        ... 1.0000e-14
Partially contracted basis set               ... off
Rotationally invariant grid construction     ... off
Angular grids for H and He will be reduced by one unit

Total number of grid points                  ...    82189
Total number of batches                      ...     1294
Average number of points per batch           ...       63
Average number of grid points per atom       ...     5137
Initializing property integral containers    ... done (  0.0 sec)

SHARK setup successfully completed in   1.6 seconds

Maximum memory used throughout the entire STARTUP-calculation: 53.5 MB
-------------------------------------------------------------------------------
                                 ORCA GUESS
                   Start orbitals & Density for SCF / CASSCF
-------------------------------------------------------------------------------

------------
SCF SETTINGS
------------
Hamiltonian:
 Density Functional     Method          .... DFT(GTOs)
  Functional kind                       .... Exchange
  Functional name                       .... Re-regularized SCAN exchange by Furness et al
  Functional family                     .... MGGA
  Functional refs                              
    [ 0] J. W. Furness, A. D. Kaplan, J. Ning, J. P. Perdew, and J. Sun.,  J. Phys. Chem. Lett. 11, 8208-8215 (2020), doi: 10.1021/acs.jpclett.0c02405
    [ 1] J. W. Furness, A. D. Kaplan, J. Ning, J. P. Perdew, and J. Sun.,  J. Phys. Chem. Lett. 11, 9248-9248 (2020), doi: 10.1021/acs.jpclett.0c03077
  Functional external parameters        .... 6
    Parameter  0 _c1        =  6.670000e-01 : c1 parameter        
    Parameter  1 _c2        =  8.000000e-01 : c2 parameter        
    Parameter  2 _d         =  1.240000e+00 : d parameter         
    Parameter  3 _k1        =  6.500000e-02 : k1 parameter        
    Parameter  4 _eta       =  1.000000e-03 : eta parameter       
    Parameter  5 _dp2       =  3.610000e-01 : dp2 parameter       
  Functional kind                       .... Correlation
  Functional name                       .... Re-regularized SCAN correlation by Furness et al
  Functional family                     .... MGGA
  Functional refs                              
    [ 0] J. W. Furness, A. D. Kaplan, J. Ning, J. P. Perdew, and J. Sun.,  J. Phys. Chem. Lett. 11, 8208-8215 (2020), doi: 10.1021/acs.jpclett.0c02405
    [ 1] J. W. Furness, A. D. Kaplan, J. Ning, J. P. Perdew, and J. Sun.,  J. Phys. Chem. Lett. 11, 9248-9248 (2020), doi: 10.1021/acs.jpclett.0c03077
  Functional external parameters        .... 1
    Parameter  0 _eta       =  1.000000e-03 : Regularization parameter
 Gradients option       PostSCFGGA      .... off
 RI-approximation to the Coulomb term is turned on
   Number of AuxJ basis functions       .... 385


General Settings:
 Integral files         IntName         .... vacuum_censo
 Hartree-Fock type      HFTyp           .... RHF
 Total Charge           Charge          ....    0
 Multiplicity           Mult            ....    1
 Number of Electrons    NEL             ....   76
 Basis Dimension        Dim             ....  371
 Nuclear Repulsion      ENuc            ....    555.7787323890 Eh

Convergence Acceleration:
 AO-DIIS                CNVDIIS         .... on
   Start iteration      DIISMaxIt       ....    12
   Startup error        DIISStart       ....  0.200000
   # of expansion vecs  DIISMaxEq       ....     5
   Bias factor          DIISBfac        ....   1.050
   Max. coefficient     DIISMaxC        ....  10.000
 MO-DIIS                CNVKDIIS        .... off
 Trust-Rad. Augm. Hess. CNVTRAH         .... auto
   Auto Start mean grad. ratio tolernc. ....  1.125000
   Auto Start start iteration           ....    50
   Auto Start num. interpolation iter.  ....    10
   Max. Number of Micro iterations      ....    24
   Max. Number of Macro iterations      .... Maxiter - #DIIS iter
   Number of Davidson start vectors     ....     2
   Converg. threshold    (grad. norm)   ....   5.000e-05
   Grad. Scal. Fac. for Micro threshold ....   0.100
   Minimum threshold for Micro iter.    ....   1.000e-02
   NR start threshold (gradient norm)   ....   1.000e-04
   Initial trust radius                 ....   0.400
   Minimum AH scaling param. (alpha)    ....   1.000
   Maximum AH scaling param. (alpha)    .... 1000.000
   Quad. conv. algorithm                .... NR
   White noise on init. David. guess    .... on
   Maximum white noise                  ....   0.010
   Pseudo random numbers                .... off
   Inactive MOs                         .... canonical
   Orbital update algorithm             .... Taylor
   Preconditioner                       .... Diag
   Full preconditioner red. dimension   ....   250
   COSX micro iterations for RIJONX calc.... off
 SOSCF                  CNVSOSCF        .... on
   Start iteration      SOSCFMaxIt      ....   150
   Startup grad/error   SOSCFStart      ....  0.003300
   Hessian update       SOSCFHessUp     .... L-BFGS
 Level Shifting         CNVShift        .... on
   Level shift para.    LevelShift      ....    0.2500
   Turn off err/grad.   ShiftErr        ....    0.0010
 Zerner damping         CNVZerner       .... off
 Static damping         CNVDamp         .... on
   Fraction old density DampFac         ....    0.7000
   Max. Damping (<1)    DampMax         ....    0.9800
   Min. Damping (>=0)   DampMin         ....    0.0000
   Turn off err/grad.   DampErr         ....    0.1000

SCF Procedure:
 Maximum # iterations   MaxIter         ....   125
 SCF integral mode      SCFMode         .... Direct
   Integral package                     .... SHARK and LIBINT hybrid scheme
 Reset frequency        DirectResetFreq ....    20
 Integral Threshold     Thresh          ....  1.000e-10 Eh
 Primitive CutOff       TCut            ....  1.000e-11 Eh

Convergence Tolerance:
 Convergence Check Mode ConvCheckMode   .... Total+1el-Energy
 Convergence forced     ConvForced      .... 0
 Energy Change          TolE            ....  1.000e-06 Eh
 1-El. energy change                    ....  1.000e-03 Eh
 Orbital Gradient       TolG            ....  5.000e-05
 Orbital Rotation angle TolX            ....  5.000e-05
 DIIS Error             TolErr          ....  1.000e-06

------------------------------
INITIAL GUESS: MODEL POTENTIAL
------------------------------
Loading Hartree-Fock densities                     ... done
Calculating cut-offs                               ... done
Initializing the effective Hamiltonian             ... done
Setting up the integral package (SHARK)            ... done
Starting the Coulomb interaction                   ... done (   0.4 sec)
Making the grid                                    ... done (   0.2 sec)
Mapping shells                                     ... done
Starting the XC term evaluation                    ... done (   0.6 sec)
  promolecular density results
     # of electrons  =     75.993580663
     EX              =    -65.250691224
     EC              =     -2.562348096
     EX+EC           =    -67.813039320
Transforming the Hamiltonian                       ... done (   0.0 sec)
Diagonalizing the Hamiltonian                      ... done (   0.0 sec)
Back transforming the eigenvectors                 ... done (   0.0 sec)
Now organizing SCF variables                       ... done
                      ------------------
                      INITIAL GUESS DONE (   1.3 sec)
                      ------------------
             **** ENERGY FILE WAS UPDATED (vacuum_censo.en.tmp) ****
Finished Guess after   1.6 sec
Maximum memory used throughout the entire GUESS-calculation: 38.1 MB

-------------------------------------------------------------------------------------------
                                      ORCA LEAN-SCF
                              memory conserving SCF solver
-------------------------------------------------------------------------------------------

----------------------------------------D-I-I-S--------------------------------------------
Iteration    Energy (Eh)           Delta-E    RMSDP     MaxDP     DIISErr   Damp  Time(sec)
-------------------------------------------------------------------------------------------
               ***  Starting incremental Fock matrix formation  ***
    1    -512.7589376438813815     0.00e+00  2.69e-03  1.37e-01  2.66e-01  0.700   4.6
    2    -512.8956963541550067    -1.37e-01  2.04e-03  1.03e-01  9.31e-02  0.700   4.0
                               ***Turning on AO-DIIS***
    3    -512.9393031665842955    -4.36e-02  7.16e-04  2.61e-02  4.48e-02  0.700   3.9
    4    -512.9697446159652827    -3.04e-02  1.13e-03  4.42e-02  1.88e-02  0.000   3.7
    5    -513.0381152716872748    -6.84e-02  4.96e-04  2.47e-02  8.64e-03  0.000   3.8
                              *** Initializing SOSCF ***
---------------------------------------S-O-S-C-F--------------------------------------
Iteration    Energy (Eh)           Delta-E    RMSDP     MaxDP     MaxGrad    Time(sec)
--------------------------------------------------------------------------------------
    6    -513.0386358386761003    -5.21e-04  1.22e-04  5.46e-03  2.48e-03     3.6
               *** Restarting incremental Fock matrix formation ***
    7    -513.0386609349084210    -2.51e-05  1.26e-04  6.56e-03  6.18e-04     4.5
    8    -513.0386359026711034     2.50e-05  4.67e-05  2.51e-03  1.57e-03     3.3
    9    -513.0386685526038946    -3.26e-05  1.65e-05  8.48e-04  1.76e-04     3.2
   10    -513.0386667212385419     1.83e-06  7.84e-06  3.11e-04  3.45e-04     3.1
   11    -513.0386690559610088    -2.33e-06  6.05e-06  2.31e-04  5.75e-05     3.1
   12    -513.0386689223339545     1.34e-07  3.09e-06  1.09e-04  9.91e-05     3.0
                 **** Energy Check signals convergence ****

               *****************************************************
               *                     SUCCESS                       *
               *           SCF CONVERGED AFTER  12 CYCLES          *
               *****************************************************

             **** ENERGY FILE WAS UPDATED (vacuum_censo.en.tmp) ****

----------------
TOTAL SCF ENERGY
----------------

Total Energy       :       -513.03866892233395 Eh          -13960.49192 eV

Components:
Nuclear Repulsion  :        555.77873238902271 Eh           15123.50817 eV
Electronic Energy  :      -1068.81740131135666 Eh          -29084.00009 eV
One Electron Energy:      -1798.35694641091459 Eh          -48935.78036 eV
Two Electron Energy:        729.53954509955804 Eh           19851.78027 eV

Virial components:
Potential Energy   :      -1023.85729095605404 Eh          -27860.57329 eV
Kinetic Energy     :        510.81862203372009 Eh           13900.08137 eV
Virial Ratio       :          2.00434605707947

DFT components:
N(Alpha)           :       38.000010915471 electrons
N(Beta)            :       38.000010915471 electrons
N(Total)           :       76.000021830942 electrons
E(X)               :      -66.688013034853 Eh       
E(C)               :       -2.518540403715 Eh       
E(XC)              :      -69.206553438568 Eh       

---------------
SCF CONVERGENCE
---------------

  Last Energy change         ...   -1.3363e-07  Tolerance :   1.0000e-06
  Last MAX-Density change    ...    1.0939e-04  Tolerance :   1.0000e-05
  Last RMS-Density change    ...    3.0917e-06  Tolerance :   1.0000e-06
  Last DIIS Error            ...    2.4850e-03  Tolerance :   1.0000e-06
  Last Orbital Gradient      ...    9.9065e-05  Tolerance :   5.0000e-05
  Last Orbital Rotation      ...    1.4638e-04  Tolerance :   5.0000e-05


----------------
ORBITAL ENERGIES
----------------

  NO   OCC          E(Eh)            E(eV) 
   0   2.0000     -18.955686      -515.8104 
   1   2.0000     -18.955685      -515.8104 
   2   2.0000     -14.219583      -386.9345 
   3   2.0000     -10.163965      -276.5756 
   4   2.0000     -10.163956      -276.5753 
   5   2.0000     -10.073236      -274.1067 
   6   2.0000     -10.072843      -274.0960 
   7   2.0000     -10.071925      -274.0710 
   8   2.0000     -10.071904      -274.0704 
   9   2.0000     -10.070649      -274.0363 
  10   2.0000     -10.070242      -274.0252 
  11   2.0000      -1.042308       -28.3627 
  12   2.0000      -1.025058       -27.8932 
  13   2.0000      -0.930187       -25.3117 
  14   2.0000      -0.855069       -23.2676 
  15   2.0000      -0.762177       -20.7399 
  16   2.0000      -0.751924       -20.4609 
  17   2.0000      -0.649041       -17.6613 
  18   2.0000      -0.644502       -17.5378 
  19   2.0000      -0.585963       -15.9449 
  20   2.0000      -0.565421       -15.3859 
  21   2.0000      -0.503344       -13.6967 
  22   2.0000      -0.489483       -13.3195 
  23   2.0000      -0.461497       -12.5580 
  24   2.0000      -0.450904       -12.2697 
  25   2.0000      -0.433729       -11.8024 
  26   2.0000      -0.433280       -11.7902 
  27   2.0000      -0.413685       -11.2569 
  28   2.0000      -0.411864       -11.2074 
  29   2.0000      -0.380279       -10.3479 
  30   2.0000      -0.367674       -10.0049 
  31   2.0000      -0.363518        -9.8918 
  32   2.0000      -0.350500        -9.5376 
  33   2.0000      -0.281914        -7.6713 
  34   2.0000      -0.270231        -7.3534 
  35   2.0000      -0.268751        -7.3131 
  36   2.0000      -0.265713        -7.2304 
  37   2.0000      -0.244146        -6.6435 
  38   0.0000      -0.116652        -3.1743 
  39   0.0000      -0.078138        -2.1263 
  40   0.0000      -0.010718        -0.2916 
  41   0.0000       0.036255         0.9865 
  42   0.0000       0.044625         1.2143 
  43   0.0000       0.060872         1.6564 
  44   0.0000       0.078245         2.1292 
  45   0.0000       0.087213         2.3732 
  46   0.0000       0.106937         2.9099 
  47   0.0000       0.112639         3.0651 
  48   0.0000       0.122385         3.3303 
*Only the first 10 virtual orbitals were printed.

                    ********************************
                    * MULLIKEN POPULATION ANALYSIS *
                    ********************************

-----------------------
MULLIKEN ATOMIC CHARGES
-----------------------
   0 C :   -0.067533
   1 C :   -0.067601
   2 C :   -0.196216
   3 C :    0.049207
   4 C :    0.049325
   5 C :   -0.196293
   6 C :    0.244651
   7 O :   -0.305257
   8 N :   -0.218169
   9 C :    0.244642
  10 O :   -0.305256
  11 H :    0.126435
  12 H :    0.126431
  13 H :    0.138431
  14 H :    0.138426
  15 H :    0.238778
Sum of atomic charges:    0.0000000

--------------------------------
MULLIKEN REDUCED ORBITAL CHARGES
--------------------------------
  0 C s       :     3.198954  s :     3.198954
      pz      :     0.941952  p :     2.786344
      px      :     0.931272
      py      :     0.913120
      dz2     :     0.003815  d :     0.073602
      dxz     :     0.009092
      dyz     :     0.017022
      dx2y2   :     0.020421
      dxy     :     0.023251
      f0      :     0.001765  f :     0.008634
      f+1     :     0.000643
      f-1     :     0.000641
      f+2     :     0.000866
      f-2     :     0.000451
      f+3     :     0.002495
      f-3     :     0.001773

  1 C s       :     3.199007  s :     3.199007
      pz      :     0.941952  p :     2.786358
      px      :     0.931290
      py      :     0.913116
      dz2     :     0.003815  d :     0.073602
      dxz     :     0.009089
      dyz     :     0.017025
      dx2y2   :     0.020422
      dxy     :     0.023250
      f0      :     0.001765  f :     0.008634
      f+1     :     0.000643
      f-1     :     0.000641
      f+2     :     0.000866
      f-2     :     0.000451
      f+3     :     0.002495
      f-3     :     0.001773

  2 C s       :     3.295957  s :     3.295957
      pz      :     0.927961  p :     2.810791
      px      :     0.920857
      py      :     0.961973
      dz2     :     0.002625  d :     0.080823
      dxz     :     0.022355
      dyz     :     0.005284
      dx2y2   :     0.032178
      dxy     :     0.018382
      f0      :     0.001734  f :     0.008645
      f+1     :     0.000601
      f-1     :     0.000670
      f+2     :     0.000152
      f-2     :     0.001197
      f+3     :     0.002552
      f-3     :     0.001740

  3 C s       :     3.257883  s :     3.257883
      pz      :     0.955577  p :     2.561267
      px      :     0.787329
      py      :     0.818362
      dz2     :     0.004265  d :     0.119162
      dxz     :     0.020005
      dyz     :     0.022381
      dx2y2   :     0.038756
      dxy     :     0.033755
      f0      :     0.002120  f :     0.012481
      f+1     :     0.000887
      f-1     :     0.000670
      f+2     :     0.001217
      f-2     :     0.000839
      f+3     :     0.004330
      f-3     :     0.002418

  4 C s       :     3.257779  s :     3.257779
      pz      :     0.955578  p :     2.561253
      px      :     0.787333
      py      :     0.818342
      dz2     :     0.004265  d :     0.119162
      dxz     :     0.020003
      dyz     :     0.022383
      dx2y2   :     0.038761
      dxy     :     0.033750
      f0      :     0.002120  f :     0.012481
      f+1     :     0.000887
      f-1     :     0.000670
      f+2     :     0.001216
      f-2     :     0.000839
      f+3     :     0.004330
      f-3     :     0.002418

  5 C s       :     3.296014  s :     3.296014
      pz      :     0.927960  p :     2.810811
      px      :     0.920860
      py      :     0.961991
      dz2     :     0.002625  d :     0.080823
      dxz     :     0.022355
      dyz     :     0.005284
      dx2y2   :     0.032178
      dxy     :     0.018381
      f0      :     0.001734  f :     0.008645
      f+1     :     0.000601
      f-1     :     0.000670
      f+2     :     0.000152
      f-2     :     0.001197
      f+3     :     0.002552
      f-3     :     0.001740

  6 C s       :     3.063387  s :     3.063387
      pz      :     0.787449  p :     2.429971
      px      :     0.898551
      py      :     0.743971
      dz2     :     0.005385  d :     0.238901
      dxz     :     0.024815
      dyz     :     0.063667
      dx2y2   :     0.067194
      dxy     :     0.077841
      f0      :     0.002959  f :     0.023090
      f+1     :     0.000871
      f-1     :     0.001506
      f+2     :     0.001840
      f-2     :     0.003100
      f+3     :     0.005169
      f-3     :     0.007645

  7 O s       :     3.837705  s :     3.837705
      pz      :     1.365411  p :     4.433696
      px      :     1.702953
      py      :     1.365333
      dz2     :     0.002649  d :     0.031853
      dxz     :     0.001433
      dyz     :     0.009845
      dx2y2   :     0.008896
      dxy     :     0.009030
      f0      :     0.000220  f :     0.002004
      f+1     :     0.000045
      f-1     :     0.000180
      f+2     :     0.000271
      f-2     :     0.000204
      f+3     :     0.000510
      f-3     :     0.000573

  8 N s       :     3.452089  s :     3.452089
      pz      :     1.565547  p :     3.707454
      px      :     1.059079
      py      :     1.082828
      dz2     :     0.005263  d :     0.054009
      dxz     :     0.004245
      dyz     :     0.009580
      dx2y2   :     0.019442
      dxy     :     0.015478
      f0      :     0.000822  f :     0.004617
      f+1     :     0.000632
      f-1     :     0.000616
      f+2     :     0.000105
      f-2     :     0.000321
      f+3     :     0.001169
      f-3     :     0.000951

  9 C s       :     3.063394  s :     3.063394
      pz      :     0.787450  p :     2.429972
      px      :     0.898544
      py      :     0.743979
      dz2     :     0.005385  d :     0.238902
      dxz     :     0.024813
      dyz     :     0.063669
      dx2y2   :     0.067167
      dxy     :     0.077868
      f0      :     0.002959  f :     0.023090
      f+1     :     0.000871
      f-1     :     0.001506
      f+2     :     0.001840
      f-2     :     0.003099
      f+3     :     0.005171
      f-3     :     0.007644

 10 O s       :     3.837703  s :     3.837703
      pz      :     1.365410  p :     4.433696
      px      :     1.703004
      py      :     1.365282
      dz2     :     0.002649  d :     0.031853
      dxz     :     0.001432
      dyz     :     0.009846
      dx2y2   :     0.008896
      dxy     :     0.009030
      f0      :     0.000220  f :     0.002004
      f+1     :     0.000045
      f-1     :     0.000180
      f+2     :     0.000271
      f-2     :     0.000204
      f+3     :     0.000510
      f-3     :     0.000573

 11 H s       :     0.850060  s :     0.850060
      pz      :     0.005394  p :     0.023505
      px      :     0.011482
      py      :     0.006630

 12 H s       :     0.850063  s :     0.850063
      pz      :     0.005394  p :     0.023505
      px      :     0.011483
      py      :     0.006628

 13 H s       :     0.838170  s :     0.838170
      pz      :     0.005094  p :     0.023399
      px      :     0.004328
      py      :     0.013977

 14 H s       :     0.838175  s :     0.838175
      pz      :     0.005094  p :     0.023399
      px      :     0.004328
      py      :     0.013977

 15 H s       :     0.722805  s :     0.722805
      pz      :     0.012040  p :     0.038417
      px      :     0.020233
      py      :     0.006144



                     *******************************
                     * LOEWDIN POPULATION ANALYSIS *
                     *******************************

----------------------
LOEWDIN ATOMIC CHARGES
----------------------
   0 C :   -0.112501
   1 C :   -0.112502
   2 C :   -0.071888
   3 C :   -0.080176
   4 C :   -0.080178
   5 C :   -0.071888
   6 C :   -0.358020
   7 O :    0.121804
   8 N :    0.197281
   9 C :   -0.358021
  10 O :    0.121806
  11 H :    0.148682
  12 H :    0.148682
  13 H :    0.157006
  14 H :    0.157006
  15 H :    0.192907

-------------------------------
LOEWDIN REDUCED ORBITAL CHARGES
-------------------------------
  0 C s       :     2.772337  s :     2.772337
      pz      :     0.864347  p :     2.914320
      px      :     1.003921
      py      :     1.046051
      dz2     :     0.025445  d :     0.383049
      dxz     :     0.027173
      dyz     :     0.058276
      dx2y2   :     0.122007
      dxy     :     0.150148
      f0      :     0.003230  f :     0.042796
      f+1     :     0.003477
      f-1     :     0.004154
      f+2     :     0.005606
      f-2     :     0.002870
      f+3     :     0.015369
      f-3     :     0.008091

  1 C s       :     2.772337  s :     2.772337
      pz      :     0.864347  p :     2.914320
      px      :     1.003911
      py      :     1.046062
      dz2     :     0.025445  d :     0.383049
      dxz     :     0.027163
      dyz     :     0.058286
      dx2y2   :     0.122028
      dxy     :     0.150128
      f0      :     0.003230  f :     0.042796
      f+1     :     0.003477
      f-1     :     0.004154
      f+2     :     0.005604
      f-2     :     0.002871
      f+3     :     0.015369
      f-3     :     0.008091

  2 C s       :     2.763890  s :     2.763890
      pz      :     0.850489  p :     2.887256
      px      :     1.041401
      py      :     0.995365
      dz2     :     0.024513  d :     0.376894
      dxz     :     0.073058
      dyz     :     0.013193
      dx2y2   :     0.162264
      dxy     :     0.103866
      f0      :     0.003337  f :     0.043848
      f+1     :     0.004312
      f-1     :     0.003294
      f+2     :     0.001128
      f-2     :     0.007861
      f+3     :     0.015512
      f-3     :     0.008404

  3 C s       :     2.699637  s :     2.699637
      pz      :     0.844683  p :     2.816985
      px      :     0.972071
      py      :     1.000231
      dz2     :     0.037246  d :     0.504206
      dxz     :     0.059378
      dyz     :     0.070884
      dx2y2   :     0.175719
      dxy     :     0.160979
      f0      :     0.004191  f :     0.059348
      f+1     :     0.004674
      f-1     :     0.004089
      f+2     :     0.008010
      f-2     :     0.004314
      f+3     :     0.023121
      f-3     :     0.010949

  4 C s       :     2.699636  s :     2.699636
      pz      :     0.844684  p :     2.816987
      px      :     0.972061
      py      :     1.000242
      dz2     :     0.037247  d :     0.504208
      dxz     :     0.059371
      dyz     :     0.070891
      dx2y2   :     0.175737
      dxy     :     0.160962
      f0      :     0.004191  f :     0.059348
      f+1     :     0.004674
      f-1     :     0.004089
      f+2     :     0.008009
      f-2     :     0.004315
      f+3     :     0.023119
      f-3     :     0.010951

  5 C s       :     2.763890  s :     2.763890
      pz      :     0.850489  p :     2.887255
      px      :     1.041402
      py      :     0.995364
      dz2     :     0.024513  d :     0.376894
      dxz     :     0.073058
      dyz     :     0.013193
      dx2y2   :     0.162263
      dxy     :     0.103867
      f0      :     0.003337  f :     0.043848
      f+1     :     0.004312
      f-1     :     0.003294
      f+2     :     0.001128
      f-2     :     0.007861
      f+3     :     0.015512
      f-3     :     0.008404

  6 C s       :     2.731153  s :     2.731153
      pz      :     0.749488  p :     2.634157
      px      :     0.953297
      py      :     0.931372
      dz2     :     0.056467  d :     0.867681
      dxz     :     0.076186
      dyz     :     0.174026
      dx2y2   :     0.259174
      dxy     :     0.301828
      f0      :     0.008084  f :     0.125029
      f+1     :     0.005215
      f-1     :     0.011073
      f+2     :     0.010928
      f-2     :     0.018922
      f+3     :     0.027197
      f-3     :     0.043611

  7 O s       :     3.407661  s :     3.407661
      pz      :     1.291018  p :     4.396326
      px      :     1.608168
      py      :     1.497140
      dz2     :     0.007976  d :     0.068101
      dxz     :     0.001817
      dyz     :     0.013469
      dx2y2   :     0.022422
      dxy     :     0.022417
      f0      :     0.000498  f :     0.006108
      f+1     :     0.000205
      f-1     :     0.000876
      f+2     :     0.000538
      f-2     :     0.000367
      f+3     :     0.001850
      f-3     :     0.001774

  8 N s       :     2.938385  s :     2.938385
      pz      :     1.379137  p :     3.647938
      px      :     1.114133
      py      :     1.154668
      dz2     :     0.016803  d :     0.201689
      dxz     :     0.009679
      dyz     :     0.028006
      dx2y2   :     0.078524
      dxy     :     0.068677
      f0      :     0.001142  f :     0.014708
      f+1     :     0.001662
      f-1     :     0.001859
      f+2     :     0.000454
      f-2     :     0.001747
      f+3     :     0.002744
      f-3     :     0.005100

  9 C s       :     2.731153  s :     2.731153
      pz      :     0.749489  p :     2.634158
      px      :     0.953282
      py      :     0.931387
      dz2     :     0.056467  d :     0.867682
      dxz     :     0.076184
      dyz     :     0.174029
      dx2y2   :     0.259125
      dxy     :     0.301878
      f0      :     0.008084  f :     0.125029
      f+1     :     0.005215
      f-1     :     0.011074
      f+2     :     0.010930
      f-2     :     0.018919
      f+3     :     0.027208
      f-3     :     0.043600

 10 O s       :     3.407660  s :     3.407660
      pz      :     1.291017  p :     4.396325
      px      :     1.608184
      py      :     1.497124
      dz2     :     0.007976  d :     0.068101
      dxz     :     0.001816
      dyz     :     0.013471
      dx2y2   :     0.022424
      dxy     :     0.022415
      f0      :     0.000498  f :     0.006108
      f+1     :     0.000205
      f-1     :     0.000876
      f+2     :     0.000538
      f-2     :     0.000367
      f+3     :     0.001850
      f-3     :     0.001774

 11 H s       :     0.790760  s :     0.790760
      pz      :     0.013642  p :     0.060558
      px      :     0.029802
      py      :     0.017114

 12 H s       :     0.790760  s :     0.790760
      pz      :     0.013642  p :     0.060558
      px      :     0.029806
      py      :     0.017110

 13 H s       :     0.781508  s :     0.781508
      pz      :     0.013245  p :     0.061486
      px      :     0.011119
      py      :     0.037122

 14 H s       :     0.781508  s :     0.781508
      pz      :     0.013245  p :     0.061486
      px      :     0.011120
      py      :     0.037122

 15 H s       :     0.698582  s :     0.698582
      pz      :     0.031324  p :     0.108512
      px      :     0.060616
      py      :     0.016572



                      *****************************
                      * MAYER POPULATION ANALYSIS *
                      *****************************

  NA   - Mulliken gross atomic population
  ZA   - Total nuclear charge
  QA   - Mulliken gross atomic charge
  VA   - Mayer's total valence
  BVA  - Mayer's bonded valence
  FA   - Mayer's free valence

  ATOM       NA         ZA         QA         VA         BVA        FA
  0 C      6.0675     6.0000    -0.0675     3.8502     3.8502     0.0000
  1 C      6.0676     6.0000    -0.0676     3.8503     3.8503     0.0000
  2 C      6.1962     6.0000    -0.1962     3.9298     3.9298     0.0000
  3 C      5.9508     6.0000     0.0492     3.5009     3.5009     0.0000
  4 C      5.9507     6.0000     0.0493     3.5008     3.5008    -0.0000
  5 C      6.1963     6.0000    -0.1963     3.9299     3.9299    -0.0000
  6 C      5.7553     6.0000     0.2447     4.2715     4.2715     0.0000
  7 O      8.3053     8.0000    -0.3053     2.2038     2.2038    -0.0000
  8 N      7.2182     7.0000    -0.2182     3.1082     3.1082    -0.0000
  9 C      5.7554     6.0000     0.2446     4.2715     4.2715     0.0000
 10 O      8.3053     8.0000    -0.3053     2.2038     2.2038     0.0000
 11 H      0.8736     1.0000     0.1264     0.9752     0.9752    -0.0000
 12 H      0.8736     1.0000     0.1264     0.9752     0.9752     0.0000
 13 H      0.8616     1.0000     0.1384     0.9803     0.9803     0.0000
 14 H      0.8616     1.0000     0.1384     0.9803     0.9803    -0.0000
 15 H      0.7612     1.0000     0.2388     0.9683     0.9683    -0.0000

  Mayer bond orders larger than 0.100000
B(  0-C ,  1-C ) :   1.3779 B(  0-C ,  5-C ) :   1.3753 B(  0-C , 11-H ) :   0.9669 
B(  1-C ,  2-C ) :   1.3753 B(  1-C , 12-H ) :   0.9669 B(  2-C ,  3-C ) :   1.3691 
B(  2-C , 13-H ) :   0.9762 B(  3-C ,  4-C ) :   1.2746 B(  3-C ,  9-C ) :   0.9208 
B(  3-C , 10-O ) :  -0.1012 B(  4-C ,  5-C ) :   1.3691 B(  4-C ,  6-C ) :   0.9208 
B(  4-C ,  7-O ) :  -0.1012 B(  5-C , 14-H ) :   0.9762 B(  6-C ,  7-O ) :   2.1263 
B(  6-C ,  8-N ) :   1.1243 B(  8-N ,  9-C ) :   1.1243 B(  8-N , 15-H ) :   0.8926 
B(  9-C , 10-O ) :   2.1263 

-------
TIMINGS
-------

Total SCF time: 0 days 0 hours 0 min 44 sec 

Total time                  ....      44.594 sec
Sum of individual times     ....      43.886 sec  ( 98.4%)

SCF preparation             ....       0.233 sec  (  0.5%)
Fock matrix formation       ....      41.984 sec  ( 94.1%)
  Startup                   ....       0.077 sec  (  0.2% of F)
  Split-RI-J                ....       6.180 sec  ( 14.7% of F)
  XC integration            ....      34.926 sec  ( 83.2% of F)
    XC Preparation          ....       0.000 sec  (  0.0% of XC)
    Basis function eval.    ....       5.321 sec  ( 15.2% of XC)
    Density eval.           ....       9.839 sec  ( 28.2% of XC)
    XC-Functional eval.     ....       2.167 sec  (  6.2% of XC)
    XC-Potential eval.      ....      16.467 sec  ( 47.1% of XC)
Diagonalization             ....       0.000 sec  (  0.0%)
Density matrix formation    ....       0.304 sec  (  0.7%)
Total Energy calculation    ....       0.044 sec  (  0.1%)
Population analysis         ....       0.054 sec  (  0.1%)
Orbital Transformation      ....       0.129 sec  (  0.3%)
Orbital Orthonormalization  ....       0.000 sec  (  0.0%)
DIIS solution               ....       0.652 sec  (  1.5%)
SOSCF solution              ....       0.485 sec  (  1.1%)
Finished LeanSCF after  44.7 sec

Maximum memory used throughout the entire LEANSCF-calculation: 44.5 MB

------------------------------------------------------------------------------
                         ORCA PROPERTY INTEGRAL CALCULATIONS
------------------------------------------------------------------------------

GBWName                                   ... vacuum_censo.gbw
Number of atoms                           ...     16
Number of basis functions                 ...    371
Max core memory                           ...   1024 MB

Dipole integrals                          ... YES
Quadrupole integrals                      ...  NO
Linear momentum integrals                 ...  NO
Angular momentum integrals                ...  NO
Higher moments length integrals           ...  NO
Higher moments velocity integrals         ...  NO
Kinetic energy integrals                  ...  NO
GIAO right hand sides                     ...  NO
GIAO dipole derivative integrals          ...  NO
SOC integrals                             ...  NO
EPR diamagnetic integrals (GIAO)          ...  NO
EPR gauge integrals                       ...  NO
Field gradient integrals                  ...  NO (   0 nuclei)
Spin-dipole/Fermi contact integrals       ...  NO (   0 nuclei)
Contact density integrals                 ...  NO (   0 nuclei)
Nucleus-orbit integrals                   ...  NO (   0 nuclei)
Geometric perturbations                   ... YES (  16 nuclei)

Choice of electric origin   ... Center of mass
Position of electric origin ... ( -0.0027,  0.0000, -0.0000) 
Choice of magnetic origin   ... GIAO
Position of magnetic origin ... (  0.0000,  0.0000,  0.0000) 

Calculating integrals                     ... Electric Dipole (Length)     done (  0.1 sec)
Calculating integrals                     ... Geometrical perturbation right hand sides

-----------------------
GEOMETRIC PERTURBATIONS (16 nuclei)
-----------------------

MaxCore                            ...   1024 MB
Number of batches                  ...      1

BATCH   0: Atoms    0 -   15 ( 48 perturbations)
   => H(core) and overlap derivative integrals     ... done (     0.6 sec)
   => Making and storing internal U-coefficients   ... done (     0.5 sec)
   => RI-J derivative integrals                    ... done (     7.3 sec)
   => RI-J response operators                      ... done (     1.6 sec)
   => XC derivative integrals                      ... done (   371.1 sec)
   => XC response operators                        ... done (   109.4 sec)
   => Completing and storing right hand sides      ... done (     0.2 sec)
   => Total time for right hand sides = 493.8 sec

  geometrical perturbations done (493.8 sec)

Property integrals calculated in 493.9 sec

Maximum memory used throughout the entire PROPINT-calculation: 221.7 MB


-------------------------------------------------------------------------------
                          DFT DISPERSION CORRECTION                            
                                                                               
                                DFTD4 V3.4.0                                   
-------------------------------------------------------------------------------
The R2SCAN3C composite method is recognized
Using three-body term ABC
Active option DFTDOPT                   ...         5   

-------------------------   ----------------
Dispersion correction           -0.006247290
-------------------------   ----------------

------------------   -----------------
gCP correction             0.007251314
------------------   -----------------

-------------------------   --------------------
FINAL SINGLE POINT ENERGY      -513.037664898541
-------------------------   --------------------

------------------------------------------------------------------------------
                            ORCA SCF RESPONSE CALCULATION
------------------------------------------------------------------------------

GBWName                                 ... vacuum_censo.gbw
Number of atoms                         ...     16
Number of basis functions               ...    371
Max core memory                         ...   1024 MB

Electric field perturbation             ...  NO
Quadrupolar field perturbation          ...  NO
Magnetic field perturbation (no GIAO)   ...  NO
Magnetic field perturbation (with GIAO) ...  NO
Linear momentum (velocity) perturbation ...  NO
Spin-orbit coupling perturbation        ...  NO
Choice of electric origin               ... Center of mass
Position of electric origin             ...    -0.002692     0.000013    -0.000031
Choice of magnetic origin               ... GIAO
Position of magnetic origin             ...     0.000000     0.000000     0.000000
Nuclear geometric perturbations         ... YES (  48 perturbations)
Nucleus-orbit perturbations             ...  NO (   0 perturbations)
Spin-dipole/Fermi contact perturbations ...  NO (   0 perturbations)

Total number of real perturbations      ...     48
Total number of imaginary perturbations ...      0
Total number of triplet perturbations   ...      0
Total number of SOC perturbations       ...      0


                                **********************
                                * REAL PERTURBATIONS *
                                **********************



-------------------
SHARK CP-SCF DRIVER
-------------------

Dimension of the orbital basis          ...    371
Dimension of the CPSCF-problem          ...  12654
Number of operators                     ...      1
Max. number of iterations               ...    128
Convergence Tolerance                   ... 1.0e-03
Number of perturbations                 ...     48
Perturbation type                       ... REAL

----------------------------
POPLE LINEAR EQUATION SOLVER
----------------------------

  ITERATION   0:   ||err||_max =   9.5759e-01 (  34.0 sec   0/ 48 done)
  ITERATION   1:   ||err||_max =   7.1138e-02 (  36.4 sec   0/ 48 done)
  ITERATION   2:   ||err||_max =   2.9409e-02 (  36.4 sec   9/ 48 done)
  ITERATION   3:   ||err||_max =   7.3844e-03 (  30.9 sec  19/ 48 done)
  ITERATION   4:   ||err||_max =   2.3916e-03 (  23.4 sec  27/ 48 done)
  ITERATION   5:   ||err||_max =   9.8676e-04 (  17.4 sec  48/ 48 done)

CP-SCF equations solved in 180.4 sec
Response densities calculated in   0.2 sec

Maximum memory used throughout the entire SCFRESP-calculation: 154.0 MB

------------------------------------------------------------------------------
                              ORCA PROPERTY CALCULATIONS
------------------------------------------------------------------------------

GBWName                                 ... vacuum_censo.gbw
Number of atoms                         ...     16
Number of basis functions               ...    371
Max core memory                         ...   1024 MB

Electric properties:
Dipole moment                           ... YES
Quadrupole moment                       ...  NO
Static polarizability (Dipole/Dipole)   ...  NO
Static polarizability (Dipole/Quad.)    ...  NO
Static polarizability (Quad./Quad.)     ...  NO
Static polarizability (Velocity)        ...  NO

Atomic electric properties:
Dipole moment                           ...  NO
Quadrupole moment                       ...  NO
Static polarizability                   ...  NO

Choice of electric origin               ... Center of mass
Position of electric origin             ...    -0.002692     0.000013    -0.000031

General magnetic properties:
Magnetizability                         ...  NO

EPR properties:
g-Tensor (aka g-matrix)                 ...  NO
Zero-Field splitting spin-orbit         ...  NO
Zero-field splitting spin-spin          ...  NO
Hyperfine couplings                     ...  NO (   0 nuclei)
Quadrupole couplings                    ...  NO (   0 nuclei)
Contact density                         ...  NO (   0 nuclei)

NMR properties:
Chemical shifts                         ...  NO (   0 nuclei)
Spin-rotation constants                 ...  NO (   0 nuclei)
Spin-spin couplings                     ...  NO (   0 nuclei,    0 pairs)

Choice of magnetic origin               ... GIAO
Position of magnetic origin             ...     0.000000     0.000000     0.000000

Properties with geometric perturbations:
SCF Hessian                             ... YES
IR spectrum                             ... YES
VCD spectrum                            ...  NO
X-ray spectroscopy properties:
SCF XES/XAS/RIXS spectra                ...  NO


-------------
DIPOLE MOMENT
-------------

Method             : SCF
Type of density    : Electron Density
Multiplicity       :   1
Irrep              :   0
Energy             :  -513.0386689223339545 Eh
Relativity type    : 
Basis              : AO
                                X                 Y                 Z
Electronic contribution:      5.261133155       0.000465944       0.000181780
Nuclear contribution   :     -6.391634225      -0.000567844      -0.000230113
                        -----------------------------------------
Total Dipole Moment    :     -1.130501069      -0.000101900      -0.000048333
                        -----------------------------------------
Magnitude (a.u.)       :      1.130501075
Magnitude (Debye)      :      2.873505371



--------------------
Rotational spectrum 
--------------------
 
Rotational constants in cm-1:             0.058066             0.040149             0.023736 
Rotational constants in MHz :          1740.779016          1203.621828           711.601352 

Dipole components along the rotational axes: 
x,y,z [a.u.] :    -1.130501    -0.000004    -0.000008 
x,y,z [Debye]:    -2.873505    -0.000011    -0.000020 

 

Dipole moment calculation done in   0.0 sec 

-----------
SCF HESSIAN
-----------

Occupied/Occupied contributions to the Hessian:
   => Occupied/Occupied contributions              ... done (  0.0 sec)
Perturbed density contributions to the Hessian:
   => Perturbed density contributions              ... done (  0.0 sec)
Explicit contributions to the Hessian:
   => Nuclear repulsion Hessian                    ... done (  0.0 sec)
   => HCore and overlap Hessian                    ... done ( 19.5 sec)
   => RI-J Hessian                                 ... done ( 17.1 sec)
   => XC-Hessian                                   ... done ( 96.1 sec)
   => Van der Waals-Hessian                        ... done (  2.6 sec)
   => GCP-Hessian                                  ... done (  0.1 sec)
   => Explicit contributions done
Dipole derivatives                                 ... done (  0.2 sec)
Mass weighting the Hessian           ... done
Calculating normal modes             ... done
Scaling frequencies                  ... done

-----------------------
VIBRATIONAL FREQUENCIES
-----------------------

Scaling factor for frequencies =  1.000000000  (already applied!)

     0:       0.00 cm**-1
     1:       0.00 cm**-1
     2:       0.00 cm**-1
     3:       0.00 cm**-1
     4:       0.00 cm**-1
     5:       0.00 cm**-1
     6:     140.14 cm**-1
     7:     152.23 cm**-1
     8:     187.68 cm**-1
     9:     246.69 cm**-1
    10:     343.38 cm**-1
    11:     412.50 cm**-1
    12:     469.69 cm**-1
    13:     535.89 cm**-1
    14:     552.24 cm**-1
    15:     562.66 cm**-1
    16:     649.95 cm**-1
    17:     668.53 cm**-1
    18:     692.07 cm**-1
    19:     722.13 cm**-1
    20:     756.89 cm**-1
    21:     803.46 cm**-1
    22:     813.88 cm**-1
    23:     825.47 cm**-1
    24:     906.39 cm**-1
    25:     966.84 cm**-1
    26:     997.18 cm**-1
    27:    1029.43 cm**-1
    28:    1030.52 cm**-1
    29:    1102.47 cm**-1
    30:    1154.94 cm**-1
    31:    1190.95 cm**-1
    32:    1192.50 cm**-1
    33:    1305.89 cm**-1
    34:    1316.12 cm**-1
    35:    1333.04 cm**-1
    36:    1399.20 cm**-1
    37:    1488.26 cm**-1
    38:    1495.32 cm**-1
    39:    1640.40 cm**-1
    40:    1641.25 cm**-1
    41:    1780.63 cm**-1
    42:    1808.92 cm**-1
    43:    3167.66 cm**-1
    44:    3179.43 cm**-1
    45:    3189.02 cm**-1
    46:    3193.02 cm**-1
    47:    3624.90 cm**-1


------------
NORMAL MODES
------------

These modes are the Cartesian displacements weighted by the diagonal matrix
M(i,i)=1/sqrt(m[i]) where m[i] is the mass of the displaced atom
Thus, these vectors are normalized but *not* orthogonal

                  0          1          2          3          4          5    
      0       0.000000   0.000000   0.000000   0.000000   0.000000   0.000000
      1       0.000000   0.000000   0.000000   0.000000   0.000000   0.000000
      2       0.000000   0.000000   0.000000   0.000000   0.000000   0.000000
      3       0.000000   0.000000   0.000000   0.000000   0.000000   0.000000
      4       0.000000   0.000000   0.000000   0.000000   0.000000   0.000000
      5       0.000000   0.000000   0.000000   0.000000   0.000000   0.000000
      6       0.000000   0.000000   0.000000   0.000000   0.000000   0.000000
      7       0.000000   0.000000   0.000000   0.000000   0.000000   0.000000
      8       0.000000   0.000000   0.000000   0.000000   0.000000   0.000000
      9       0.000000   0.000000   0.000000   0.000000   0.000000   0.000000
     10       0.000000   0.000000   0.000000   0.000000   0.000000   0.000000
     11       0.000000   0.000000   0.000000   0.000000   0.000000   0.000000
     12       0.000000   0.000000   0.000000   0.000000   0.000000   0.000000
     13       0.000000   0.000000   0.000000   0.000000   0.000000   0.000000
     14       0.000000   0.000000   0.000000   0.000000   0.000000   0.000000
     15       0.000000   0.000000   0.000000   0.000000   0.000000   0.000000
     16       0.000000   0.000000   0.000000   0.000000   0.000000   0.000000
     17       0.000000   0.000000   0.000000   0.000000   0.000000   0.000000
     18       0.000000   0.000000   0.000000   0.000000   0.000000   0.000000
     19       0.000000   0.000000   0.000000   0.000000   0.000000   0.000000
     20       0.000000   0.000000   0.000000   0.000000   0.000000   0.000000
     21       0.000000   0.000000   0.000000   0.000000   0.000000   0.000000
     22       0.000000   0.000000   0.000000   0.000000   0.000000   0.000000
     23       0.000000   0.000000   0.000000   0.000000   0.000000   0.000000
     24       0.000000   0.000000   0.000000   0.000000   0.000000   0.000000
     25       0.000000   0.000000   0.000000   0.000000   0.000000   0.000000
     26       0.000000   0.000000   0.000000   0.000000   0.000000   0.000000
     27       0.000000   0.000000   0.000000   0.000000   0.000000   0.000000
     28       0.000000   0.000000   0.000000   0.000000   0.000000   0.000000
     29       0.000000   0.000000   0.000000   0.000000   0.000000   0.000000
     30       0.000000   0.000000   0.000000   0.000000   0.000000   0.000000
     31       0.000000   0.000000   0.000000   0.000000   0.000000   0.000000
     32       0.000000   0.000000   0.000000   0.000000   0.000000   0.000000
     33       0.000000   0.000000   0.000000   0.000000   0.000000   0.000000
     34       0.000000   0.000000   0.000000   0.000000   0.000000   0.000000
     35       0.000000   0.000000   0.000000   0.000000   0.000000   0.000000
     36       0.000000   0.000000   0.000000   0.000000   0.000000   0.000000
     37       0.000000   0.000000   0.000000   0.000000   0.000000   0.000000
     38       0.000000   0.000000   0.000000   0.000000   0.000000   0.000000
     39       0.000000   0.000000   0.000000   0.000000   0.000000   0.000000
     40       0.000000   0.000000   0.000000   0.000000   0.000000   0.000000
     41       0.000000   0.000000   0.000000   0.000000   0.000000   0.000000
     42       0.000000   0.000000   0.000000   0.000000   0.000000   0.000000
     43       0.000000   0.000000   0.000000   0.000000   0.000000   0.000000
     44       0.000000   0.000000   0.000000   0.000000   0.000000   0.000000
     45       0.000000   0.000000   0.000000   0.000000   0.000000   0.000000
     46       0.000000   0.000000   0.000000   0.000000   0.000000   0.000000
     47       0.000000   0.000000   0.000000   0.000000   0.000000   0.000000
                  6          7          8          9         10         11    
      0      -0.000008   0.000012  -0.000010  -0.061974  -0.245721  -0.000003
      1      -0.000014   0.000009  -0.000011   0.213448   0.005778  -0.000008
      2       0.174215  -0.133284   0.179891   0.000011  -0.000007   0.107216
      3       0.000006   0.000005  -0.000005   0.061939  -0.245720  -0.000005
      4       0.000015   0.000010  -0.000014   0.213458  -0.005817  -0.000009
      5      -0.174173  -0.133411   0.179888   0.000016  -0.000005   0.107212
      6       0.000010  -0.000004   0.000008   0.155304  -0.198399   0.000007
      7       0.000025  -0.000003   0.000007   0.019009  -0.045532   0.000023
      8      -0.277312   0.078876  -0.107360   0.000010  -0.000013  -0.230032
      9       0.000001  -0.000008   0.000010   0.012380  -0.111590  -0.000007
     10       0.000007  -0.000016   0.000020  -0.174540   0.027755  -0.000008
     11      -0.083063   0.274157  -0.271344  -0.000008  -0.000004   0.151818
     12      -0.000004  -0.000006   0.000010  -0.012348  -0.111584  -0.000002
     13      -0.000007  -0.000015   0.000020  -0.174542  -0.027778  -0.000009
     14       0.082979   0.274213  -0.271344  -0.000011  -0.000007   0.151812
     15      -0.000013   0.000005   0.000004  -0.155306  -0.198408   0.000015
     16      -0.000022  -0.000002   0.000008   0.018981   0.045497   0.000021
     17       0.277286   0.079076  -0.107359  -0.000007  -0.000016  -0.230034
     18       0.000001  -0.000005   0.000006   0.091700   0.029777  -0.000001
     19       0.000002  -0.000011  -0.000004  -0.088072   0.005445  -0.000004
     20      -0.038892   0.106782  -0.010051  -0.000001   0.000008   0.055472
     21       0.000014   0.000010  -0.000005   0.325796   0.477626   0.000000
     22       0.000010   0.000004  -0.000006   0.002073   0.171021  -0.000004
     23      -0.215936  -0.417408  -0.045040   0.000014   0.000022  -0.010455
     24      -0.000001  -0.000019  -0.000003   0.000000  -0.113385   0.000000
     25       0.000003  -0.000033  -0.000026  -0.003159  -0.000010   0.000002
     26      -0.000072   0.443886   0.373654  -0.000001   0.000021  -0.057134
     27      -0.000001  -0.000005   0.000000  -0.091686   0.029778  -0.000004
     28      -0.000001  -0.000003   0.000006  -0.088088  -0.005441  -0.000007
     29       0.038857   0.106813  -0.010049  -0.000009   0.000001   0.055477
     30      -0.000007   0.000007  -0.000007  -0.325800   0.477652  -0.000003
     31      -0.000016   0.000043   0.000012   0.002018  -0.170938  -0.000001
     32       0.216069  -0.417254  -0.045038  -0.000014  -0.000005  -0.010458
     33      -0.000014   0.000026  -0.000026  -0.121297  -0.222746  -0.000007
     34      -0.000029   0.000023  -0.000031   0.318574  -0.036707  -0.000016
     35       0.326426  -0.337819   0.436385   0.000012  -0.000006   0.184960
     36       0.000011   0.000009  -0.000011   0.121244  -0.222751  -0.000008
     37       0.000028   0.000026  -0.000035   0.318595   0.036674  -0.000018
     38      -0.326323  -0.338057   0.436379   0.000019   0.000003   0.184950
     39       0.000019  -0.000008   0.000011   0.395345  -0.246869   0.000020
     40       0.000045   0.000003   0.000003   0.015717  -0.042932   0.000058
     41      -0.480820   0.018643  -0.069041   0.000015  -0.000016  -0.610634
     42      -0.000023   0.000016  -0.000003  -0.395346  -0.246883   0.000034
     43      -0.000045   0.000005   0.000003   0.015648   0.042889   0.000062
     44       0.480805   0.018992  -0.069038  -0.000023  -0.000027  -0.610633
     45       0.000000   0.000032  -0.000014  -0.000002  -0.113667  -0.000002
     46      -0.000000   0.000011  -0.000033   0.029501  -0.000010   0.000003
     47       0.000010  -0.065716   0.480316   0.000001  -0.000019  -0.035821
                 12         13         14         15         16         17    
      0       0.000012  -0.186614   0.284244  -0.000003  -0.096074   0.076853
      1       0.000022  -0.092801  -0.015468   0.000002  -0.012207   0.107958
      2      -0.249668  -0.000021  -0.000006   0.004949  -0.000068   0.000037
      3      -0.000013   0.186618   0.284252  -0.000005  -0.096066  -0.076877
      4      -0.000018  -0.092770   0.015511   0.000000   0.012176   0.107945
      5       0.249672   0.000010   0.000031   0.004940   0.000064  -0.000010
      6      -0.000003   0.238559   0.113002  -0.000000  -0.043484  -0.007981
      7       0.000008  -0.182468   0.230844  -0.000003  -0.076246  -0.085421
      8      -0.062941  -0.000017   0.000008  -0.011361  -0.000070   0.000016
      9       0.000004   0.155165  -0.107630   0.000002   0.008597  -0.102211
     10       0.000024  -0.141465   0.014081   0.000001  -0.087318  -0.191173
     11      -0.261539   0.000000  -0.000015  -0.017698  -0.000011  -0.000018
     12      -0.000007  -0.155137  -0.107637   0.000005   0.008569   0.102244
     13      -0.000016  -0.141492  -0.014105   0.000000   0.087343  -0.191150
     14       0.261544   0.000003  -0.000009  -0.017704  -0.000003   0.000003
     15      -0.000003  -0.238533   0.113029   0.000002  -0.043498   0.007993
     16      -0.000001  -0.182499  -0.230834   0.000005   0.076249  -0.085417
     17       0.062932  -0.000025  -0.000006  -0.011366   0.000065  -0.000021
     18      -0.000002  -0.181464  -0.196256   0.000008   0.100478   0.173975
     19      -0.000024   0.115575   0.117718  -0.000005   0.372735   0.069273
     20       0.169825   0.000003  -0.000008  -0.001747  -0.000021   0.000031
     21       0.000009  -0.092107   0.048011  -0.000003  -0.152217  -0.157393
     22      -0.000015   0.187218   0.228926  -0.000012   0.371292  -0.048382
     23      -0.082270   0.000006   0.000017   0.022408   0.000023  -0.000015
     24      -0.000001  -0.000002  -0.297627  -0.000011   0.385306  -0.000008
     25      -0.000001   0.110726  -0.000024  -0.000001   0.000015   0.229931
     26       0.000005   0.000018   0.000013   0.064351   0.000021   0.000020
     27       0.000003   0.181453  -0.196229   0.000002   0.100567  -0.173980
     28       0.000025   0.115613  -0.117744   0.000003  -0.372725   0.069221
     29      -0.169826   0.000005  -0.000000  -0.001752   0.000081  -0.000050
     30      -0.000004   0.092072   0.048056  -0.000000  -0.152176   0.157392
     31       0.000001   0.187246  -0.228908   0.000005  -0.371308  -0.048377
     32       0.082271   0.000018  -0.000019   0.022408  -0.000063   0.000011
     33       0.000030  -0.306768   0.177133  -0.000000  -0.055487   0.082403
     34       0.000048   0.120613   0.178575  -0.000003  -0.087309   0.095624
     35      -0.569784  -0.000024  -0.000008   0.011930  -0.000152   0.000010
     36      -0.000024   0.306739   0.177182  -0.000004  -0.055492  -0.082423
     37      -0.000052   0.120674  -0.178539   0.000002   0.087286   0.095613
     38       0.569789   0.000044   0.000039   0.011908   0.000168  -0.000090
     39      -0.000000   0.260525   0.168054   0.000001  -0.034263   0.272035
     40       0.000007  -0.184258   0.227428  -0.000003  -0.076903  -0.088664
     41      -0.070964  -0.000037   0.000002  -0.008054  -0.000071  -0.000016
     42       0.000006  -0.260502   0.168082  -0.000002  -0.034242  -0.272021
     43      -0.000003  -0.184294  -0.227409   0.000005   0.076908  -0.088708
     44       0.070937  -0.000044   0.000010  -0.008059   0.000093  -0.000087
[...]
                 42         43         44         45         46         47    
      0      -0.002631  -0.049799  -0.040314  -0.018932  -0.035483   0.000081
      1      -0.009649  -0.026926  -0.025255  -0.007288  -0.019808  -0.000151
      2      -0.000001  -0.000005  -0.000005  -0.000002  -0.000004  -0.000000
      3      -0.002634   0.049814  -0.040306   0.018962  -0.035472   0.000081
      4       0.009648  -0.026923   0.025241  -0.007300   0.019796   0.000151
      5       0.000001  -0.000001   0.000001   0.000000   0.000001   0.000000
      6      -0.003143  -0.001054   0.001468  -0.000538   0.001455  -0.000181
      7      -0.018596   0.018393  -0.037973  -0.058806   0.048568   0.000004
      8      -0.000001   0.000002  -0.000003  -0.000006   0.000005   0.000000
      9       0.032056   0.000487  -0.000884  -0.002028   0.001789   0.000834
     10       0.064144   0.000028  -0.000179   0.001436  -0.000409  -0.000217
     11       0.000009  -0.000000  -0.000000  -0.000000   0.000000  -0.000000
     12       0.032073  -0.000487  -0.000884   0.002027   0.001790   0.000834
     13      -0.064133   0.000028   0.000179   0.001437   0.000410   0.000217
     14      -0.000002   0.000000   0.000000   0.000000   0.000000  -0.000000
     15      -0.003150   0.001051   0.001461   0.000547   0.001463  -0.000181
     16       0.018593   0.018387   0.037971  -0.058778  -0.048607  -0.000005
     17       0.000000   0.000002   0.000004  -0.000006  -0.000005   0.000000
     18      -0.219709   0.000063  -0.000101   0.000288   0.000287   0.000834
     19       0.560096   0.000165   0.000239  -0.000601  -0.000477   0.001240
     20       0.000020   0.000000  -0.000000   0.000000  -0.000000  -0.000000
     21       0.128926  -0.000006   0.000043  -0.000077  -0.000133  -0.000163
     22      -0.335676  -0.000076  -0.000131   0.000251   0.000269   0.000066
     23      -0.000008   0.000000   0.000000   0.000000   0.000000   0.000000
     24       0.037286  -0.000000   0.000141   0.000000  -0.000279  -0.074079
     25       0.000009  -0.000053   0.000000  -0.000019  -0.000000  -0.000005
     26       0.000005  -0.000000  -0.000000   0.000000  -0.000000  -0.000007
     27      -0.219629  -0.000063  -0.000101  -0.000288   0.000286   0.000834
     28      -0.560181   0.000165  -0.000240  -0.000602   0.000477  -0.001240
     29      -0.000071  -0.000000   0.000000  -0.000000   0.000000   0.000000
     30       0.128879   0.000006   0.000043   0.000077  -0.000133  -0.000163
     31       0.335728  -0.000076   0.000131   0.000251  -0.000268  -0.000066
     32       0.000037  -0.000000  -0.000000   0.000000  -0.000000  -0.000000
     33      -0.021091   0.583355   0.473771   0.196281   0.388613   0.000069
     34       0.027833   0.325226   0.268879   0.106004   0.218080   0.000062
     35       0.000008   0.000062   0.000050   0.000020   0.000041  -0.000000
     36      -0.021089  -0.583528   0.473670  -0.196614   0.388499   0.000069
     37      -0.027838   0.325189  -0.268713   0.106146  -0.217928  -0.000062
     38      -0.000005   0.000011  -0.000009   0.000003  -0.000007  -0.000000
     39       0.006728   0.000742  -0.000797   0.002904  -0.003690  -0.000088
     40      -0.027359  -0.224293   0.446813   0.668193  -0.545185   0.000084
     41       0.000000  -0.000021   0.000042   0.000063  -0.000052   0.000000
     42       0.006729  -0.000703  -0.000721  -0.003015  -0.003786  -0.000088
     43       0.027357  -0.224216  -0.446786   0.667878   0.545626  -0.000084
     44       0.000006  -0.000024  -0.000048   0.000070   0.000058  -0.000000
     45       0.027301   0.000000  -0.000020   0.000000  -0.000311   0.997249
     46      -0.000019   0.000025  -0.000000  -0.000905  -0.000000   0.000073
     47       0.000019   0.000000  -0.000000  -0.000000  -0.000000   0.000102


-----------
IR SPECTRUM
-----------

 Mode   freq       eps      Int      T**2         TX        TY        TZ
       cm**-1   L/(mol*cm) km/mol    a.u.
----------------------------------------------------------------------------
  6:    140.14   0.000000    0.00  0.000000  ( 0.000020  0.000001 -0.000004)
  7:    152.23   0.000325    1.64  0.000666  (-0.000005  0.000035  0.025802)
  8:    187.68   0.000686    3.47  0.001141  ( 0.000026 -0.000020  0.033780)
  9:    246.69   0.000031    0.16  0.000039  ( 0.000001 -0.006270 -0.000001)
 10:    343.38   0.002446   12.36  0.002223  (-0.047148 -0.000004 -0.000003)
 11:    412.50   0.000194    0.98  0.000147  ( 0.000005 -0.000009 -0.012110)
 12:    469.69   0.000000    0.00  0.000000  ( 0.000001 -0.000031  0.000006)
 13:    535.89   0.002057   10.39  0.001198  ( 0.000003 -0.034607 -0.000005)
 14:    552.24   0.001228    6.21  0.000694  (-0.026347 -0.000003 -0.000005)
 15:    562.66   0.018966   95.85  0.010519  ( 0.000018  0.000008 -0.102563)
 16:    649.95   0.002537   12.82  0.001218  ( 0.034902  0.000003 -0.000000)
 17:    668.53   0.000280    1.42  0.000131  ( 0.000001  0.011439 -0.000001)
 18:    692.07   0.000000    0.00  0.000000  (-0.000024  0.000010 -0.000008)
 19:    722.13   0.014475   73.15  0.006255  ( 0.000002 -0.000036 -0.079090)
 20:    756.89   0.000536    2.71  0.000221  (-0.014864 -0.000001  0.000002)
 21:    803.46   0.001652    8.35  0.000641  (-0.000009 -0.000003 -0.025327)
 22:    813.88   0.000149    0.76  0.000057  ( 0.000000 -0.007570 -0.000006)
 23:    825.47   0.000000    0.00  0.000000  (-0.000004  0.000023 -0.000008)
 24:    906.39   0.000000    0.00  0.000000  ( 0.000004  0.000015 -0.000003)
 25:    966.84   0.000205    1.04  0.000066  (-0.000002  0.000004  0.008141)
 26:    997.18   0.000000    0.00  0.000000  ( 0.000004 -0.000002  0.000001)
 27:   1029.43   0.000505    2.55  0.000153  ( 0.012375  0.000011  0.000001)
 28:   1030.52   0.020378  102.98  0.006171  ( 0.000009 -0.078555 -0.000005)
 29:   1102.47   0.001513    7.65  0.000428  (-0.000002  0.020696  0.000002)
 30:   1154.94   0.000089    0.45  0.000024  (-0.004913 -0.000000 -0.000001)
 31:   1190.95   0.000082    0.41  0.000021  ( 0.004628  0.000014 -0.000000)
 32:   1192.50   0.001835    9.27  0.000480  (-0.000005  0.021914  0.000001)
 33:   1305.89   0.000000    0.00  0.000000  (-0.000009  0.000286 -0.000000)
 34:   1316.12   0.044069  222.71  0.010449  ( 0.102221  0.000014  0.000002)
 35:   1333.04   0.003378   17.07  0.000791  (-0.000014  0.028119  0.000003)
 36:   1399.20   0.007980   40.33  0.001780  ( 0.042188  0.000004  0.000001)
 37:   1488.26   0.000198    1.00  0.000042  (-0.006450 -0.000001 -0.000000)
 38:   1495.32   0.000989    5.00  0.000206  (-0.000001  0.014364  0.000001)
 39:   1640.40   0.000477    2.41  0.000091  (-0.009526 -0.000030 -0.000000)
 40:   1641.25   0.004130   20.87  0.000785  ( 0.000013 -0.028022 -0.000002)
 41:   1780.63   0.138850  701.69  0.024334  (-0.000017  0.155994  0.000011)
 42:   1808.92   0.024720  124.93  0.004265  (-0.065304 -0.000013 -0.000004)
 43:   3167.66   0.000267    1.35  0.000026  ( 0.000002 -0.005131 -0.000000)
 44:   3179.43   0.000868    4.39  0.000085  (-0.009229 -0.000002 -0.000001)
 45:   3189.02   0.000629    3.18  0.000062  ( 0.000005 -0.007845 -0.000000)
 46:   3193.02   0.001785    9.02  0.000174  (-0.013208 -0.000004 -0.000000)
 47:   3624.90   0.019193   97.00  0.001652  ( 0.040649  0.000003  0.000003)

* The epsilon (eps) is given for a Dirac delta lineshape.
** The dipole moment derivative (T) already includes vibrational overlap.

The first frequency considered to be a vibration is 6
The total number of vibrations considered is 42


--------------------------
THERMOCHEMISTRY AT 298.15K
--------------------------

Temperature         ...   298.15 K
Pressure            ...     1.00 atm
Total Mass          ...   147.13 AMU
Quasi RRHO          ...     True
Cut-Off Frequency   ...     1.00 cm^-1

Throughout the following assumptions are being made:
  (1) The electronic state is orbitally nondegenerate
  (2) There are no thermally accessible electronically excited states
  (3) Hindered rotations indicated by low frequency modes are not
      treated as such but are treated as vibrations and this may
      cause some error
  (4) All equations used are the standard statistical mechanics
      equations for an ideal gas
  (5) All vibrations are strictly harmonic

freq.     140.14  E(vib)   ...       0.41 
freq.     152.23  E(vib)   ...       0.40 
freq.     187.68  E(vib)   ...       0.36 
freq.     246.69  E(vib)   ...       0.31 
freq.     343.38  E(vib)   ...       0.23 
freq.     412.50  E(vib)   ...       0.19 
freq.     469.69  E(vib)   ...       0.16 
freq.     535.89  E(vib)   ...       0.12 
freq.     552.24  E(vib)   ...       0.12 
freq.     562.66  E(vib)   ...       0.11 
freq.     649.95  E(vib)   ...       0.08 
freq.     668.53  E(vib)   ...       0.08 
freq.     692.07  E(vib)   ...       0.07 
freq.     722.13  E(vib)   ...       0.07 
freq.     756.89  E(vib)   ...       0.06 
freq.     803.46  E(vib)   ...       0.05 
freq.     813.88  E(vib)   ...       0.05 
freq.     825.47  E(vib)   ...       0.04 
freq.     906.39  E(vib)   ...       0.03 
freq.     966.84  E(vib)   ...       0.03 
freq.     997.18  E(vib)   ...       0.02 
freq.    1029.43  E(vib)   ...       0.02 
freq.    1030.52  E(vib)   ...       0.02 
freq.    1102.47  E(vib)   ...       0.02 
freq.    1154.94  E(vib)   ...       0.01 
freq.    1190.95  E(vib)   ...       0.01 
freq.    1192.50  E(vib)   ...       0.01 
freq.    1305.89  E(vib)   ...       0.01 
freq.    1316.12  E(vib)   ...       0.01 
freq.    1333.04  E(vib)   ...       0.01 
freq.    1399.20  E(vib)   ...       0.00 
freq.    1488.26  E(vib)   ...       0.00 
freq.    1495.32  E(vib)   ...       0.00 
freq.    1640.40  E(vib)   ...       0.00 
freq.    1641.25  E(vib)   ...       0.00 
freq.    1780.63  E(vib)   ...       0.00 
freq.    1808.92  E(vib)   ...       0.00 
freq.    3167.66  E(vib)   ...       0.00 
freq.    3179.43  E(vib)   ...       0.00 
freq.    3189.02  E(vib)   ...       0.00 
freq.    3193.02  E(vib)   ...       0.00 
freq.    3624.90  E(vib)   ...       0.00 

------------
INNER ENERGY
------------

The inner energy is: U= E(el) + E(ZPE) + E(vib) + E(rot) + E(trans)
    E(el)   - is the total energy from the electronic structure calculation
              = E(kin-el) + E(nuc-el) + E(el-el) + E(nuc-nuc)
    E(ZPE)  - the the zero temperature vibrational energy from the frequency calculation
    E(vib)  - the the finite temperature correction to E(ZPE) due to population
              of excited vibrational states
    E(rot)  - is the rotational thermal energy
    E(trans)- is the translational thermal energy

Summary of contributions to the inner energy U:
Electronic energy                ...   -513.03766490 Eh
Zero point energy                ...      0.11543418 Eh      72.44 kcal/mol
Thermal vibrational correction   ...      0.00498365 Eh       3.13 kcal/mol
Thermal rotational correction    ...      0.00141627 Eh       0.89 kcal/mol
Thermal translational correction ...      0.00141627 Eh       0.89 kcal/mol
-----------------------------------------------------------------------
Total thermal energy                   -512.91441452 Eh


Summary of corrections to the electronic energy:
(perhaps to be used in another calculation)
Total thermal correction                  0.00781619 Eh       4.90 kcal/mol
Non-thermal (ZPE) correction              0.11543418 Eh      72.44 kcal/mol
-----------------------------------------------------------------------
Total correction                          0.12325037 Eh      77.34 kcal/mol


--------
ENTHALPY
--------

The enthalpy is H = U + kB*T
                kB is Boltzmann's constant
Total thermal energy              ...   -512.91441452 Eh 
Thermal Enthalpy correction       ...      0.00094421 Eh       0.59 kcal/mol
-----------------------------------------------------------------------
Total Enthalpy                    ...   -512.91347032 Eh


Note: Rotational entropy computed according to Herzberg 
Infrared and Raman Spectra, Chapter V,1, Van Nostrand Reinhold, 1945 
Point Group:  C2v, Symmetry Number:   2  
Rotational constants in cm-1:     0.058066     0.040149     0.023736 

Vibrational entropy computed according to the QRRHO of S. Grimme
Chem.Eur.J. 2012 18 9955 using a reference frequency of 100.0 cm-1


-------
ENTROPY
-------

The entropy contributions are T*S = T*(S(el)+S(vib)+S(rot)+S(trans))
     S(el)   - electronic entropy
     S(vib)  - vibrational entropy
     S(rot)  - rotational entropy
     S(trans)- translational entropy
The entropies will be listed as multiplied by the temperature to get
units of energy

Electronic entropy                ...      0.00000000 Eh      0.00 kcal/mol
Vibrational entropy               ...      0.00800385 Eh      5.02 kcal/mol
Rotational entropy                ...      0.01348383 Eh      8.46 kcal/mol
Translational entropy             ...      0.01941816 Eh     12.19 kcal/mol
-----------------------------------------------------------------------
Final entropy term                ...      0.04090583 Eh     25.67 kcal/mol

In case the symmetry of your molecule has not been determined correctly
or in case you have a reason to use a different symmetry number we print 
out the resulting rotational entropy values for sn=1,12:

 non-linear molecules -----------------------------------
|  sn= 1 | S(rot)=       0.01413828 Eh      8.87 kcal/mol|
|  sn= 2 | S(rot)=       0.01348383 Eh      8.46 kcal/mol|
|  sn= 3 | S(rot)=       0.01310099 Eh      8.22 kcal/mol|
|  sn= 4 | S(rot)=       0.01282937 Eh      8.05 kcal/mol|
|  sn= 5 | S(rot)=       0.01261868 Eh      7.92 kcal/mol|
|  sn= 6 | S(rot)=       0.01244654 Eh      7.81 kcal/mol|
|  sn= 7 | S(rot)=       0.01230099 Eh      7.72 kcal/mol|
|  sn= 8 | S(rot)=       0.01217491 Eh      7.64 kcal/mol|
|  sn= 9 | S(rot)=       0.01206370 Eh      7.57 kcal/mol|
|  sn=10 | S(rot)=       0.01196422 Eh      7.51 kcal/mol|
|  sn=11 | S(rot)=       0.01187423 Eh      7.45 kcal/mol|
|  sn=12 | S(rot)=       0.01179208 Eh      7.40 kcal/mol|
 linear molecules ---------------------------------------
|  Dinfh | S(rot)=       0.00885774 Eh      5.56 kcal/mol|
|  Cinfv | S(rot)=       0.00951220 Eh      5.97 kcal/mol|
 --------------------------------------------------------


-------------------
GIBBS FREE ENERGY
-------------------

The Gibbs free energy is G = H - T*S

Total enthalpy                    ...   -512.91347032 Eh 
Total entropy correction          ...     -0.04090583 Eh    -25.67 kcal/mol
-----------------------------------------------------------------------
Final Gibbs free energy         ...   -512.95437615 Eh

For completeness - the Gibbs free energy minus the electronic energy
G-E(el)                           ...      0.08328875 Eh     52.26 kcal/mol


Maximum memory used throughout the entire PROP-calculation: 77.3 MB

--------------------------------
SUGGESTED CITATIONS FOR THIS RUN
--------------------------------

Below you find a list of papers that are relevant to this ORCA run
We neither can nor want to force you to cite these papers, but we appreciate if you do
You receive ORCA, which is the product of decades of hard work by many enthusiastic individuals, for free
The only thing we kindly ask in return is that you cite our papers,
We deeply appreciate it, if you show your appreciation for ORCA by not just citing the generic ORCA reference.

Please note that relegating all ORCA citations to the supporting information does *not* help us.
SI sections are not indexed - citations you put there will not count into any citation statistics
But we need these citations in order to attract the funding resources that allow us to do what we are doing

Therefore, if you are a happy ORCA user, please consider citing a few of the papers listed below in the main body of your paper

In addition to the list printed below, the program has created the file vacuum_censo.bibtex that contains the list in bibtex format
You can import this file easily into all common literature databanks and citation aid programs


List of essential papers. We consider these as the minimum necessary citations

  1. Neese,F.
     Software update: the ORCA program system, version 5.0
     WIRES Comput. Molec. Sci., 2022 12(1)e1606
     doi.org/10.1002/wcms.1606
  2. Grimme,S.; Hansen,A.; Ehlert,S.; Mewes,J.
     r2SCAN-3c: A 'Swiss army knife' composite electronic-structure method
     J. Chem. Phys., 2021 154 064103
     doi.org/10.1063/5.0040021

List of papers to cite with high priority. The work reported in these papers was absolutely
necessary for this run to complete.
Our perspective: the developers of density functionals and basis sets usually get cited in chemistry papers
Good! But without the algorithms to do something with them, the functionals or basis sets would not do anything.
Hence, in our opinion, the algorithm design and method developments papers are equally worthy of getting cited

  1. Neese,F.
     An improvement of the resolution of the identity approximation for the formation of the Coulomb matrix
     J. Comp. Chem., 2003 24(14)1740-1747
     doi.org/10.1002/jcc.10318
  2. Bykov,D.; Petrenko,T.; Izsak,R.; Kossmann,S.; Becker,U.; Valeev,E.; Neese,F.
     Efficient implementation of the analytic second derivatives of Hartree-Fock and hybrid DFT energies: a detailed analysis of different approximations
     Molec. Phys., 2015 113 1961-1977
     doi.org/10.1080/00268976.2015.1025114
  3. Neese,F.
     The SHARK Integral Generation and Digestion System
     J. Comp. Chem., 2022  1-16
     doi.org/10.1002/jcc.26942
  4. Lehtola,S.; Steigemann,C.; Oliveira,M.; Marques,M.
     Recent developments in Libxc - A comprehensive library of functionals for density functional theory
     Software X, 2018 7 
     doi.org/10.1016/j.softx.2017.11.002
  5. Caldeweyher,E.; Bannwarth,C.; Grimme,S.
     Extension of the D3 dispersion coefficient model
     J. Chem. Phys., 2017 147 034112-XXXX
     doi.org/10.1063/1.4993215
  6. Caldeweyher,E.; Ehlert,S.; Hansen,A.; Neugebauer,H.; Spicher,S.; Bannwarth,C.; Grimme,S.
     A generally applicable atomic-charge dependent London dispersion correction
     J. Chem. Phys., 2019 150 154122-XXXX
     doi.org/10.1063/1.5090222
  7. Caldeweyher,E.; Mewes,J.; Ehlert,S.; Grimme,S.
     Extension and evaluation of the D4 London-dispersion model for periodic systems
     Phys. Chem. Chem. Phys., 2020 22(16)8499-8512
     doi.org/10.1039/D0CP00502A

List of suggested additional citations. These are papers that are important in the 'surrounding' of 
of this run, or papers that preceded the highly important papers. If you like your results we are grateful for a citation.

  1. Neese,F.
     The ORCA program system
     WIRES Comput. Molec. Sci., 2012 2(1)73-78
     doi.org/10.1002/wcms.81
  2. Neese,F.
     Software update: the ORCA program system, version 4.0
     WIRES Comput. Molec. Sci., 2018 8(1)1-6
     doi.org/10.1002/wcms.1327
  3. Neese,F.; Wennmohs,F.; Becker,U.; Riplinger,C.
     The ORCA quantum chemistry program package
     J. Chem. Phys., 2020 152 Art. No. L224108
     doi.org/10.1063/5.0004608

List of optional additional citations

  1. Neese,F.
     Approximate second-order SCF convergence for spin unrestricted wavefunctions
     Chem. Phys. Lett., 2000 325(1-3)93-98
     doi.org/10.1016/s0009-2614(00)00662-x

Timings for individual modules:

Sum of individual times          ...      859.417 sec (=  14.324 min)
Startup calculation              ...        1.638 sec (=   0.027 min)   0.2 %
SCF iterations                   ...       46.373 sec (=   0.773 min)   5.4 %
Property integrals               ...      493.969 sec (=   8.233 min)  57.5 %
SCF Response                     ...      181.683 sec (=   3.028 min)  21.1 %
Property calculations            ...      135.753 sec (=   2.263 min)  15.8 %
                             ****ORCA TERMINATED NORMALLY****
TOTAL RUN TIME: 0 days 0 hours 14 minutes 20 seconds 95 msec
