
                                 *****************
                                 * O   R   C   A *
                                 *****************

                                            #,                                       
                                            ###                                      
                                            ####                                     
                                            #####                                    
                                            ######                                   
                                           ########,                                 
                                     ,,################,,,,,                         
                               ,,#################################,,                 
                          ,,##########################################,,             
                       ,#########################################, ''#####,          
                    ,#############################################,,   '####,        
                  ,##################################################,,,,####,       
                ,###########''''           ''''###############################       
              ,#####''   ,,,,##########,,,,          '''####'''          '####       
            ,##' ,,,,###########################,,,                        '##       
           ' ,,###''''                  '''############,,,                           
         ,,##''                                '''############,,,,        ,,,,,,###''
      ,#''                                            '''#######################'''  
     '                                                          ''''####''''         
             ,#######,   #######,   ,#######,      ##                                
            ,#'     '#,  ##    ##  ,#'     '#,    #''#        ,####,   ,####,        
            ##       ##  ##   ,#'  ##            #'  '#       #'       #'  '#        
            ##       ##  #######   ##           ,######,      #####,   #    #        
            '#,     ,#'  ##    ##  '#,     ,#' ,#      #,     #,   #   #,  ,#        
             '#######'   ##     ##  '#######'  #'      '#     '####' # '####'        



                #########################################################
                #                        -***-                          #
                #          Department of theory and spectroscopy        #
                #                                                       #
                #                      Frank Neese                      #
                #                                                       #
                #     Directorship, Architecture, Infrastructure        #
                #                    SHARK, DRIVERS                     #
                #        Core code/Algorithms in most modules           #
                #                                                       #
                #        Max Planck Institute fuer Kohlenforschung      #
                #                Kaiser Wilhelm Platz 1                 #
                #                 D-45470 Muelheim/Ruhr                 #
                #                      Germany                          #
                #                                                       #
                #                  All rights reserved                  #
                #                        -***-                          #
                #########################################################


                         Program Version 6.0.1  -  RELEASE   -


 With contributions from (in alphabetic order):
[Max-Planck-Institut fuer Kohlenforschung]                               
  Daniel Aravena         : Magnetic Suceptibility                        
  Michael Atanasov       : Ab Initio Ligand Field Theory (pilot matlab implementation)
  Alexander A. Auer      : GIAO ZORA, VPT2 properties, NMR spectrum      
  Ute Becker             : All parallelization in ORCA, NUMFREQ, NUMCALC 
  Giovanni Bistoni       : ED, misc. LED, open-shell LED, HFLD           
  Martin Brehm           : Molecular dynamics                            
  Dmytro Bykov           : pre 5.0 version of the SCF Hessian            
  Marcos Casanova-Páez   : Triplet and SCS-CIS(D). UHF-(DLPNO)-IP/EA/STEOM-CCSD. UHF-CVS-IP/STEOM-CCSD   
  Vijay G. Chilkuri      : MRCI spin determinant printing, contributions to CSF-ICE 
  Pauline Colinet        : FMM embedding                                 
  Dipayan Datta          : RHF DLPNO-CCSD density                        
  Achintya Kumar Dutta   : EOM-CC, STEOM-CC                              
  Nicolas Foglia         : Exact transition moments, OPA infrastructure, MCD improvements    
  Dmitry Ganyushin       : Spin-Orbit,Spin-Spin,Magnetic field MRCI      
  Miquel Garcia-Rates    : C-PCM and meta-GGA Hessian, CCSD/C-PCM, Gaussian charge scheme 
  Tiago L. C. Gouveia    : GS-ROHF, GS-ROCIS                             
  Yang Guo               : DLPNO-NEVPT2, F12-NEVPT2, CIM, IAO-localization        
  Andreas Hansen         : Spin unrestricted coupled pair/coupled cluster methods 
  Ingolf Harden          : AUTO-CI MPn and infrastructure                
  Benjamin Helmich-Paris : MC-RPA, TRAH-(SCF,CASSCF), AVAS, COSX integrals, SCF dyn. polar. 
  Lee Huntington         : MR-EOM, pCC                                   
  Robert Izsak           : Overlap fitted RIJCOSX, COSX-SCS-MP3, EOM     
  Riya Kayal             : Wick's Theorem for AUTO-CI, AUTO-CI UHF-CCSDT 
  Emily Kempfer          : AUTO-CI, RHF CISDT and CCSDT                  
  Christian Kollmar      : KDIIS, OOCD, Brueckner-CCSD(T), CCSD density, CASPT2, CASPT2-K, improved NEVPT2 
  Axel Koslowski         : Symmetry handling                             
  Simone Kossmann        : meta-GGA functionals, TD-DFT gradient, OOMP2, (MP2 Hessian; deprecated post 5.0) 
  Lucas Lang             : DCDCAS                                        
  Marvin Lechner         : AUTO-CI (C++ implementation), FIC-MRCC        
  Spencer Leger          : CASSCF response                               
  Dagmar Lenk            : GEPOL surface, SMD, ORCA-2-JSON               
  Dimitrios Liakos       : Extrapolation schemes; Compound Job, initial MDCI parallelization 
  Dimitrios Manganas     : Further ROCIS development; embedding schemes. LFT, Crystal Embedding 
  Dimitrios Pantazis     : SARC Basis sets                               
  Anastasios Papadopoulos: AUTO-CI, single reference methods and gradients 
  Taras Petrenko         : pre 6.0 DFT Hessian and TD-DFT gradient, (ASA, deprecated), ECA, 1-Electron XAS/XES, NRVS 
  Peter Pinski           : DLPNO-MP2, DLPNO-MP2 Gradient                 
  Christoph Reimann      : Effective Core Potentials                     
  Marius Retegan         : Local ZFS, SOC                                
  Christoph Riplinger    : Optimizer, TS searches, QM/MM, DLPNO-CCSD(T), (RO)-DLPNO pert. Triples 
  Michael Roemelt        : Original ROCIS implementation                 
  Masaaki Saitow         : Open-shell DLPNO-CCSD energy and density      
  Barbara Sandhoefer     : DKH picture change effects                    
  Kantharuban Sivalingam : CASSCF convergence/infrastructure, NEVPT2 and variants, FIC-MRCI 
  Bernardo de Souza      : ESD, SOC TD-DFT                               
  Georgi L. Stoychev     : AutoAux, RI-MP2 NMR, DLPNO-MP2 response, X2C  
  Van Anh Tran           : RI-MP2 g-tensors                              
  Willem Van den Heuvel  : Paramagnetic NMR                              
  Zikuan Wang            : NOTCH, Electric field optimization            
  Frank Wennmohs         : Technical directorship and infrastructure     
  Hang Xu                : AUTO-CI-Response properties                   
                                                                         
[FACCTs GmbH]                                                            
  Markus Bursch, Miquel Garcia-Rates, Christoph Riplinger, Bernardo de Souza, Georgi L. Stoychev 
                                                                 
  APM, Basis sets (HGBS, AHGBS, def-TZVP (Ac-Lr), def2-XVPD (La-Lu)), CI-OPT, improved COSX, DLPNO-Multilevel,           
  DOCKER, DRACO, updates on ESD, GOAT, IRC, LR-CPCM, MBIS, meta-GGA TD-DFT gradient, ML-optimized integration grids, 
  MM, NACMEs, nearIR, NEB, NEB-TS, NL-DFT gradient (VV10), 2- and 3-layer-ONIOM, interface openCOSMO-RS, QMMM,   
  Crystal-QMMM, SF, symmetry and pop. for TD-DFT, r2SCAN hybrids, SOLVATOR                                   
                                                                         
[Other institutions]                                                     
  V. Asgeirsson          : NEB                                           
  Christoph Bannwarth    : sTDA-DFT, sTD-DFT, PBEh-3c, B97-3c, D3        
  Sebastian Ehlert       : rSCAN, r2SCAN, r2SCAN-3c, D4, dhf basis sets  
  Marvin Friede          : D4 for Fr, Ra, Ac-Lr                          
  Lars Goerigk           : TD-DFT with DH, B97 family of functionals     
  Stefan Grimme          : VdW corrections, initial TS optimization, DFT functionals, gCP, sTDA/sTD-DF 
  Waldemar Hujo          : DFT-NL                                        
  H. Jonsson             : NEB                                           
  Holger Kruse           : gCP                                           
  Marcel Mueller         : wB97X-3c, vDZP basis set                      
  Hagen Neugebauer       : wr2SCAN                                       
  Tobias Risthaus        : range-separated hybrid DFT                    
  Lukas Wittmann         : regularized MP2, r2SCAN double-hybrids, wr2SCAN        
                                                                         
We gratefully acknowledge several colleagues who have allowed us to      
interface, adapt or use parts of their codes:                            
  Ed Valeev, F. Pavosevic, A. Kumar             : LibInt (2-el integral package), F12 methods 
  Garnet Chan, S. Sharma, J. Yang, R. Olivares  : DMRG                   
  Ulf Ekstrom                                   : XCFun DFT Library      
  Mihaly Kallay                                 : mrcc  (arbitrary order and MRCC methods)
  Frank Weinhold                                : gennbo (NPA and NBO analysis)           
  Simon Mueller                                 : openCOSMO-RS                            
  Christopher J. Cramer and Donald G. Truhlar   : smd solvation model                     
  S Lehtola, MJT Oliveira, MAL Marques          : LibXC Library                           
  Liviu Ungur et al                             : ANISO software                          


 Your calculation uses the libint2 library for the computation of 2-el integrals
 For citations please refer to: http://libint.valeyev.net

 Your ORCA version has been built with support for libXC version: 6.2.2
 For citations please refer to: https://libxc.gitlab.io

 This ORCA versions uses:
   CBLAS   interface :  Fast vector & matrix operations
   LAPACKE interface :  Fast linear algebra routines
   SCALAPACK package :  Parallel linear algebra routines
   Shared memory     :  Shared parallel matrices
   BLAS/LAPACK       :  OpenBLAS 0.3.27  USE64BITINT DYNAMIC_ARCH NO_AFFINITY Zen SINGLE_THREADED
        Core in use  :  Zen
   Copyright (c) 2011-2014, The OpenBLAS Project


Your calculation utilizes the geometrical counterpoise correction gCP
Please cite in your paper:
H.Kruse, S. Grimme J.Chem.Phys., 136, (2012), 154101 
   

Your calculation utilizes the atom-pairwise dispersion correction
based on EEQ partial charges (D4)


================================================================================

----- Orbital basis set information -----
Your calculation utilizes the basis: def2-mTZVPP
   Stefan Grimme, Andreas Hansen, Sebastian Ehlert, and Jan-Michael Mewes 
   J. Chem. Phys. 154, 064103 (2021). DOI: 10.1063/5.0040021

----- AuxJ basis set information -----
Your calculation utilizes the auxiliary basis: def2/J
   F. Weigend, Phys. Chem. Chem. Phys. 8, 1057 (2006).

================================================================================
                                        WARNINGS
                       Please study these warnings very carefully!
================================================================================



WARNING: SCAN, rSCAN, or r2SCAN functional requested.
  ===> : libXC variant has now been activated.



================================================================================
                                       INPUT FILE
================================================================================
NAME = sp.inp
|  1> ! r2scan-3c def2/J RI DEFGRID2 scfconv6 printgap
|  2> %output
|  3>     printlevel normal
|  4> end
|  5> * xyz 0 1
|  6> C -4.3829747188 -0.0007585739 -0.0011586738
|  7> C -3.6894833458 -0.1738437036 -1.1869370011
|  8> C -2.3061000294 -0.1733089983 -1.1889193885
|  9> C -1.6097726797 0.0004602655 0.000201567
| 10> C -2.3073646893 0.1737420168 1.1886219308
| 11> C -3.690766819 0.1730597413 1.185254287
| 12> C -0.1286030874 0.0004768779 0.0006062965
| 13> C 0.5930927827 -1.1753354907 0.1924643668
| 14> C 1.9784975968 -1.1919150619 0.1944193088
| 15> C 2.6592030079 -0.0003501861 -0.0002184435
| 16> C 1.9790734386 1.1916419187 -0.1942250501
| 17> C 0.5936455514 1.1759023449 -0.1914322974
| 18> Cl -0.2665024262 2.6503327149 -0.4309173353
| 19> Cl 4.3805497489 -0.000903751 -0.0009563417
| 20> Cl -0.2677949528 -2.6492677236 0.4324254316
| 21> H -5.4628429067 -0.0016187941 -0.0016252354
| 22> H -4.226458059 -0.3102144644 -2.1138981607
| 23> H -1.7592676069 -0.3081000137 -2.1107423424
| 24> H -1.7615999033 0.3090078872 2.1110060243
| 25> H -4.2287871383 0.3085771453 2.1117371957
| 26> H 2.5134140696 -2.1152408422 0.3444922814
| 27> H 2.5144667545 2.1146446023 -0.3446106329
| 28> *
| 29> 
| 30>                          ****END OF INPUT****
================================================================================

                       ****************************
                       * Single Point Calculation *
                       ****************************

---------------------------------
CARTESIAN COORDINATES (ANGSTROEM)
---------------------------------
  C     -4.382975   -0.000759   -0.001159
  C     -3.689483   -0.173844   -1.186937
  C     -2.306100   -0.173309   -1.188919
  C     -1.609773    0.000460    0.000202
  C     -2.307365    0.173742    1.188622
  C     -3.690767    0.173060    1.185254
  C     -0.128603    0.000477    0.000606
  C      0.593093   -1.175335    0.192464
  C      1.978498   -1.191915    0.194419
  C      2.659203   -0.000350   -0.000218
  C      1.979073    1.191642   -0.194225
  C      0.593646    1.175902   -0.191432
  Cl    -0.266502    2.650333   -0.430917
  Cl     4.380550   -0.000904   -0.000956
  Cl    -0.267795   -2.649268    0.432425
  H     -5.462843   -0.001619   -0.001625
  H     -4.226458   -0.310214   -2.113898
  H     -1.759268   -0.308100   -2.110742
  H     -1.761600    0.309008    2.111006
  H     -4.228787    0.308577    2.111737
  H      2.513414   -2.115241    0.344492
  H      2.514467    2.114645   -0.344611

----------------------------
CARTESIAN COORDINATES (A.U.)
----------------------------
  NO LB      ZA    FRAG     MASS         X           Y           Z
   0 C     6.0000    0    12.011   -8.282622   -0.001433   -0.002190
   1 C     6.0000    0    12.011   -6.972113   -0.328517   -2.242986
   2 C     6.0000    0    12.011   -4.357897   -0.327507   -2.246732
   3 C     6.0000    0    12.011   -3.042030    0.000870    0.000381
   4 C     6.0000    0    12.011   -4.360287    0.328325    2.246170
   5 C     6.0000    0    12.011   -6.974539    0.327036    2.239806
   6 C     6.0000    0    12.011   -0.243025    0.000901    0.001146
   7 C     6.0000    0    12.011    1.120783   -2.221062    0.363705
   8 C     6.0000    0    12.011    3.738819   -2.252393    0.367399
   9 C     6.0000    0    12.011    5.025165   -0.000662   -0.000413
  10 C     6.0000    0    12.011    3.739907    2.251877   -0.367032
  11 C     6.0000    0    12.011    1.121828    2.222133   -0.361755
  12 Cl   17.0000    0    35.453   -0.503617    5.008403   -0.814316
  13 Cl   17.0000    0    35.453    8.278039   -0.001708   -0.001807
  14 Cl   17.0000    0    35.453   -0.506059   -5.006390    0.817166
  15 H     1.0000    0     1.008  -10.323277   -0.003059   -0.003071
  16 H     1.0000    0     1.008   -7.986848   -0.586220   -3.994689
  17 H     1.0000    0     1.008   -3.324534   -0.582225   -3.988725
  18 H     1.0000    0     1.008   -3.328941    0.583940    3.989223
  19 H     1.0000    0     1.008   -7.991250    0.583126    3.990605
  20 H     1.0000    0     1.008    4.749664   -3.997226    0.650996
  21 H     1.0000    0     1.008    4.751654    3.996099   -0.651220

--------------------------------
INTERNAL COORDINATES (ANGSTROEM)
--------------------------------
 C      0   0   0     0.000000000000     0.00000000     0.00000000
 C      1   0   0     1.384542880536     0.00000000     0.00000000
 C      2   1   0     1.383384840116   120.13635016     0.00000000
 C      3   2   1     1.388911869699   120.01113772     0.02986366
 C      4   3   2     1.388885934224   119.76069628     0.00000000
 C      5   4   3     1.383406396900   120.00802414     0.00000000
 C      4   3   2     1.481169647689   120.10476758   179.95910195
 C      7   4   3     1.392906735647   121.20826069   269.05697828
 C      8   7   4     1.385505396204   121.89608348   179.94574136
 C      9   8   7     1.386026898931   118.72450394     0.02610420
 C     10   9   8     1.386023077855   121.19879218     0.00000000
 C     11  10   9     1.385520106055   118.72598546     0.00000000
 Cl    12  11  10     1.723703148087   119.27363970   179.98166038
 Cl    10   9   8     1.721346988169   119.39998810   179.99617556
 Cl     8   7   4     1.723712630613   118.83079101     0.00000000
 H      1   2   3     1.079868631314   120.02721446   180.00898324
 H      2   1   3     1.079905467356   120.12393648   179.97443642
 H      3   2   1     1.080255467224   120.48951127   179.98542032
 H      5   4   3     1.080253892969   119.50397450   180.02858267
 H      6   5   4     1.079908056679   119.73950634   180.02585136
 H      9   8   7     1.077584347763   120.45205881   180.03676900
 H     11  10   9     1.077587945440   120.82158431   179.97630870

---------------------------
INTERNAL COORDINATES (A.U.)
---------------------------
 C      0   0   0     0.000000000000     0.00000000     0.00000000
 C      1   0   0     2.616406864884     0.00000000     0.00000000
 C      2   1   0     2.614218485638   120.13635016     0.00000000
 C      3   2   1     2.624663057884   120.01113772     0.02986366
 C      4   3   2     2.624614046939   119.76069628     0.00000000
 C      5   4   3     2.614259222055   120.00802414     0.00000000
 C      4   3   2     2.799004992009   120.10476758   179.95910195
 C      7   4   3     2.632212260467   121.20826069   269.05697828
 C      8   7   4     2.618225755896   121.89608348   179.94574136
 C      9   8   7     2.619211253229   118.72450394     0.02610420
 C     10   9   8     2.619204032440   121.19879218     0.00000000
 C     11  10   9     2.618253553485   118.72598546     0.00000000
 Cl    12  11  10     3.257326886063   119.27363970   179.98166038
 Cl    10   9   8     3.252874389090   119.39998810   179.99617556
 Cl     8   7   4     3.257344805440   118.83079101     0.00000000
 H      1   2   3     2.040655973797   120.02721446   180.00898324
 H      2   1   3     2.040725583826   120.12393648   179.97443642
 H      3   2   1     2.041386987724   120.48951127   179.98542032
 H      5   4   3     2.041384012814   119.50397450   180.02858267
 H      6   5   4     2.040730476938   119.73950634   180.02585136
 H      9   8   7     2.036339303473   120.45205881   180.03676900
 H     11  10   9     2.036346102096   120.82158431   179.97630870

---------------------
BASIS SET INFORMATION
---------------------
There are 3 groups of distinct atoms

 Group   1 Type C   : 11s6p1d contracted to 5s3p1d pattern {62111/411/1}
 Group   2 Type Cl  : 14s9p2d contracted to 5s4p2d pattern {73211/6111/11}
 Group   3 Type H   : 4s1p contracted to 2s1p pattern {31/1}

Atom   0C    basis set group =>   1
Atom   1C    basis set group =>   1
Atom   2C    basis set group =>   1
Atom   3C    basis set group =>   1
Atom   4C    basis set group =>   1
Atom   5C    basis set group =>   1
Atom   6C    basis set group =>   1
Atom   7C    basis set group =>   1
Atom   8C    basis set group =>   1
Atom   9C    basis set group =>   1
Atom  10C    basis set group =>   1
Atom  11C    basis set group =>   1
Atom  12Cl   basis set group =>   2
Atom  13Cl   basis set group =>   2
Atom  14Cl   basis set group =>   2
Atom  15H    basis set group =>   3
Atom  16H    basis set group =>   3
Atom  17H    basis set group =>   3
Atom  18H    basis set group =>   3
Atom  19H    basis set group =>   3
Atom  20H    basis set group =>   3
Atom  21H    basis set group =>   3
---------------------------------
AUXILIARY/J BASIS SET INFORMATION
---------------------------------
There are 3 groups of distinct atoms

 Group   1 Type C   : 12s5p4d2f1g contracted to 6s4p3d1f1g pattern {711111/2111/211/2/1}
 Group   2 Type Cl  : 14s5p5d2f1g contracted to 8s4p3d1f1g pattern {71111111/2111/311/2/1}
 Group   3 Type H   : 5s2p1d contracted to 3s1p1d pattern {311/2/1}

Atom   0C    basis set group =>   1
Atom   1C    basis set group =>   1
Atom   2C    basis set group =>   1
Atom   3C    basis set group =>   1
Atom   4C    basis set group =>   1
Atom   5C    basis set group =>   1
Atom   6C    basis set group =>   1
Atom   7C    basis set group =>   1
Atom   8C    basis set group =>   1
Atom   9C    basis set group =>   1
Atom  10C    basis set group =>   1
Atom  11C    basis set group =>   1
Atom  12Cl   basis set group =>   2
Atom  13Cl   basis set group =>   2
Atom  14Cl   basis set group =>   2
Atom  15H    basis set group =>   3
Atom  16H    basis set group =>   3
Atom  17H    basis set group =>   3
Atom  18H    basis set group =>   3
Atom  19H    basis set group =>   3
Atom  20H    basis set group =>   3
Atom  21H    basis set group =>   3

Checking for AutoStart:
The File: sp.gbw exists
Trying to determine its content:
     ... Fine, the file contains calculation information
     ... Fine, the calculation information was read
     ... Fine, the file contains a basis set
     ... Fine, the basis set was read
     ... Fine, the file contains a geometry
     ... Fine, the geometry was read
     ... Fine, the file contains a set of orbitals
     ... Fine, the orbitals can be read
     => possible old guess file was deleted
     => GBW file was renamed to GES file
     => GES file is set as startup file
     => Guess is set to MORead
     ... now leaving AutoStart

------------------------------------------------------------------------------
                             ORCA STARTUP CALCULATIONS
                           -- RI-GTO INTEGRALS CHOSEN --
------------------------------------------------------------------------------
------------------------------------------------------------------------------
                   ___                                                        
                  /   \      - P O W E R E D   B Y -                         
                 /     \                                                     
                 |  |  |   _    _      __       _____    __    __             
                 |  |  |  | |  | |    /  \     |  _  \  |  |  /  |          
                  \  \/   | |  | |   /    \    | | | |  |  | /  /          
                 / \  \   | |__| |  /  /\  \   | |_| |  |  |/  /          
                |  |  |   |  __  | /  /__\  \  |    /   |      \           
                |  |  |   | |  | | |   __   |  |    \   |  |\   \          
                \     /   | |  | | |  |  |  |  | |\  \  |  | \   \       
                 \___/    |_|  |_| |__|  |__|  |_| \__\ |__|  \__/        
                                                                              
                      - O R C A' S   B I G   F R I E N D -                    
                                      &                                       
                       - I N T E G R A L  F E E D E R -                       
                                                                              
 v1 FN, 2020, v2 2021, v3 2022-2024                                           
------------------------------------------------------------------------------


----------------------
SHARK INTEGRAL PACKAGE
----------------------

Number of atoms                             ...     22
Number of basis functions                   ...    344
Number of shells                            ...    162
Maximum angular momentum                    ...      2
Integral batch strategy                     ... SHARK/LIBINT Hybrid
RI-J (if used) integral strategy            ... SPLIT-RIJ (Revised 2003 algorithm where possible)
Printlevel                                  ...      1
Contraction scheme used                     ... SEGMENTED contraction
Prescreening option                         ... SCHWARTZ
   Thresh                                   ... 1.000e-10
   Tcut                                     ... 1.000e-11
   Tpresel                                  ... 1.000e-11 
Coulomb Range Separation                    ... NOT USED
Exchange Range Separation                   ... NOT USED
Multipole approximations                    ... NOT USED
Finite Nucleus Model                        ... NOT USED
CABS basis                                  ... NOT available
Auxiliary Coulomb fitting basis             ... AVAILABLE
   # of basis functions in Aux-J            ...    818
   # of shells in Aux-J                     ...    266
   Maximum angular momentum in Aux-J        ...      4
Auxiliary J/K fitting basis                 ... NOT available
Auxiliary Correlation fitting basis         ... NOT available
Auxiliary 'external' fitting basis          ... NOT available

Checking pre-screening integrals            ... done (  0.0 sec) Dimension = 162
Check shell pair data                       ... done (  0.0 sec)
Shell pair information
Shell pair cut-off parameter TPreSel        ...   1.0e-11
Total number of shell pairs                 ...     13203
Shell pairs after pre-screening             ...     10321
Total number of primitive shell pairs       ...     53706
Primitive shell pairs kept                  ...     26564
          la=0 lb=0:   2929 shell pairs
          la=1 lb=0:   3925 shell pairs
          la=1 lb=1:   1312 shell pairs
          la=2 lb=0:   1206 shell pairs
          la=2 lb=1:    807 shell pairs
          la=2 lb=2:    142 shell pairs

Calculating one electron integrals          ... done (  0.1 sec)
Calculating RI/J V-Matrix + Cholesky decomp.... done (  0.0 sec)
Calculating Nuclear repulsion               ... done (  0.0 sec) ENN=   1229.717298711267 Eh

Diagonalization of the overlap matrix:
Smallest eigenvalue                        ... 1.770e-05
Time for diagonalization                   ...    0.015 sec
Threshold for overlap eigenvalues          ... 1.000e-07
Number of eigenvalues below threshold      ... 0
Time for construction of square roots      ...    0.009 sec
Total time needed                          ...    0.025 sec

-------------------
DFT GRID GENERATION
-------------------

General Integration Accuracy     IntAcc      ... 4.388
Radial Grid Type                 RadialGrid  ... OptM3 with GC (2021)
Angular Grid (max. ang.)         AngularGrid ... 4 (Lebedev-302)
Angular grid pruning method      GridPruning ... 4 (adaptive)
Weight generation scheme         WeightScheme... mBecke (2022)
Basis function cutoff            BFCut       ... 1.0000e-10
Integration weight cutoff        WCut        ... 1.0000e-14
Partially contracted basis set               ... off
Rotationally invariant grid construction     ... off
Angular grids for H and He will be reduced by one unit

Total number of grid points                  ...   116007
Total number of batches                      ...     1822
Average number of points per batch           ...       63
Average number of grid points per atom       ...     5273
Initializing property integral containers    ... done (  0.0 sec)

SHARK setup successfully completed in   1.6 seconds

Maximum memory used throughout the entire STARTUP-calculation: 59.6 MB
-------------------------------------------------------------------------------
                                 ORCA GUESS
                   Start orbitals & Density for SCF / CASSCF
-------------------------------------------------------------------------------

------------
SCF SETTINGS
------------
Hamiltonian:
 Density Functional     Method          .... DFT(GTOs)
  Functional kind                       .... Exchange
  Functional name                       .... Re-regularized SCAN exchange by Furness et al
  Functional family                     .... MGGA
  Functional refs                              
    [ 0] J. W. Furness, A. D. Kaplan, J. Ning, J. P. Perdew, and J. Sun.,  J. Phys. Chem. Lett. 11, 8208-8215 (2020), doi: 10.1021/acs.jpclett.0c02405
    [ 1] J. W. Furness, A. D. Kaplan, J. Ning, J. P. Perdew, and J. Sun.,  J. Phys. Chem. Lett. 11, 9248-9248 (2020), doi: 10.1021/acs.jpclett.0c03077
  Functional external parameters        .... 6
    Parameter  0 _c1        =  6.670000e-01 : c1 parameter        
    Parameter  1 _c2        =  8.000000e-01 : c2 parameter        
    Parameter  2 _d         =  1.240000e+00 : d parameter         
    Parameter  3 _k1        =  6.500000e-02 : k1 parameter        
    Parameter  4 _eta       =  1.000000e-03 : eta parameter       
    Parameter  5 _dp2       =  3.610000e-01 : dp2 parameter       
  Functional kind                       .... Correlation
  Functional name                       .... Re-regularized SCAN correlation by Furness et al
  Functional family                     .... MGGA
  Functional refs                              
    [ 0] J. W. Furness, A. D. Kaplan, J. Ning, J. P. Perdew, and J. Sun.,  J. Phys. Chem. Lett. 11, 8208-8215 (2020), doi: 10.1021/acs.jpclett.0c02405
    [ 1] J. W. Furness, A. D. Kaplan, J. Ning, J. P. Perdew, and J. Sun.,  J. Phys. Chem. Lett. 11, 9248-9248 (2020), doi: 10.1021/acs.jpclett.0c03077
  Functional external parameters        .... 1
    Parameter  0 _eta       =  1.000000e-03 : Regularization parameter
 Gradients option       PostSCFGGA      .... off
 RI-approximation to the Coulomb term is turned on
   Number of AuxJ basis functions       .... 818


General Settings:
 Integral files         IntName         .... sp
 Hartree-Fock type      HFTyp           .... RHF
 Total Charge           Charge          ....    0
 Multiplicity           Mult            ....    1
 Number of Electrons    NEL             ....  130
 Basis Dimension        Dim             ....  344
 Nuclear Repulsion      ENuc            ....   1229.7172987113 Eh

Convergence Acceleration:
 AO-DIIS                CNVDIIS         .... on
   Start iteration      DIISMaxIt       ....    12
   Startup error        DIISStart       ....  0.200000
   # of expansion vecs  DIISMaxEq       ....     5
   Bias factor          DIISBfac        ....   1.050
   Max. coefficient     DIISMaxC        ....  10.000
 MO-DIIS                CNVKDIIS        .... off
 Trust-Rad. Augm. Hess. CNVTRAH         .... auto
   Auto Start mean grad. ratio tolernc. ....  1.125000
   Auto Start start iteration           ....     1
   Auto Start num. interpolation iter.  ....    10
   Max. Number of Micro iterations      ....    24
   Max. Number of Macro iterations      .... Maxiter - #DIIS iter
   Number of Davidson start vectors     ....     2
   Converg. threshold    (grad. norm)   ....   3.330e-04
   Grad. Scal. Fac. for Micro threshold ....   0.100
   Minimum threshold for Micro iter.    ....   1.000e-02
   NR start threshold (gradient norm)   ....   1.000e-04
   Initial trust radius                 ....   0.400
   Minimum AH scaling param. (alpha)    ....   1.000
   Maximum AH scaling param. (alpha)    .... 1000.000
   Quad. conv. algorithm                .... NR
   White noise on init. David. guess    .... on
   Maximum white noise                  ....   0.010
   Pseudo random numbers                .... off
   Inactive MOs                         .... canonical
   Orbital update algorithm             .... Taylor
   Preconditioner                       .... Diag
   Full preconditioner red. dimension   ....   250
   COSX micro iterations for RIJONX calc.... off
 SOSCF                  CNVSOSCF        .... on
   Start iteration      SOSCFMaxIt      ....   150
   Startup grad/error   SOSCFStart      ....  0.003300
   Hessian update       SOSCFHessUp     .... L-BFGS
 Level Shifting         CNVShift        .... on
   Level shift para.    LevelShift      ....    0.2500
   Turn off err/grad.   ShiftErr        ....    0.0010
 Zerner damping         CNVZerner       .... off
 Static damping         CNVDamp         .... on
   Fraction old density DampFac         ....    0.7000
   Max. Damping (<1)    DampMax         ....    0.9800
   Min. Damping (>=0)   DampMin         ....    0.0000
   Turn off err/grad.   DampErr         ....    0.1000

SCF Procedure:
 Maximum # iterations   MaxIter         ....   125
 SCF integral mode      SCFMode         .... Direct
   Integral package                     .... SHARK and LIBINT hybrid scheme
 Reset frequency        DirectResetFreq ....    20
 Integral Threshold     Thresh          ....  1.000e-10 Eh
 Primitive CutOff       TCut            ....  1.000e-11 Eh

Convergence Tolerance:
 Convergence Check Mode ConvCheckMode   .... Total+1el-Energy
 Convergence forced     ConvForced      .... 0
 Energy Change          TolE            ....  1.000e-06 Eh
 1-El. energy change                    ....  1.000e-03 Eh
 Orbital Gradient       TolG            ....  3.330e-04
 Orbital Rotation angle TolX            ....  3.330e-04
 DIIS Error             TolErr          ....  1.000e-06

---------------------
INITIAL GUESS: MOREAD
---------------------
Guess MOs are being read from file: sp.ges
Input Geometry matches current geometry (good)
Atom 0: N(Shells)= 9 and 6 - projection required
Input basis set needs projection
NBasis(read)= 236
NBasis(calc)= 344
Basis set overlap was calculated
Using GuessMode=FMatrix for the initial guess
C*T matrix was formed
Effective Fockian was calculated
Effective Fockian was diagonalized
Initial density was built
                      ------------------
                      INITIAL GUESS DONE (   0.1 sec)
                      ------------------
             **** ENERGY FILE WAS UPDATED (sp.en.tmp) ****
Finished Guess after   0.2 sec
Maximum memory used throughout the entire GUESS-calculation: 31.2 MB

-------------------------------------------------------------------------------------------
                                      ORCA LEAN-SCF
                              memory conserving SCF solver
-------------------------------------------------------------------------------------------

----------------------------------------D-I-I-S--------------------------------------------
Iteration    Energy (Eh)           Delta-E    RMSDP     MaxDP     DIISErr   Damp  Time(sec)
-------------------------------------------------------------------------------------------
               ***  Starting incremental Fock matrix formation  ***
    1    -1841.6360427276183600     0.00e+00  1.71e-02  8.74e-01  5.36e-01  0.700   4.6
    2    -1841.7169291623492882    -8.09e-02  1.26e-02  6.51e-01  3.76e-01  0.700   3.9
    3    -1841.7739877596811766    -5.71e-02  8.88e-03  4.61e-01  2.63e-01  0.700   3.8
                               ***Turning on AO-DIIS***
    4    -1841.8140145492945976    -4.00e-02  6.25e-03  3.24e-01  1.84e-01  0.700   3.7
    5    -1841.8420718757863597    -2.81e-02  4.39e-03  2.27e-01  1.29e-01  0.700   3.7
    6    -1841.8617384316805783    -1.97e-02  3.08e-03  1.59e-01  9.02e-02  0.700   3.7
    7    -1841.8755184697990899    -1.38e-02  7.18e-03  3.71e-01  6.32e-02  0.000   4.2
                              *** Initializing SOSCF ***
---------------------------------------S-O-S-C-F--------------------------------------
Iteration    Energy (Eh)           Delta-E    RMSDP     MaxDP     MaxGrad    Time(sec)
--------------------------------------------------------------------------------------
    8    -1841.9077108056205816    -3.22e-02  2.47e-05  1.14e-03  2.06e-04     3.9
               *** Restarting incremental Fock matrix formation ***
    9    -1841.9077112469647091    -4.41e-07  2.79e-05  1.45e-03  1.24e-04     4.5
   10    -1841.9077098155905787     1.43e-06  1.79e-05  9.08e-04  2.71e-04     3.1
   11    -1841.9077115728671288    -1.76e-06  7.24e-06  2.10e-04  3.85e-05     3.1
                  *** Gradient check signals convergence ***

               *****************************************************
               *                     SUCCESS                       *
               *           SCF CONVERGED AFTER  11 CYCLES          *
               *****************************************************

             **** ENERGY FILE WAS UPDATED (sp.en.tmp) ****

----------------
TOTAL SCF ENERGY
----------------

Total Energy       :      -1841.90771157286713 Eh          -50120.85693 eV

Components:
Nuclear Repulsion  :       1229.71729871126695 Eh           33462.30889 eV
Electronic Energy  :      -3071.62501028413408 Eh          -83583.16582 eV
One Electron Energy:      -4974.55218626932947 Eh         -135364.44678 eV
Two Electron Energy:       1902.92717598519539 Eh           51781.28097 eV

Virial components:
Potential Energy   :      -3678.91177014564255 Eh         -100108.27867 eV
Kinetic Energy     :       1837.00405857277519 Eh           49987.42175 eV
Virial Ratio       :          2.00266937515854

DFT components:
N(Alpha)           :       64.999945890098 electrons
N(Beta)            :       64.999945890098 electrons
N(Total)           :      129.999891780195 electrons
E(X)               :     -147.710134923463 Eh       
E(C)               :       -4.580172067815 Eh       
E(XC)              :     -152.290306991277 Eh       

---------------
SCF CONVERGENCE
---------------

  Last Energy change         ...    1.7573e-06  Tolerance :   1.0000e-06
  Last MAX-Density change    ...    2.1027e-04  Tolerance :   1.0000e-05
  Last RMS-Density change    ...    7.2371e-06  Tolerance :   1.0000e-06
  Last DIIS Error            ...    2.0612e-04  Tolerance :   1.0000e-06
  Last Orbital Gradient      ...    3.8487e-05  Tolerance :   3.3300e-04
  Last Orbital Rotation      ...    1.4767e-04  Tolerance :   3.3300e-04


----------------
ORBITAL ENERGIES
----------------

  NO   OCC          E(Eh)            E(eV) 
   0   2.0000    -101.235161     -2754.7488 
   1   2.0000    -101.232531     -2754.6772 
   2   2.0000    -101.232525     -2754.6771 
   3   2.0000     -10.122979      -275.4603 
   4   2.0000     -10.122825      -275.4561 
   5   2.0000     -10.122819      -275.4559 
   6   2.0000     -10.076585      -274.1978 
   7   2.0000     -10.067469      -273.9498 
   8   2.0000     -10.067463      -273.9496 
   9   2.0000     -10.058170      -273.6967 
  10   2.0000     -10.044160      -273.3155 
  11   2.0000     -10.044148      -273.3152 
  12   2.0000     -10.043007      -273.2841 
  13   2.0000     -10.042857      -273.2800 
  14   2.0000     -10.042166      -273.2612 
  15   2.0000      -9.391219      -255.5481 
  16   2.0000      -9.388465      -255.4731 
  17   2.0000      -9.388459      -255.4730 
  18   2.0000      -7.137515      -194.2217 
  19   2.0000      -7.134842      -194.1489 
  20   2.0000      -7.134837      -194.1488 
  21   2.0000      -7.127452      -193.9478 
  22   2.0000      -7.126931      -193.9337 
  23   2.0000      -7.124821      -193.8762 
  24   2.0000      -7.124816      -193.8761 
  25   2.0000      -7.123988      -193.8536 
  26   2.0000      -7.123983      -193.8534 
  27   2.0000      -0.904001       -24.5991 
  28   2.0000      -0.861938       -23.4545 
  29   2.0000      -0.856862       -23.3164 
  30   2.0000      -0.835191       -22.7267 
  31   2.0000      -0.789262       -21.4769 
  32   2.0000      -0.755982       -20.5713 
  33   2.0000      -0.725665       -19.7464 
  34   2.0000      -0.721564       -19.6348 
  35   2.0000      -0.698123       -18.9969 
  36   2.0000      -0.604753       -16.4562 
  37   2.0000      -0.594642       -16.1810 
  38   2.0000      -0.585679       -15.9371 
  39   2.0000      -0.565878       -15.3983 
  40   2.0000      -0.514558       -14.0018 
  41   2.0000      -0.491221       -13.3668 
  42   2.0000      -0.484127       -13.1738 
  43   2.0000      -0.454214       -12.3598 
  44   2.0000      -0.439400       -11.9567 
  45   2.0000      -0.435308       -11.8453 
  46   2.0000      -0.428383       -11.6569 
  47   2.0000      -0.412034       -11.2120 
  48   2.0000      -0.405918       -11.0456 
  49   2.0000      -0.398189       -10.8353 
  50   2.0000      -0.379601       -10.3295 
  51   2.0000      -0.377726       -10.2784 
  52   2.0000      -0.353923        -9.6307 
  53   2.0000      -0.352818        -9.6007 
  54   2.0000      -0.349447        -9.5089 
  55   2.0000      -0.324717        -8.8360 
  56   2.0000      -0.322879        -8.7860 
  57   2.0000      -0.305251        -8.3063 
  58   2.0000      -0.301904        -8.2152 
  59   2.0000      -0.291150        -7.9226 
  60   2.0000      -0.290596        -7.9075 
  61   2.0000      -0.246740        -6.7141 
  62   2.0000      -0.242126        -6.5886 
  63   2.0000      -0.241053        -6.5594 
  64   2.0000      -0.239877        -6.5274 
  65   0.0000      -0.065165        -1.7732 
  66   0.0000      -0.061432        -1.6716 
  67   0.0000      -0.042713        -1.1623 
  68   0.0000      -0.038416        -1.0454 
  69   0.0000      -0.031195        -0.8489 
  70   0.0000       0.026359         0.7173 
  71   0.0000       0.027008         0.7349 
  72   0.0000       0.062861         1.7105 
  73   0.0000       0.080069         2.1788 
  74   0.0000       0.094912         2.5827 
  75   0.0000       0.102072         2.7775 
*Only the first 10 virtual orbitals were printed.

                    ********************************
                    * MULLIKEN POPULATION ANALYSIS *
                    ********************************

-----------------------
MULLIKEN ATOMIC CHARGES
-----------------------
   0 C :   -0.122828
   1 C :   -0.166369
   2 C :   -0.169123
   3 C :    0.120961
   4 C :   -0.169062
   5 C :   -0.166363
   6 C :   -0.020837
   7 C :    0.177883
   8 C :   -0.365181
   9 C :    0.285931
  10 C :   -0.365186
  11 C :    0.177916
  12 Cl:   -0.101505
  13 Cl:   -0.120739
  14 Cl:   -0.101519
  15 H :    0.148048
  16 H :    0.146178
  17 H :    0.156670
  18 H :    0.156660
  19 H :    0.146177
  20 H :    0.176146
  21 H :    0.176142
Sum of atomic charges:   -0.0000000

--------------------------------
MULLIKEN REDUCED ORBITAL CHARGES
--------------------------------
  0 C s       :     3.167588  s :     3.167588
      pz      :     0.907486  p :     2.917640
      px      :     1.028645
      py      :     0.981509
      dz2     :     0.011719  d :     0.037600
      dxz     :     0.011527
      dyz     :     0.006707
      dx2y2   :     0.005113
      dxy     :     0.002534

  1 C s       :     3.207088  s :     3.207088
      pz      :     0.996315  p :     2.921639
      px      :     0.945434
      py      :     0.979890
      dz2     :     0.009304  d :     0.037642
      dxz     :     0.012782
      dyz     :     0.003565
      dx2y2   :     0.006099
      dxy     :     0.005892

  2 C s       :     3.176331  s :     3.176331
      pz      :     1.005203  p :     2.955308
      px      :     0.968756
      py      :     0.981349
      dz2     :     0.008802  d :     0.037484
      dxz     :     0.013170
      dyz     :     0.003579
      dx2y2   :     0.006100
      dxy     :     0.005834

  3 C s       :     3.150377  s :     3.150377
      pz      :     0.952295  p :     2.680298
      px      :     0.725235
      py      :     1.002768
      dz2     :     0.013211  d :     0.048364
      dxz     :     0.015379
      dyz     :     0.007151
      dx2y2   :     0.007505
      dxy     :     0.005118

  4 C s       :     3.176293  s :     3.176293
      pz      :     1.005331  p :     2.955286
      px      :     0.968607
      py      :     0.981348
      dz2     :     0.008803  d :     0.037484
      dxz     :     0.013166
      dyz     :     0.003576
      dx2y2   :     0.006101
      dxy     :     0.005838

  5 C s       :     3.207079  s :     3.207079
      pz      :     0.996214  p :     2.921642
      px      :     0.945546
      py      :     0.979882
      dz2     :     0.009303  d :     0.037642
      dxz     :     0.012786
      dyz     :     0.003567
      dx2y2   :     0.006097
      dxy     :     0.005888

  6 C s       :     3.267433  s :     3.267433
      pz      :     1.028113  p :     2.707100
      px      :     0.806798
      py      :     0.872190
      dz2     :     0.004046  d :     0.046305
      dxz     :     0.006458
      dyz     :     0.006529
      dx2y2   :     0.013054
      dxy     :     0.016218

  7 C s       :     3.176419  s :     3.176419
      pz      :     1.006020  p :     2.590231
      px      :     0.860528
      py      :     0.723683
      dz2     :     0.004295  d :     0.055466
      dxz     :     0.008555
      dyz     :     0.008089
      dx2y2   :     0.016962
      dxy     :     0.017565

  8 C s       :     3.247493  s :     3.247493
      pz      :     1.023949  p :     3.082333
      px      :     1.008051
      py      :     1.050334
      dz2     :     0.003566  d :     0.035355
      dxz     :     0.005866
      dyz     :     0.003833
      dx2y2   :     0.011220
      dxy     :     0.010870

  9 C s       :     3.065178  s :     3.065178
      pz      :     1.005462  p :     2.593189
      px      :     0.703949
      py      :     0.883779
      dz2     :     0.004376  d :     0.055702
      dxz     :     0.008517
      dyz     :     0.008193
      dx2y2   :     0.017802
      dxy     :     0.016813

 10 C s       :     3.247527  s :     3.247527
      pz      :     1.023968  p :     3.082306
      px      :     1.008060
      py      :     1.050277
      dz2     :     0.003565  d :     0.035354
      dxz     :     0.005864
      dyz     :     0.003835
      dx2y2   :     0.011221
      dxy     :     0.010870

 11 C s       :     3.176354  s :     3.176354
      pz      :     1.006030  p :     2.590263
      px      :     0.860581
      py      :     0.723651
      dz2     :     0.004295  d :     0.055467
      dxz     :     0.008555
      dyz     :     0.008089
      dx2y2   :     0.016963
      dxy     :     0.017565

 12 Cls       :     5.947458  s :     5.947458
      pz      :     3.897817  p :    11.098070
      px      :     3.777817
      py      :     3.422436
      dz2     :     0.006418  d :     0.055977
      dxz     :     0.005894
      dyz     :     0.014165
      dx2y2   :     0.012808
      dxy     :     0.016692

 13 Cls       :     5.945617  s :     5.945617
      pz      :     3.924214  p :    11.119881
      px      :     3.232463
      py      :     3.963204
      dz2     :     0.005703  d :     0.055240
      dxz     :     0.019413
      dyz     :     0.000668
      dx2y2   :     0.017815
      dxy     :     0.011640

 14 Cls       :     5.947474  s :     5.947474
      pz      :     3.897753  p :    11.098063
      px      :     3.777514
      py      :     3.422797
      dz2     :     0.006421  d :     0.055981
      dxz     :     0.005904
      dyz     :     0.014157
      dx2y2   :     0.012801
      dxy     :     0.016699

 15 H s       :     0.832463  s :     0.832463
      pz      :     0.003150  p :     0.019489
      px      :     0.012226
      py      :     0.004114

 16 H s       :     0.834309  s :     0.834309
      pz      :     0.009870  p :     0.019513
      px      :     0.005395
      py      :     0.004249

 17 H s       :     0.823773  s :     0.823773
      pz      :     0.009800  p :     0.019557
      px      :     0.005482
      py      :     0.004275

 18 H s       :     0.823783  s :     0.823783
      pz      :     0.009809  p :     0.019557
      px      :     0.005473
      py      :     0.004276

 19 H s       :     0.834311  s :     0.834311
      pz      :     0.009863  p :     0.019513
      px      :     0.005403
      py      :     0.004247

 20 H s       :     0.803868  s :     0.803868
      pz      :     0.004342  p :     0.019986
      px      :     0.005362
      py      :     0.010282

 21 H s       :     0.803872  s :     0.803872
      pz      :     0.004343  p :     0.019986
      px      :     0.005366
      py      :     0.010277


------------------------
MULLIKEN OVERLAP CHARGES
------------------------
B(  0-C ,  1-C ) :   0.9793 B(  0-C ,  2-C ) :  -0.1652 B(  0-C ,  3-C ) :  -0.0733 
B(  0-C ,  4-C ) :  -0.1654 B(  0-C ,  5-C ) :   0.9795 B(  0-C , 15-H ) :   0.7935 
B(  0-C , 16-H ) :  -0.0647 B(  0-C , 19-H ) :  -0.0647 B(  1-C ,  2-C ) :   0.8695 
B(  1-C ,  3-C ) :  -0.0898 B(  1-C ,  5-C ) :  -0.1562 B(  1-C , 15-H ) :  -0.0573 
B(  1-C , 16-H ) :   0.8000 B(  1-C , 17-H ) :  -0.0541 B(  2-C ,  3-C ) :   0.9126 
B(  2-C ,  4-C ) :  -0.2385 B(  2-C ,  6-C ) :  -0.1191 B(  2-C , 16-H ) :  -0.0569 
B(  2-C , 17-H ) :   0.8252 B(  3-C ,  4-C ) :   0.9131 B(  3-C ,  5-C ) :  -0.0900 
B(  3-C ,  6-C ) :   0.2361 B(  3-C ,  7-C ) :  -0.4022 B(  3-C ,  8-C ) :   0.1264 
B(  3-C ,  9-C ) :  -0.0529 B(  3-C , 10-C ) :   0.1264 B(  3-C , 11-C ) :  -0.4020 
B(  3-C , 17-H ) :  -0.1083 B(  3-C , 18-H ) :  -0.1083 B(  4-C ,  5-C ) :   0.8702 
B(  4-C ,  6-C ) :  -0.1199 B(  4-C , 18-H ) :   0.8252 B(  4-C , 19-H ) :  -0.0568 
B(  5-C , 15-H ) :  -0.0573 B(  5-C , 18-H ) :  -0.0541 B(  5-C , 19-H ) :   0.8000 
B(  6-C ,  7-C ) :   0.2556 B(  6-C ,  8-C ) :  -0.0822 B(  6-C ,  9-C ) :  -0.1361 
B(  6-C , 10-C ) :  -0.0821 B(  6-C , 11-C ) :   0.2551 B(  6-C , 12-Cl) :  -0.2590 
B(  6-C , 14-Cl) :  -0.2590 B(  7-C ,  8-C ) :   0.3258 B(  7-C , 10-C ) :  -0.3361 
B(  7-C , 11-C ) :  -0.0722 B(  7-C , 12-Cl) :   0.0627 B(  7-C , 14-Cl) :   0.6106 
B(  8-C ,  9-C ) :   0.5942 B(  8-C , 11-C ) :  -0.3360 B(  8-C , 13-Cl) :  -0.0749 
B(  8-C , 14-Cl) :  -0.1106 B(  8-C , 20-H ) :   0.7638 B(  9-C , 10-C ) :   0.5943 
B(  9-C , 12-Cl) :   0.0521 B(  9-C , 13-Cl) :   0.4345 B(  9-C , 14-Cl) :   0.0521 
B( 10-C , 11-C ) :   0.3256 B( 10-C , 12-Cl) :  -0.1106 B( 10-C , 13-Cl) :  -0.0749 
B( 10-C , 21-H ) :   0.7638 B( 11-C , 12-Cl) :   0.6107 B( 11-C , 14-Cl) :   0.0627 



                     *******************************
                     * LOEWDIN POPULATION ANALYSIS *
                     *******************************

----------------------
LOEWDIN ATOMIC CHARGES
----------------------
   0 C :   -0.159987
   1 C :   -0.155614
   2 C :   -0.139170
   3 C :   -0.094466
   4 C :   -0.139177
   5 C :   -0.155614
   6 C :   -0.100630
   7 C :   -0.137151
   8 C :   -0.184130
   9 C :   -0.160264
  10 C :   -0.184133
  11 C :   -0.137166
  12 Cl:    0.178737
  13 Cl:    0.152668
  14 Cl:    0.178762
  15 H :    0.168272
  16 H :    0.169142
  17 H :    0.176158
  18 H :    0.176155
  19 H :    0.169140
  20 H :    0.189234
  21 H :    0.189234

-------------------------------
LOEWDIN REDUCED ORBITAL CHARGES
-------------------------------
  0 C s       :     2.904017  s :     2.904017
      pz      :     1.097037  p :     3.174085
      px      :     1.102987
      py      :     0.974062
      dz2     :     0.027572  d :     0.081885
      dxz     :     0.027200
      dyz     :     0.012478
      dx2y2   :     0.010716
      dxy     :     0.003919

  1 C s       :     2.903354  s :     2.903354
      pz      :     1.100185  p :     3.170156
      px      :     1.098244
      py      :     0.971727
      dz2     :     0.021524  d :     0.082104
      dxz     :     0.030873
      dyz     :     0.006054
      dx2y2   :     0.012823
      dxy     :     0.010829

  2 C s       :     2.896423  s :     2.896423
      pz      :     1.088736  p :     3.160487
      px      :     1.090575
      py      :     0.981176
      dz2     :     0.020660  d :     0.082260
      dxz     :     0.031726
      dyz     :     0.006222
      dx2y2   :     0.012887
      dxy     :     0.010766

  3 C s       :     2.854558  s :     2.854558
      pz      :     1.119325  p :     3.139257
      px      :     1.023945
      py      :     0.995986
      dz2     :     0.029405  d :     0.100652
      dxz     :     0.034124
      dyz     :     0.012947
      dx2y2   :     0.015595
      dxy     :     0.008581

  4 C s       :     2.896429  s :     2.896429
      pz      :     1.088774  p :     3.160489
      px      :     1.090538
      py      :     0.981177
      dz2     :     0.020663  d :     0.082259
      dxz     :     0.031716
      dyz     :     0.006216
      dx2y2   :     0.012891
      dxy     :     0.010774

  5 C s       :     2.903355  s :     2.903355
      pz      :     1.100189  p :     3.170157
      px      :     1.098236
      py      :     0.971732
      dz2     :     0.021521  d :     0.082102
      dxz     :     0.030883
      dyz     :     0.006060
      dx2y2   :     0.012817
      dxy     :     0.010820

  6 C s       :     2.854850  s :     2.854850
      pz      :     1.007225  p :     3.147145
      px      :     1.060287
      py      :     1.079633
      dz2     :     0.007779  d :     0.098635
      dxz     :     0.011328
      dyz     :     0.012238
      dx2y2   :     0.030019
      dxy     :     0.037271

  7 C s       :     2.886214  s :     2.886214
      pz      :     1.007468  p :     3.132163
      px      :     1.092151
      py      :     1.032545
      dz2     :     0.008449  d :     0.118774
      dxz     :     0.015693
      dyz     :     0.015219
      dx2y2   :     0.039337
      dxy     :     0.040076

  8 C s       :     2.904040  s :     2.904040
      pz      :     1.019922  p :     3.200379
      px      :     1.080283
      py      :     1.100174
      dz2     :     0.006435  d :     0.079711
      dxz     :     0.011037
      dyz     :     0.006649
      dx2y2   :     0.027820
      dxy     :     0.027770

  9 C s       :     2.891730  s :     2.891730
      pz      :     1.006659  p :     3.149812
      px      :     1.008931
      py      :     1.134222
      dz2     :     0.008514  d :     0.118723
      dxz     :     0.015775
      dyz     :     0.014935
      dx2y2   :     0.040130
      dxy     :     0.039369

 10 C s       :     2.904042  s :     2.904042
      pz      :     1.019934  p :     3.200382
      px      :     1.080291
      py      :     1.100156
      dz2     :     0.006433  d :     0.079709
      dxz     :     0.011032
      dyz     :     0.006652
      dx2y2   :     0.027821
      dxy     :     0.027771

 11 C s       :     2.886213  s :     2.886213
      pz      :     1.007475  p :     3.132178
      px      :     1.092198
      py      :     1.032505
      dz2     :     0.008448  d :     0.118776
      dxz     :     0.015692
      dyz     :     0.015219
      dx2y2   :     0.039341
      dxy     :     0.040076

 12 Cls       :     5.636945  s :     5.636945
      pz      :     3.876350  p :    11.067912
      px      :     3.747916
      py      :     3.443647
      dz2     :     0.015203  d :     0.116406
      dxz     :     0.010124
      dyz     :     0.024659
      dx2y2   :     0.027004
      dxy     :     0.039416

 13 Cls       :     5.640553  s :     5.640553
      pz      :     3.895559  p :    11.092254
      px      :     3.282942
      py      :     3.913753
      dz2     :     0.014775  d :     0.114526
      dxz     :     0.033010
      dyz     :     0.000859
      dx2y2   :     0.042722
      dxy     :     0.023160

 14 Cls       :     5.636940  s :     5.636940
      pz      :     3.876288  p :    11.067885
      px      :     3.747638
      py      :     3.443959
      dz2     :     0.015205  d :     0.116412
      dxz     :     0.010142
      dyz     :     0.024645
      dx2y2   :     0.026982
      dxy     :     0.039438

 15 H s       :     0.787099  s :     0.787099
      pz      :     0.007077  p :     0.044629
      px      :     0.028691
      py      :     0.008861

 16 H s       :     0.786308  s :     0.786308
      pz      :     0.023068  p :     0.044551
      px      :     0.012360
      py      :     0.009123

 17 H s       :     0.778999  s :     0.778999
      pz      :     0.023030  p :     0.044843
      px      :     0.012529
      py      :     0.009285

 18 H s       :     0.779002  s :     0.779002
      pz      :     0.023050  p :     0.044843
      px      :     0.012506
      py      :     0.009287

 19 H s       :     0.786310  s :     0.786310
      pz      :     0.023051  p :     0.044550
      px      :     0.012381
      py      :     0.009118

 20 H s       :     0.764224  s :     0.764224
      pz      :     0.009962  p :     0.046542
      px      :     0.012165
      py      :     0.024416

 21 H s       :     0.764224  s :     0.764224
      pz      :     0.009964  p :     0.046542
      px      :     0.012175
      py      :     0.024402


---------------------------------
LOEWDIN BOND ORDERS (THRESH 0.050000)
---------------------------------
B(  0-C ,  1-C ) :   1.5059 B(  0-C ,  2-C ) :   0.0887 B(  0-C ,  3-C ) :   0.1262 
B(  0-C ,  4-C ) :   0.0887 B(  0-C ,  5-C ) :   1.5059 B(  0-C , 15-H ) :   0.8749 
B(  0-C , 16-H ) :   0.0538 B(  0-C , 19-H ) :   0.0538 B(  1-C ,  2-C ) :   1.5106 
B(  1-C ,  3-C ) :   0.0910 B(  1-C ,  4-C ) :   0.1303 B(  1-C ,  5-C ) :   0.0875 
B(  1-C , 15-H ) :   0.0540 B(  1-C , 16-H ) :   0.8726 B(  1-C , 17-H ) :   0.0528 
B(  2-C ,  3-C ) :   1.4263 B(  2-C ,  4-C ) :   0.0819 B(  2-C ,  5-C ) :   0.1303 
B(  2-C ,  6-C ) :   0.0890 B(  2-C , 16-H ) :   0.0554 B(  2-C , 17-H ) :   0.8639 
B(  3-C ,  4-C ) :   1.4264 B(  3-C ,  5-C ) :   0.0910 B(  3-C ,  6-C ) :   1.0143 
B(  3-C ,  7-C ) :   0.0834 B(  3-C , 11-C ) :   0.0834 B(  3-C , 17-H ) :   0.0524 
B(  3-C , 18-H ) :   0.0524 B(  4-C ,  5-C ) :   1.5105 B(  4-C ,  6-C ) :   0.0890 
B(  4-C , 18-H ) :   0.8639 B(  4-C , 19-H ) :   0.0554 B(  5-C , 15-H ) :   0.0540 
B(  5-C , 18-H ) :   0.0528 B(  5-C , 19-H ) :   0.8726 B(  6-C ,  7-C ) :   1.3516 
B(  6-C ,  8-C ) :   0.0895 B(  6-C ,  9-C ) :   0.1046 B(  6-C , 10-C ) :   0.0895 
B(  6-C , 11-C ) :   1.3516 B(  6-C , 12-Cl) :   0.1497 B(  6-C , 14-Cl) :   0.1497 
B(  7-C ,  8-C ) :   1.4281 B(  7-C ,  9-C ) :   0.0975 B(  7-C , 10-C ) :   0.1099 
B(  7-C , 11-C ) :   0.0924 B(  7-C , 14-Cl) :   1.4100 B(  7-C , 20-H ) :   0.0530 
B(  8-C ,  9-C ) :   1.4250 B(  8-C , 10-C ) :   0.0889 B(  8-C , 11-C ) :   0.1099 
B(  8-C , 13-Cl) :   0.1588 B(  8-C , 14-Cl) :   0.1594 B(  8-C , 20-H ) :   0.8608 
B(  9-C , 10-C ) :   1.4251 B(  9-C , 11-C ) :   0.0975 B(  9-C , 13-Cl) :   1.4274 
B(  9-C , 20-H ) :   0.0519 B(  9-C , 21-H ) :   0.0519 B( 10-C , 11-C ) :   1.4281 
B( 10-C , 12-Cl) :   0.1594 B( 10-C , 13-Cl) :   0.1588 B( 10-C , 21-H ) :   0.8608 
B( 11-C , 12-Cl) :   1.4100 B( 11-C , 21-H ) :   0.0530 

------------------------------------------
LOEWDIN REDUCED ORBITAL POPULATIONS PER MO
-------------------------------------------
THRESHOLD FOR PRINTING IS 0.1%%
                      0         1         2         3         4         5   
                 -101.23516 -101.23253 -101.23253 -10.12298 -10.12282 -10.12282
                   2.00000   2.00000   2.00000   2.00000   2.00000   2.00000
                  --------  --------  --------  --------  --------  --------
 6 C  py              0.0       0.0       0.0       0.0       0.1       0.1
 7 C  s               0.0       0.0       0.0       0.0       1.9      97.6
 8 C  px              0.0       0.0       0.0       0.0       0.0       0.1
 8 C  py              0.0       0.0       0.0       0.1       0.0       0.0
 9 C  s               0.0       0.0       0.0      99.5       0.0       0.0
10 C  px              0.0       0.0       0.0       0.0       0.1       0.0
10 C  py              0.0       0.0       0.0       0.1       0.0       0.0
11 C  s               0.0       0.0       0.0       0.0      97.6       1.9
12 Cl s               0.0      99.4       0.6       0.0       0.0       0.0
13 Cl s             100.0       0.0       0.0       0.0       0.0       0.0
14 Cl s               0.0       0.6      99.4       0.0       0.0       0.0

                      6         7         8         9        10        11   
                 -10.07659 -10.06747 -10.06746 -10.05817 -10.04416 -10.04415
                   2.00000   2.00000   2.00000   2.00000   2.00000   2.00000
                  --------  --------  --------  --------  --------  --------
 0 C  s               0.0       0.0       0.0       0.0       0.0       0.1
 1 C  s               0.0       0.0       0.0       0.0       1.1       2.5
 2 C  s               0.0       0.0       0.0       0.0      30.3      65.7
 3 C  s               0.0       0.0       0.0      99.5       0.0       0.1
 3 C  pz              0.0       0.0       0.0       0.0       0.2       0.0
 4 C  s               0.0       0.0       0.0       0.0      65.8      30.2
 5 C  s               0.0       0.0       0.0       0.0       2.4       1.1
 6 C  s              99.5       0.0       0.0       0.0       0.0       0.0
 7 C  px              0.0       0.0       0.1       0.0       0.0       0.0
 8 C  s               0.0      30.1      69.5       0.0       0.0       0.0
 9 C  py              0.0       0.2       0.0       0.0       0.0       0.0
10 C  s               0.0      69.4      30.2       0.0       0.0       0.0

                     12        13        14        15        16        17   
                 -10.04301 -10.04286 -10.04217  -9.39122  -9.38846  -9.38846
                   2.00000   2.00000   2.00000   2.00000   2.00000   2.00000
                  --------  --------  --------  --------  --------  --------
 0 C  s              17.9       0.0      81.6       0.0       0.0       0.0
 0 C  pz              0.0       0.2       0.0       0.0       0.0       0.0
 1 C  s              38.6      48.5       8.9       0.0       0.0       0.0
 2 C  s               1.7       1.8       0.1       0.0       0.0       0.0
 4 C  s               1.7       1.7       0.1       0.0       0.0       0.0
 5 C  s              39.6      47.6       8.9       0.0       0.0       0.0
 7 C  py              0.0       0.0       0.0       0.0       0.0       0.1
 9 C  px              0.0       0.0       0.0       0.2       0.0       0.0
11 C  py              0.0       0.0       0.0       0.0       0.1       0.0
12 Cl s               0.0       0.0       0.0       0.0      99.3       0.5
13 Cl s               0.0       0.0       0.0      99.8       0.0       0.0
14 Cl s               0.0       0.0       0.0       0.0       0.5      99.3

                     18        19        20        21        22        23   
                  -7.13752  -7.13484  -7.13484  -7.12745  -7.12693  -7.12482
                   2.00000   2.00000   2.00000   2.00000   2.00000   2.00000
                  --------  --------  --------  --------  --------  --------
12 Cl pz              0.0       1.9       0.0       0.0       0.0      97.4
12 Cl px              0.0      24.0       0.0       0.0       0.0       0.0
12 Cl py              0.0      74.0       0.0       0.0       0.0       2.6
13 Cl pz              0.0       0.0       0.0      97.4       2.6       0.0
13 Cl px            100.0       0.0       0.0       0.0       0.0       0.0
13 Cl py              0.0       0.0       0.0       2.6      97.4       0.0
14 Cl pz              0.0       0.0       2.0       0.0       0.0       0.0
14 Cl px              0.0       0.0      24.1       0.0       0.0       0.0
14 Cl py              0.0       0.0      74.0       0.0       0.0       0.0

                     24        25        26        27        28        29   
                  -7.12482  -7.12399  -7.12398  -0.90400  -0.86194  -0.85686
                   2.00000   2.00000   2.00000   2.00000   2.00000   2.00000
                  --------  --------  --------  --------  --------  --------
 0 C  s               0.0       0.0       0.0       0.1       0.5       0.0
 0 C  px              0.0       0.0       0.0       0.0       0.2       0.0
 1 C  s               0.0       0.0       0.0       0.1       0.6       0.0
 1 C  px              0.0       0.0       0.0       0.1       0.1       0.0
 2 C  s               0.0       0.0       0.0       0.5       1.3       0.0
 2 C  pz              0.0       0.0       0.0       0.3       0.4       0.0
 2 C  px              0.0       0.0       0.0       0.1       0.0       0.0
 3 C  s               0.0       0.0       0.0       2.4       3.1       0.0
 3 C  px              0.0       0.0       0.0       1.2       0.1       0.0
 3 C  py              0.0       0.0       0.0       0.0       0.0       0.7
 4 C  s               0.0       0.0       0.0       0.5       1.3       0.0
 4 C  pz              0.0       0.0       0.0       0.3       0.4       0.0
 4 C  px              0.0       0.0       0.0       0.1       0.0       0.0
 5 C  s               0.0       0.0       0.0       0.1       0.6       0.0
 5 C  px              0.0       0.0       0.0       0.1       0.1       0.0
 6 C  s               0.0       0.0       0.0      10.9       3.4       0.0
 6 C  pz              0.0       0.0       0.0       0.0       0.0       0.2
 6 C  px              0.0       0.0       0.0       1.2       0.4       0.0
 6 C  py              0.0       0.0       0.0       0.0       0.0       7.4
 6 C  dz2             0.0       0.0       0.0       0.1       0.0       0.0
 7 C  s               0.0       0.0       0.0      12.7       1.8       9.5
 7 C  pz              0.0       0.0       0.0       0.0       0.0       0.1
 7 C  px              0.0       0.0       0.0       0.0       2.4       0.5
 7 C  py              0.0       0.0       0.0       0.1       0.2       4.9
 7 C  dz2             0.0       0.0       0.0       0.2       0.0       0.1
 8 C  s               0.0       0.0       0.0       8.2       1.4       2.2
 8 C  px              0.0       0.0       0.0       0.6       3.3       1.6
 8 C  py              0.0       0.0       0.0       1.3       1.6       0.3
 9 C  s               0.0       0.0       0.0      10.9      14.3       0.0
 9 C  px              0.0       0.0       0.0       0.2       6.0       0.0
 9 C  py              0.0       0.0       0.0       0.0       0.0       1.1
 9 C  dz2             0.0       0.0       0.0       0.1       0.2       0.0
 9 C  dx2y2           0.0       0.0       0.0       0.0       0.1       0.0
10 C  s               0.0       0.0       0.0       8.2       1.4       2.2
10 C  px              0.0       0.0       0.0       0.6       3.3       1.6
10 C  py              0.0       0.0       0.0       1.3       1.6       0.4
11 C  s               0.0       0.0       0.0      12.7       1.8       9.5
11 C  pz              0.0       0.0       0.0       0.0       0.0       0.1
11 C  px              0.0       0.0       0.0       0.0       2.4       0.5
11 C  py              0.0       0.0       0.0       0.1       0.2       4.9
11 C  dz2             0.0       0.0       0.0       0.2       0.0       0.1
12 Cl s               0.0       0.0       0.0       6.5       4.7      23.8
12 Cl pz              0.0       0.6       0.0       0.0       0.0       0.0
12 Cl px              0.0      76.0       0.0       0.3       0.0       0.4
12 Cl py              0.0      23.4       0.0       0.8       0.2       0.9
12 Cl dxy             0.0       0.0       0.0       0.1       0.0       0.2
13 Cl s               0.0       0.0       0.0       5.4      31.4       0.0
13 Cl px              0.0       0.0       0.0       0.9       1.9       0.0
13 Cl dz2             0.0       0.0       0.0       0.1       0.1       0.0
13 Cl dx2y2           0.0       0.0       0.0       0.1       0.4       0.0
14 Cl s               0.0       0.0       0.0       6.5       4.7      23.7
14 Cl pz             97.4       0.0       0.6       0.0       0.0       0.0
14 Cl px              0.0       0.0      75.9       0.3       0.0       0.4
14 Cl py              2.6       0.0      23.4       0.8       0.2       0.9
14 Cl dxy             0.0       0.0       0.0       0.1       0.0       0.2
17 H  s               0.0       0.0       0.0       0.0       0.1       0.0
18 H  s               0.0       0.0       0.0       0.0       0.1       0.0
20 H  s               0.0       0.0       0.0       0.7       0.1       0.3
21 H  s               0.0       0.0       0.0       0.7       0.1       0.3

                     30        31        32        33        34        35   
                  -0.83519  -0.78926  -0.75598  -0.72567  -0.72156  -0.69812
                   2.00000   2.00000   2.00000   2.00000   2.00000   2.00000
                  --------  --------  --------  --------  --------  --------
 0 C  s              10.1       0.3      10.8       0.0       0.0       9.8
 0 C  pz              0.0       0.0       0.0       9.2       0.0       0.0
 0 C  px              2.4       0.0       0.4       0.0       0.0       0.2
 0 C  py              0.0       0.0       0.0       0.2       0.0       0.0
 0 C  dxz             0.0       0.0       0.0       0.3       0.0       0.0
 1 C  s              10.2       0.2       4.7      14.1       0.0       1.4
 1 C  pz              1.7       0.0       1.2       0.6       0.0       1.0
 1 C  px              0.6       0.0       1.3       2.0       0.0       4.0
 1 C  dx2y2           0.1       0.0       0.0       0.2       0.0       0.0
 2 C  s              10.5       0.0       0.4      14.5       0.0       3.7
 2 C  pz              1.8       0.0       0.7       0.6       0.0       0.7
 2 C  px              0.6       0.1       4.2       1.8       0.0       1.1
 2 C  dx2y2           0.1       0.0       0.0       0.2       0.0       0.0
 3 C  s              10.7       0.2       9.8       0.0       0.0       5.1
 3 C  pz              0.0       0.0       0.0      10.4       0.0       0.0
 3 C  px              2.9       0.4       2.5       0.0       0.0       4.0
 3 C  py              0.0       0.0       0.0       0.2       0.1       0.0
 3 C  dz2             0.1       0.0       0.0       0.0       0.0       0.2
 3 C  dxz             0.0       0.0       0.0       0.3       0.0       0.0
 4 C  s              10.5       0.0       0.4      14.6       0.0       3.7
 4 C  pz              1.8       0.0       0.7       0.6       0.0       0.7
 4 C  px              0.6       0.1       4.2       1.8       0.0       1.1
 4 C  dx2y2           0.1       0.0       0.0       0.2       0.0       0.0
 5 C  s              10.2       0.2       4.7      14.1       0.0       1.4
 5 C  pz              1.7       0.0       1.2       0.6       0.0       1.0
 5 C  px              0.6       0.0       1.3       2.0       0.0       4.0
 5 C  dx2y2           0.1       0.0       0.0       0.2       0.0       0.0
 6 C  s               0.2       3.5       8.9       0.0       0.0       7.3
 6 C  pz              0.0       0.0       0.0       0.3       0.0       0.0
 6 C  px              2.8       0.9       3.0       0.0       0.0       3.6
 6 C  py              0.0       0.0       0.0       0.0       1.5       0.0
 6 C  dxy             0.0       0.0       0.0       0.0       0.1       0.0
 7 C  s               0.8       0.5       0.0       0.0       4.2       1.8
 7 C  pz              0.0       0.2       0.1       0.0       0.0       0.1
 7 C  px              0.0       2.5       3.2       0.0       7.1       1.4
 7 C  py              0.6       8.2       2.2       0.0       0.7       3.3
 7 C  dx2y2           0.0       0.1       0.0       0.0       0.2       0.1
 7 C  dxy             0.0       0.2       0.1       0.0       0.1       0.1
 8 C  s               0.1       2.8       3.1       0.0      15.4       2.3
 8 C  px              0.5       0.2       0.0       0.0       0.4       1.4
 8 C  py              0.1       1.0       0.2       0.0       0.2       0.3
 9 C  s               0.2       0.6       1.7       0.0       0.0       4.3
 9 C  pz              0.0       0.0       0.0       0.0       0.4       0.0
 9 C  px              1.0       9.5       4.3       0.0       0.0       2.3
 9 C  py              0.0       0.0       0.0       0.0      13.9       0.0
 9 C  dx2y2           0.0       0.2       0.1       0.0       0.0       0.2
 9 C  dxy             0.0       0.0       0.0       0.0       0.3       0.0
10 C  s               0.1       2.8       3.1       0.0      15.4       2.3
10 C  px              0.5       0.2       0.0       0.0       0.4       1.4
10 C  py              0.1       1.0       0.2       0.0       0.2       0.3
11 C  s               0.8       0.5       0.0       0.0       4.2       1.8
11 C  pz              0.0       0.2       0.1       0.0       0.0       0.1
11 C  px              0.0       2.5       3.2       0.0       7.1       1.4
11 C  py              0.6       8.2       2.2       0.0       0.7       3.3
11 C  dx2y2           0.0       0.1       0.0       0.0       0.2       0.1
11 C  dxy             0.0       0.2       0.1       0.0       0.1       0.1
12 Cl s               2.8      18.1       1.2       0.0       9.0       1.4
12 Cl px              0.0       0.0       0.0       0.0       0.4       0.0
12 Cl py              0.1       0.1       0.1       0.0       0.5       0.3
12 Cl dxy             0.0       0.0       0.0       0.0       0.1       0.0
13 Cl s               2.5      15.1       7.2       0.0       0.0       6.4
13 Cl px              0.1       0.2       0.3       0.0       0.0       1.1
13 Cl py              0.0       0.0       0.0       0.0       0.2       0.0
13 Cl dx2y2           0.0       0.0       0.0       0.0       0.0       0.1
14 Cl s               2.8      18.1       1.2       0.0       9.0       1.4
14 Cl px              0.0       0.0       0.0       0.0       0.4       0.0
14 Cl py              0.1       0.1       0.1       0.0       0.5       0.3
14 Cl dxy             0.0       0.0       0.0       0.0       0.1       0.0
15 H  s               0.9       0.0       1.5       0.0       0.0       2.1
15 H  px              0.1       0.0       0.1       0.0       0.0       0.2
16 H  s               0.9       0.0       0.6       2.4       0.0       0.3
16 H  pz              0.0       0.0       0.0       0.2       0.0       0.0
17 H  s               0.9       0.0       0.1       2.5       0.0       0.6
17 H  pz              0.0       0.0       0.0       0.2       0.0       0.1
18 H  s               0.9       0.0       0.1       2.5       0.0       0.6
18 H  pz              0.0       0.0       0.0       0.2       0.0       0.1
19 H  s               0.9       0.0       0.6       2.4       0.0       0.3
19 H  pz              0.0       0.0       0.0       0.1       0.0       0.0
20 H  s               0.0       0.2       0.4       0.0       2.9       0.5
20 H  py              0.0       0.0       0.0       0.0       0.2       0.0
21 H  s               0.0       0.2       0.4       0.0       2.9       0.5
21 H  py              0.0       0.0       0.0       0.0       0.2       0.0

                     36        37        38        39        40        41   
                  -0.60475  -0.59464  -0.58568  -0.56588  -0.51456  -0.49122
                   2.00000   2.00000   2.00000   2.00000   2.00000   2.00000
                  --------  --------  --------  --------  --------  --------
 0 C  s               5.4       0.0       0.0       3.7       0.2       0.0
 0 C  pz              0.0       0.0      14.0       0.0       0.0       0.0
 0 C  px              1.4       0.0       0.0       1.1       2.7       0.0
 0 C  py              0.0       0.0       0.3       0.0       0.0       0.0
 0 C  dxz             0.0       0.0       0.2       0.0       0.0       0.0
 1 C  s               0.4       0.0       7.3       1.9       1.1       0.0
 1 C  pz              1.7       0.0       0.2       4.0       6.1       0.0
 1 C  px              4.0       0.0       5.0       2.0       0.8       0.0
 1 C  py              0.0       0.0       0.0       0.1       0.1       0.0
 2 C  s               2.1       0.0       6.3       0.7       0.2       0.0
 2 C  pz              0.9       0.0       0.2       4.6       6.5       0.0
 2 C  px              1.7       0.0       6.6       3.0       0.2       0.0
 2 C  py              0.0       0.0       0.0       0.1       0.1       0.3
 3 C  s               2.1       0.0       0.0       4.9       0.1       0.0
 3 C  pz              0.0       0.0      15.9       0.0       0.0       0.1
 3 C  px              4.8       0.0       0.0       0.1       9.5       0.0
 3 C  py              0.0       0.6       0.4       0.0       0.0       2.7
 3 C  dxz             0.0       0.0       0.2       0.0       0.0       0.0
 4 C  s               2.1       0.0       6.3       0.7       0.2       0.0
 4 C  pz              0.9       0.0       0.2       4.6       6.5       0.0
 4 C  px              1.7       0.0       6.6       3.0       0.2       0.0
 4 C  py              0.0       0.0       0.0       0.1       0.1       0.3
 5 C  s               0.4       0.0       7.3       1.9       1.1       0.0
 5 C  pz              1.7       0.0       0.2       4.0       6.1       0.0
 5 C  px              4.0       0.0       4.9       1.9       0.9       0.0
 5 C  py              0.0       0.0       0.0       0.1       0.1       0.0
 6 C  s               1.7       0.0       0.0       1.2       0.5       0.0
 6 C  pz              0.0       0.5       1.3       0.0       0.0       0.3
 6 C  px              5.8       0.0       0.0       3.1       6.6       0.0
 6 C  py              0.0      17.7       0.1       0.0       0.0      12.9
 6 C  dx2y2           0.0       0.0       0.0       0.1       0.0       0.0
 6 C  dxy             0.0       0.4       0.0       0.0       0.0       0.0
 7 C  s               2.4       7.6       0.0       0.2       0.0       0.0
 7 C  pz              0.0       0.0       0.1       0.1       0.0       0.1
 7 C  px              3.1       2.0       0.0       2.9       0.3      10.7
 7 C  py              0.2       1.3       0.0       2.9       1.7       3.5
 7 C  dx2y2           0.0       0.0       0.0       0.1       0.0       0.0
 8 C  s               0.2       3.0       0.0       1.9       0.9       0.0
 8 C  pz              0.1       0.0       0.0       0.1       0.1       0.1
 8 C  px              5.3       6.0       0.0       1.0       1.5      11.1
 8 C  py              2.8       0.3       0.0       5.5       5.2       2.9
 8 C  dx2y2           0.2       0.1       0.0       0.0       0.0       0.1
 9 C  s               7.2       0.0       0.0       2.9       0.0       0.0
 9 C  pz              0.0       0.3       0.0       0.0       0.0       0.4
 9 C  px              0.1       0.0       0.0       0.0       1.8       0.0
 9 C  py              0.0      10.3       0.0       0.0       0.0      14.9
10 C  s               0.2       3.0       0.0       1.9       0.9       0.0
10 C  pz              0.1       0.0       0.0       0.1       0.1       0.1
10 C  px              5.4       6.0       0.0       1.0       1.5      11.1
10 C  py              2.8       0.3       0.0       5.5       5.2       2.9
10 C  dx2y2           0.2       0.1       0.0       0.0       0.0       0.1
[...]
14 Cl py              0.0       0.0       0.0       0.2       0.0       0.0
14 Cl dxy             0.0       0.0       0.0       0.1       0.0       0.0
15 H  s               0.0       0.0       0.0       0.1       2.8       0.0
15 H  pz              0.2       0.0       0.2       0.0       0.0       0.0
15 H  px              0.0       0.0       0.0       0.2       5.1       0.0
16 H  s               0.1       0.0       3.3       0.0       2.5       0.0
16 H  pz              0.0       0.0       7.8       0.0       3.3       0.0
16 H  px              0.3       0.0       1.7       0.0       1.2       0.0
16 H  py              0.0       0.0       0.2       0.0       0.1       0.0
17 H  s               0.0       0.0       3.4       0.0       2.0       0.0
17 H  pz              0.0       0.0       8.1       0.0       2.8       0.0
17 H  px              0.2       0.0       1.8       0.0       0.9       0.0
17 H  py              0.0       0.0       0.2       0.0       0.1       0.0
18 H  s               0.0       0.0       3.4       0.0       2.0       0.0
18 H  pz              0.0       0.0       8.1       0.0       2.8       0.0
18 H  px              0.2       0.0       1.8       0.0       0.9       0.0
18 H  py              0.0       0.0       0.2       0.0       0.1       0.0
19 H  s               0.1       0.0       3.3       0.0       2.5       0.0
19 H  pz              0.0       0.0       7.8       0.0       3.3       0.0
19 H  px              0.3       0.0       1.7       0.0       1.2       0.0
19 H  py              0.0       0.0       0.2       0.0       0.1       0.0
20 H  s               0.0       0.0       0.0       4.8       0.0       0.0
20 H  pz              0.0       0.0       0.0       0.2       0.0       0.0
20 H  px              0.0       0.0       0.0       3.3       0.0       0.0
20 H  py              0.0       0.0       0.0       9.0       0.0       0.0
21 H  s               0.0       0.0       0.0       4.8       0.0       0.0
21 H  pz              0.0       0.0       0.0       0.2       0.0       0.0
21 H  px              0.0       0.0       0.0       3.3       0.0       0.0
21 H  py              0.0       0.0       0.0       9.0       0.0       0.0

                    330       331       332       333       334       335   
                  21.45960  21.82984  21.84277  21.96010  22.02240  22.11501
                   0.00000   0.00000   0.00000   0.00000   0.00000   0.00000
                  --------  --------  --------  --------  --------  --------
 0 C  s              21.9       0.3       0.0       0.0      38.8       0.0
 1 C  s              21.2       0.1       0.0      29.9       1.3       0.0
 2 C  s              13.3       0.4       0.0      19.8      14.9       0.0
 3 C  s               7.8       2.6       0.0       0.0      13.7       0.0
 3 C  pz              0.0       0.0       0.0       0.1       0.0       0.0
 4 C  s              13.3       0.4       0.0      19.8      14.9       0.0
 5 C  s              21.2       0.1       0.0      29.9       1.3       0.0
 6 C  s               0.0      18.7       0.0       0.0       3.7       0.0
 6 C  px              0.1       0.0       0.0       0.0       0.1       0.0
 6 C  py              0.0       0.0       0.3       0.0       0.0       0.0
 7 C  s               0.3      13.0      37.5       0.0       2.3      12.3
 8 C  s               0.0       2.4      12.2       0.0       0.6      37.5
 9 C  s               0.0      45.6       0.0       0.0       5.1       0.0
 9 C  py              0.0       0.0       0.1       0.0       0.0       0.1
10 C  s               0.0       2.4      12.2       0.0       0.6      37.5
11 C  s               0.3      13.2      37.3       0.0       2.3      12.3

                    336       337       338       339       340       341   
                  22.16432  22.21533  22.24254  22.29563  22.37216  25.34617
                   0.00000   0.00000   0.00000   0.00000   0.00000   0.00000
                  --------  --------  --------  --------  --------  --------
 0 C  s              12.8       0.0      14.0       3.6       8.1       0.0
 1 C  s               0.9      19.8      14.4       1.6      10.2       0.0
 2 C  s               1.8      29.9       0.1       0.1      19.1       0.0
 3 C  s               0.4       0.0      45.5       0.5      28.6       0.1
 3 C  pz              0.0       0.1       0.0       0.0       0.0       0.0
 4 C  s               1.8      29.9       0.1       0.1      19.1       0.0
 5 C  s               0.9      20.0      14.3       1.6      10.2       0.0
 6 C  s              29.0       0.0       9.5      28.2       1.4       0.0
 7 C  s               0.4       0.0       0.1      14.5       1.0       0.0
 8 C  s              16.3       0.0       0.6      14.1       0.4       0.0
 9 C  s              18.7       0.0       0.1       6.7       0.1       0.1
 9 C  px              0.0       0.0       0.0       0.0       0.0       0.5
10 C  s              16.3       0.0       0.6      14.1       0.4       0.0
11 C  s               0.4       0.0       0.1      14.5       1.0       0.0
13 Cl s               0.0       0.0       0.0       0.0       0.0      98.9
13 Cl px              0.0       0.0       0.0       0.0       0.0       0.1

                    342       343   
                  25.49583  25.55886
                   0.00000   0.00000
                  --------  --------
 3 C  s               0.0       0.5
 6 C  px              0.0       0.1
 7 C  py              0.3       0.2
11 C  py              0.3       0.2
12 Cl s              49.7      49.0
13 Cl s               0.0       0.2
14 Cl s              49.4      49.3


                      *****************************
                      * MAYER POPULATION ANALYSIS *
                      *****************************

  NA   - Mulliken gross atomic population
  ZA   - Total nuclear charge
  QA   - Mulliken gross atomic charge
  VA   - Mayer's total valence
  BVA  - Mayer's bonded valence
  FA   - Mayer's free valence

  ATOM       NA         ZA         QA         VA         BVA        FA
  0 C      6.1228     6.0000    -0.1228     3.8149     3.8149     0.0000
  1 C      6.1664     6.0000    -0.1664     3.8718     3.8718     0.0000
  2 C      6.1691     6.0000    -0.1691     3.8883     3.8883     0.0000
  3 C      5.8790     6.0000     0.1210     3.5211     3.5211    -0.0000
  4 C      6.1691     6.0000    -0.1691     3.8882     3.8882     0.0000
  5 C      6.1664     6.0000    -0.1664     3.8717     3.8717     0.0000
  6 C      6.0208     6.0000    -0.0208     3.5433     3.5433     0.0000
  7 C      5.8221     6.0000     0.1779     3.6412     3.6412    -0.0000
  8 C      6.3652     6.0000    -0.3652     3.8551     3.8551    -0.0000
  9 C      5.7141     6.0000     0.2859     3.6793     3.6793    -0.0000
 10 C      6.3652     6.0000    -0.3652     3.8551     3.8551    -0.0000
 11 C      5.8221     6.0000     0.1779     3.6411     3.6411    -0.0000
 12 Cl    17.1015    17.0000    -0.1015     1.1857     1.1857    -0.0000
 13 Cl    17.1207    17.0000    -0.1207     1.1432     1.1432     0.0000
 14 Cl    17.1015    17.0000    -0.1015     1.1857     1.1857    -0.0000
 15 H      0.8520     1.0000     0.1480     0.9677     0.9677     0.0000
 16 H      0.8538     1.0000     0.1462     0.9687     0.9687     0.0000
 17 H      0.8433     1.0000     0.1567     0.9667     0.9667     0.0000
 18 H      0.8433     1.0000     0.1567     0.9667     0.9667    -0.0000
 19 H      0.8538     1.0000     0.1462     0.9687     0.9687    -0.0000
 20 H      0.8239     1.0000     0.1761     0.9623     0.9623    -0.0000
 21 H      0.8239     1.0000     0.1761     0.9623     0.9623    -0.0000

  Mayer bond orders larger than 0.100000
B(  0-C ,  1-C ) :   1.4193 B(  0-C ,  5-C ) :   1.4194 B(  0-C , 15-H ) :   0.9446 
B(  1-C ,  2-C ) :   1.4362 B(  1-C , 16-H ) :   0.9487 B(  2-C ,  3-C ) :   1.4199 
B(  2-C , 17-H ) :   0.9458 B(  3-C ,  4-C ) :   1.4198 B(  3-C ,  6-C ) :   0.7952 
B(  3-C ,  7-C ) :  -0.1013 B(  3-C , 11-C ) :  -0.1012 B(  4-C ,  5-C ) :   1.4361 
B(  4-C , 18-H ) :   0.9458 B(  5-C , 19-H ) :   0.9487 B(  6-C ,  7-C ) :   1.3667 
B(  6-C , 11-C ) :   1.3666 B(  7-C ,  8-C ) :   1.3314 B(  7-C , 14-Cl) :   1.0091 
B(  8-C ,  9-C ) :   1.3575 B(  8-C , 20-H ) :   0.9211 B(  9-C , 10-C ) :   1.3575 
B(  9-C , 13-Cl) :   0.9203 B( 10-C , 11-C ) :   1.3313 B( 10-C , 21-H ) :   0.9211 
B( 11-C , 12-Cl) :   1.0092 

-------
TIMINGS
-------

Total SCF time: 0 days 0 hours 0 min 42 sec 

Total time                  ....      42.680 sec
Sum of individual times     ....      42.628 sec  ( 99.9%)

SCF preparation             ....       0.314 sec  (  0.7%)
Fock matrix formation       ....      41.543 sec  ( 97.3%)
  Startup                   ....       0.014 sec  (  0.0% of F)
  Split-RI-J                ....      12.145 sec  ( 29.2% of F)
  XC integration            ....      29.192 sec  ( 70.3% of F)
    Basis function eval.    ....       4.651 sec  ( 15.9% of XC)
    Density eval.           ....      10.910 sec  ( 37.4% of XC)
    XC-Functional eval.     ....       2.381 sec  (  8.2% of XC)
    XC-Potential eval.      ....       9.804 sec  ( 33.6% of XC)
Diagonalization             ....       0.000 sec  (  0.0%)
Density matrix formation    ....       0.075 sec  (  0.2%)
Total Energy calculation    ....       0.009 sec  (  0.0%)
Population analysis         ....       0.151 sec  (  0.4%)
Orbital Transformation      ....       0.056 sec  (  0.1%)
Orbital Orthonormalization  ....       0.000 sec  (  0.0%)
DIIS solution               ....       0.386 sec  (  0.9%)
  MO trafo                  ....       0.000 sec  (  0.0 % of DIIS)
  Orb grad                  ....       0.000 sec  (  0.0 % of DIIS)
  Energy W gradient         ....       0.000 sec  (  0.0 % of DIIS)
  DIIS error                ....       0.057 sec  ( 14.8 % of DIIS)
  DIIS work                 ....       0.295 sec  ( 76.4 % of DIIS)
  Form Q                    ....       0.000 sec  (  0.0 % of DIIS)
  Form QpQm                 ....       0.000 sec  (  0.0 % of DIIS)
  Exp/Cayley                ....       0.000 sec  (  0.0 % of DIIS)
  Orb update                ....       0.000 sec  (  0.0 % of DIIS)
  Wake-sleep                ....       0.004 sec  (  1.1 % of DIIS)
SOSCF solution              ....       0.093 sec  (  0.2%)
  MO trafo                  ....       0.052 sec  ( 56.1 % of SOSCF)
  Orb grad                  ....       0.001 sec  (  0.6 % of SOSCF)
  Rot update                ....       0.006 sec  (  7.0 % of SOSCF)
  Step                      ....       0.034 sec  ( 36.2 % of SOSCF)
Finished LeanSCF after  42.8 sec

Maximum memory used throughout the entire LEANSCF-calculation: 41.6 MB


-------------------------------------------------------------------------------
                          DFT DISPERSION CORRECTION                            
                                                                               
                                DFTD4 V3.4.0                                   
-------------------------------------------------------------------------------
The R2SCAN3C composite method is recognized
Using three-body term ABC
Active option DFTDOPT                   ...         5   

-------------------------   ----------------
Dispersion correction           -0.011936272
-------------------------   ----------------

------------------   -----------------
gCP correction             0.008088875
------------------   -----------------

-------------------------   --------------------
FINAL SINGLE POINT ENERGY     -1841.911558969669
-------------------------   --------------------


------------------------------------------------------------------------------
                              ORCA PROPERTY CALCULATIONS
------------------------------------------------------------------------------

GBWName                                 ... sp.gbw
Number of atoms                         ...     22
Number of basis functions               ...    344
Max core memory                         ...   1024 MB

Electric properties:
Dipole moment                           ... YES
Quadrupole moment                       ...  NO
Static polarizability (Dipole/Dipole)   ...  NO
Static polarizability (Dipole/Quad.)    ...  NO
Static polarizability (Quad./Quad.)     ...  NO
Static polarizability (Velocity)        ...  NO

Atomic electric properties:
Dipole moment                           ...  NO
Quadrupole moment                       ...  NO
Static polarizability                   ...  NO

Choice of electric origin               ... Center of mass
Position of electric origin             ...    -0.000009    -0.000000    -0.000000

General magnetic properties:
Magnetizability                         ...  NO

EPR properties:
g-Tensor (aka g-matrix)                 ...  NO
Zero-Field splitting spin-orbit         ...  NO
Zero-field splitting spin-spin          ...  NO
Hyperfine couplings                     ...  NO (   0 nuclei)
Quadrupole couplings                    ...  NO (   0 nuclei)
Contact density                         ...  NO (   0 nuclei)

NMR properties:
Chemical shifts                         ...  NO (   0 nuclei)
Spin-rotation constants                 ...  NO (   0 nuclei)
Spin-spin couplings                     ...  NO (   0 nuclei,    0 pairs)

Choice of magnetic origin               ... GIAO
Position of magnetic origin             ...     0.000000     0.000000     0.000000

Properties with geometric perturbations:
SCF Hessian                             ...  NO
IR spectrum                             ...  NO
VCD spectrum                            ...  NO
X-ray spectroscopy properties:
SCF XES/XAS/RIXS spectra                ...  NO


-------------
DIPOLE MOMENT
-------------

Method             : SCF
Type of density    : Electron Density
Multiplicity       :   1
Irrep              :   0
Energy             : -1841.9077115728671288 Eh
Relativity type    : 
Basis              : AO
                                X                 Y                 Z
Electronic contribution:     16.460729866       0.002553474       0.003988000
Nuclear contribution   :    -16.806234001      -0.002978856      -0.004156344
                        -----------------------------------------
Total Dipole Moment    :     -0.345504135      -0.000425382      -0.000168344
                        -----------------------------------------
Magnitude (a.u.)       :      0.345504438
Magnitude (Debye)      :      0.878202490



--------------------
Rotational spectrum 
--------------------
 
Rotational constants in cm-1:             0.024901             0.009565             0.007445 
Rotational constants in MHz :           746.499525           286.748660           223.185596 

Dipole components along the rotational axes: 
x,y,z [a.u.] :    -0.345504    -0.000378    -0.000250 
x,y,z [Debye]:    -0.878202    -0.000960    -0.000634 

 

Dipole moment calculation done in   0.2 sec 

Maximum memory used throughout the entire PROP-calculation: 27.9 MB

--------------------------------
SUGGESTED CITATIONS FOR THIS RUN
--------------------------------

Below you find a list of papers that are relevant to this ORCA run
We neither can nor want to force you to cite these papers, but we appreciate if you do
You receive ORCA, which is the product of decades of hard work by many enthusiastic individuals, for free
The only thing we kindly ask in return is that you cite our papers,
We deeply appreciate it, if you show your appreciation for ORCA by not just citing the generic ORCA reference.

Please note that relegating all ORCA citations to the supporting information does *not* help us.
SI sections are not indexed - citations you put there will not count into any citation statistics
But we need these citations in order to attract the funding resources that allow us to do what we are doing

Therefore, if you are a happy ORCA user, please consider citing a few of the papers listed below in the main body of your paper

In addition to the list printed below, the program has created the file sp.bibtex that contains the list in bibtex format
You can import this file easily into all common literature databanks and citation aid programs


List of essential papers. We consider these as the minimum necessary citations

  1. Neese,F.
     Software update: the ORCA program system, version 5.0
     WIRES Comput. Molec. Sci., 2022 12(1)e1606
     doi.org/10.1002/wcms.1606
  2. Grimme,S.; Hansen,A.; Ehlert,S.; Mewes,J.
     r2SCAN-3c: A 'Swiss army knife' composite electronic-structure method
     J. Chem. Phys., 2021 154 064103
     doi.org/10.1063/5.0040021

List of papers to cite with high priority. The work reported in these papers was absolutely
necessary for this run to complete.
Our perspective: the developers of density functionals and basis sets usually get cited in chemistry papers
Good! But without the algorithms to do something with them, the functionals or basis sets would not do anything.
Hence, in our opinion, the algorithm design and method developments papers are equally worthy of getting cited

  1. Neese,F.
     An improvement of the resolution of the identity approximation for the formation of the Coulomb matrix
     J. Comp. Chem., 2003 24(14)1740-1747
     doi.org/10.1002/jcc.10318
  2. Neese,F.
     The SHARK Integral Generation and Digestion System
     J. Comp. Chem., 2022  1-16
     doi.org/10.1002/jcc.26942
  3. Lehtola,S.; Steigemann,C.; Oliveira,M.; Marques,M.
     Recent developments in Libxc - A comprehensive library of functionals for density functional theory
     Software X, 2018 7 
     doi.org/10.1016/j.softx.2017.11.002
  4. Caldeweyher,E.; Bannwarth,C.; Grimme,S.
     Extension of the D3 dispersion coefficient model
     J. Chem. Phys., 2017 147 034112
     doi.org/10.1063/1.4993215
  5. Caldeweyher,E.; Ehlert,S.; Hansen,A.; Neugebauer,H.; Spicher,S.; Bannwarth,C.; Grimme,S.
     A generally applicable atomic-charge dependent London dispersion correction
     J. Chem. Phys., 2019 150 154122
     doi.org/10.1063/1.5090222
  6. Caldeweyher,E.; Mewes,J.; Ehlert,S.; Grimme,S.
     Extension and evaluation of the D4 London-dispersion model for periodic systems
     Phys. Chem. Chem. Phys., 2020 22(16)8499-8512
     doi.org/10.1039/D0CP00502A
  7. Wittmann,L.; Gordiy,I.; Friede,M.; Helmich-Paris,B.; Grimme,S.; Hansen,A.; Bursch,M.
     Extension of the D3 and D4 London Dispersion Corrections to the full Actinides Series
     Phys. Chem. Chem. Phys., 2024 26(32)21379-21394
     doi.org/https://doi.org/10.1039/D4CP01514B 

List of suggested additional citations. These are papers that are important in the 'surrounding' of 
of this run, or papers that preceded the highly important papers. If you like your results we are grateful for a citation.

  1. Neese,F.
     The ORCA program system
     WIRES Comput. Molec. Sci., 2012 2(1)73-78
     doi.org/10.1002/wcms.81
  2. Neese,F.
     Software update: the ORCA program system, version 4.0
     WIRES Comput. Molec. Sci., 2018 8(1)1-6
     doi.org/10.1002/wcms.1327
  3. Neese,F.; Wennmohs,F.; Becker,U.; Riplinger,C.
     The ORCA quantum chemistry program package
     J. Chem. Phys., 2020 152 Art. No. L224108
     doi.org/10.1063/5.0004608

List of optional additional citations

  1. Neese,F.
     Approximate second-order SCF convergence for spin unrestricted wavefunctions
     Chem. Phys. Lett., 2000 325(1-3)93-98
     doi.org/10.1016/s0009-2614(00)00662-x

Timings for individual modules:

Sum of individual times          ...       45.019 sec (=   0.750 min)
Startup calculation              ...        1.621 sec (=   0.027 min)   3.6 %
SCF iterations                   ...       43.010 sec (=   0.717 min)  95.5 %
Property calculations            ...        0.388 sec (=   0.006 min)   0.9 %
                             ****ORCA TERMINATED NORMALLY****
TOTAL RUN TIME: 0 days 0 hours 0 minutes 46 seconds 83 msec
