 Entering Gaussian System
 *********************************************
 Gaussian 98:
 frequency output generated by the xtb code
 *********************************************
                         Standard orientation:
 --------------------------------------------------------------------
  Center     Atomic     Atomic              Coordinates (Angstroms)
  Number     Number      Type              X           Y           Z
 --------------------------------------------------------------------
    1          6             0        1.855464    0.783932   -0.740726
    2          6             0        1.133767   -0.345104   -0.012943
    3          6             0        1.958161   -0.911523    1.133807
    4          8             0       -0.092277    0.150245    0.552974
    5          6             0       -1.171456    0.178180   -0.229685
    6          8             0       -1.185163   -0.178723   -1.378525
    7          6             0       -2.369469    0.691709    0.528241
    8          1             0        2.789710    0.417023   -1.155884
    9          1             0        1.235218    1.158877   -1.551261
   10          1             0        2.066698    1.597552   -0.050424
   11          1             0        0.875689   -1.134620   -0.730911
   12          1             0        1.404464   -1.693872    1.646224
   13          1             0        2.188624   -0.124549    1.847232
   14          1             0        2.885114   -1.327523    0.750183
   15          1             0       -2.050844    1.305224    1.364714
   16          1             0       -2.930139   -0.161050    0.906417
   17          1             0       -3.011792    1.254060   -0.142965
 --------------------------------------------------------------------
     1 basis functions        1 primitive gaussians
     1 alpha electrons        1 beta electrons
 
 Harmonic frequencies (cm**-1), IR intensities (km*mol⁻¹),
 Raman scattering activities (A**4/amu), Raman depolarization ratios,
 reduced masses (AMU), force constants (mDyne/A) and normal coordinates:
                      1                      2                      3
                        a                      a                      a 
 Frequencies --    19.5887                46.6243               112.0267
 Red. masses --     1.2484                12.0216                 9.9428
 Frc consts  --     0.0000                 0.0000                 0.0000
 IR Inten    --     0.4997                 2.9035                 3.2894
 Raman Activ --     0.0000                 0.0000                 0.0000
 Depolar     --     0.0000                 0.0000                 0.0000
 Atom AN      X      Y      Z        X      Y      Z        X      Y      Z
   1   6    -0.04  -0.03  -0.07     0.25   0.25   0.24     0.35  -0.20  -0.13
   2   6     0.00  -0.01   0.01     0.03   0.17  -0.10     0.01   0.08  -0.03
   3   6     0.05   0.08   0.03    -0.15  -0.22  -0.16    -0.23   0.02   0.11
   4   8     0.00  -0.02   0.02     0.07   0.28  -0.14     0.08   0.41  -0.15
   5   6     0.00  -0.02   0.02    -0.04  -0.08   0.01    -0.03   0.08  -0.01
   6   8    -0.00  -0.04   0.03    -0.21  -0.56   0.16    -0.06   0.17  -0.03
   7   6    -0.00   0.02  -0.01     0.03   0.13  -0.01    -0.11  -0.43   0.20
   8   1    -0.01  -0.01  -0.02     0.07   0.06   0.06     0.08  -0.15  -0.01
   9   1    -0.02  -0.03  -0.02     0.11   0.16   0.08     0.14  -0.04  -0.06
  10   1    -0.02   0.01  -0.03     0.09   0.01   0.13     0.16  -0.05  -0.07
  11   1     0.00  -0.02   0.02    -0.01   0.11  -0.09    -0.04   0.02   0.01
  12   1     0.02   0.03   0.03    -0.08  -0.08  -0.12    -0.14   0.08   0.06
  13   1     0.01   0.04  -0.01    -0.03  -0.12   0.02    -0.01   0.02  -0.00
  14   1     0.01   0.02   0.01    -0.05  -0.07  -0.05    -0.10  -0.10   0.07
  15   1     0.01  -0.44   0.32     0.03   0.01   0.00    -0.06  -0.18   0.11
  16   1    -0.33   0.00  -0.50    -0.05   0.07  -0.02     0.04  -0.21  -0.01
  17   1     0.29   0.48   0.11     0.05   0.08  -0.01    -0.09  -0.11   0.12
                      4                      5                      6
                        a                      a                      a 
 Frequencies --   172.0913               184.2530               228.3720
 Red. masses --     5.4529                 4.8884                 4.0315
 Frc consts  --     0.0000                 0.0000                 0.0000
 IR Inten    --     2.9734                 2.7141                 1.8392
 Raman Activ --     0.0000                 0.0000                 0.0000
 Depolar     --     0.0000                 0.0000                 0.0000
 Atom AN      X      Y      Z        X      Y      Z        X      Y      Z
   1   6    -0.13   0.03  -0.02     0.06   0.09   0.12    -0.06  -0.05  -0.12
   2   6    -0.09   0.07   0.06     0.09  -0.05  -0.06    -0.07   0.02  -0.01
   3   6     0.08  -0.16  -0.19    -0.02   0.08   0.10    -0.04  -0.16  -0.12
   4   8    -0.02   0.17   0.21    -0.00  -0.21  -0.19     0.05   0.22   0.12
   5   6     0.05   0.03   0.09    -0.05  -0.05  -0.09     0.05   0.07   0.10
   6   8     0.29  -0.05   0.12    -0.27   0.03  -0.12     0.20  -0.02   0.14
   7   6    -0.14  -0.05  -0.18     0.15   0.06   0.16    -0.09  -0.04  -0.06
   8   1    -0.02   0.01   0.02     0.22   0.16   0.37     0.17   0.08   0.32
   9   1    -0.03  -0.03  -0.03     0.19  -0.20  -0.20     0.15  -0.30  -0.29
  10   1    -0.06   0.03  -0.03    -0.35   0.16  -0.01    -0.38   0.17  -0.14
  11   1    -0.08   0.04   0.02     0.08  -0.02  -0.02    -0.07   0.02   0.01
  12   1    -0.14   0.22   0.19    -0.12   0.21   0.18     0.09  -0.24  -0.21
  13   1     0.44  -0.01  -0.23     0.17   0.09  -0.11    -0.21  -0.13   0.12
  14   1    -0.20  -0.43  -0.18    -0.10  -0.21   0.05     0.09   0.19  -0.04
  15   1    -0.11   0.01  -0.04     0.12  -0.00   0.03    -0.08  -0.00  -0.00
  16   1    -0.04  -0.03  -0.07     0.04   0.03   0.08    -0.02  -0.03  -0.04
  17   1    -0.02  -0.05  -0.10     0.02   0.04   0.09    -0.02  -0.03  -0.05
                      7                      8                      9
                        a                      a                      a 
 Frequencies --   299.8144               386.0042               418.7847
 Red. masses --     8.9178                10.5349                 9.9245
 Frc consts  --     0.0000                 0.0000                 0.0000
 IR Inten    --     1.9597                 2.2935                 6.4623
 Raman Activ --     0.0000                 0.0000                 0.0000
 Depolar     --     0.0000                 0.0000                 0.0000
 Atom AN      X      Y      Z        X      Y      Z        X      Y      Z
   1   6    -0.35   0.18  -0.17     0.26   0.10  -0.20     0.10  -0.14   0.15
   2   6     0.00   0.02  -0.07     0.08   0.11  -0.29    -0.37   0.03  -0.10
   3   6    -0.43  -0.11   0.16    -0.29   0.14  -0.05    -0.12   0.26  -0.26
   4   8     0.11   0.05  -0.04     0.06  -0.43   0.17    -0.25  -0.04   0.10
   5   6     0.16  -0.02  -0.05    -0.00  -0.14   0.28    -0.07  -0.07  -0.08
   6   8     0.30  -0.10  -0.04     0.10   0.10   0.24     0.42  -0.12  -0.08
   7   6     0.31  -0.03   0.15    -0.16   0.06  -0.09     0.16   0.03   0.20
   8   1    -0.11   0.13  -0.14     0.07  -0.04  -0.01     0.03  -0.14   0.15
   9   1    -0.21   0.01   0.02     0.13   0.05  -0.09     0.17   0.06  -0.02
  10   1    -0.10   0.06  -0.06     0.10   0.02  -0.06     0.06  -0.09   0.09
  11   1     0.00   0.01  -0.02     0.05   0.05  -0.11    -0.13   0.02  -0.03
  12   1    -0.26   0.02  -0.01    -0.20   0.11  -0.04     0.06   0.06   0.00
  13   1    -0.15  -0.04   0.07    -0.15   0.07  -0.03    -0.04   0.13  -0.13
  14   1    -0.12  -0.12   0.16    -0.06  -0.03   0.14    -0.03   0.13  -0.12
  15   1     0.17  -0.04   0.04    -0.13   0.08  -0.04     0.21  -0.04   0.03
  16   1     0.11  -0.01   0.06    -0.12   0.07  -0.02     0.05   0.04   0.12
  17   1     0.05   0.02   0.11     0.05  -0.02  -0.15    -0.01   0.08   0.17
                     10                     11                     12
                        a                      a                      a 
 Frequencies --   470.2621               589.5873               622.5440
 Red. masses --     8.8767                10.1375                11.5284
 Frc consts  --     0.0000                 0.0000                 0.0000
 IR Inten    --     0.6806                16.6355                 7.9955
 Raman Activ --     0.0000                 0.0000                 0.0000
 Depolar     --     0.0000                 0.0000                 0.0000
 Atom AN      X      Y      Z        X      Y      Z        X      Y      Z
   1   6    -0.15  -0.10   0.24     0.05   0.04  -0.05    -0.06  -0.06   0.06
   2   6    -0.06  -0.42  -0.31    -0.03   0.10   0.04    -0.21   0.13   0.09
   3   6    -0.07   0.16  -0.09    -0.03   0.02  -0.03    -0.13   0.10  -0.11
   4   8     0.29   0.12  -0.14    -0.11  -0.33   0.19     0.10   0.07   0.29
   5   6     0.15   0.21   0.10     0.19   0.62  -0.20     0.27  -0.22   0.06
   6   8    -0.01  -0.01   0.20    -0.14  -0.26   0.08    -0.42   0.16  -0.05
   7   6    -0.05  -0.04  -0.08     0.09   0.02  -0.06     0.45  -0.19  -0.26
   8   1     0.01   0.14   0.05    -0.00  -0.07   0.01    -0.03  -0.10   0.07
   9   1    -0.03   0.10   0.12     0.05   0.00  -0.05     0.04  -0.00  -0.02
  10   1    -0.15  -0.15   0.25     0.07   0.04  -0.06     0.02  -0.01  -0.00
  11   1    -0.06  -0.12  -0.07     0.02   0.03  -0.01    -0.11   0.05   0.02
  12   1     0.03   0.09   0.10    -0.03   0.01  -0.03    -0.01   0.02  -0.02
  13   1    -0.12   0.20  -0.15     0.00  -0.02   0.01    -0.03   0.02  -0.03
  14   1     0.03   0.07   0.08    -0.02  -0.00  -0.01    -0.04   0.04  -0.07
  15   1    -0.16   0.00   0.02    -0.12  -0.09   0.10     0.06  -0.01  -0.08
  16   1     0.04  -0.08  -0.10     0.28  -0.24  -0.17     0.06  -0.02  -0.09
  17   1    -0.01  -0.07  -0.07    -0.16  -0.06   0.11     0.21  -0.09  -0.18
                     13                     14                     15
                        a                      a                      a 
 Frequencies --   863.0736               926.0305               944.4547
 Red. masses --     9.6216                 9.3044                 2.7895
 Frc consts  --     0.0000                 0.0000                 0.0000
 IR Inten    --     5.1752                 7.2131                 1.8808
 Raman Activ --     0.0000                 0.0000                 0.0000
 Depolar     --     0.0000                 0.0000                 0.0000
 Atom AN      X      Y      Z        X      Y      Z        X      Y      Z
   1   6     0.15   0.14  -0.22    -0.12  -0.28   0.23     0.16   0.07   0.20
   2   6     0.08  -0.22  -0.19     0.32   0.12   0.03     0.03  -0.07   0.11
   3   6     0.16  -0.18   0.07    -0.00   0.19  -0.31    -0.17  -0.16  -0.11
   4   8    -0.18   0.19   0.52     0.20   0.04   0.29     0.04   0.00   0.01
   5   6    -0.07  -0.03  -0.10     0.08  -0.03  -0.14     0.02  -0.01  -0.01
   6   8    -0.10  -0.02  -0.15    -0.07  -0.06  -0.23    -0.01  -0.01  -0.04
   7   6    -0.01  -0.02  -0.10    -0.25   0.06   0.06    -0.04   0.02   0.02
   8   1     0.10   0.20  -0.06    -0.05  -0.06   0.02    -0.05   0.00  -0.15
   9   1     0.06   0.15  -0.02    -0.12  -0.17   0.08    -0.24  -0.36   0.09
  10   1    -0.06  -0.05   0.09    -0.04  -0.02   0.00     0.10   0.30  -0.30
  11   1    -0.18  -0.00  -0.03     0.06   0.03   0.02    -0.02   0.22  -0.23
  12   1     0.00   0.04   0.12    -0.28   0.12  -0.27     0.21  -0.01   0.29
  13   1    -0.14   0.12  -0.10    -0.10  -0.02   0.02    -0.15   0.26  -0.31
  14   1     0.15  -0.06   0.28     0.02  -0.09   0.13     0.04   0.13  -0.01
  15   1     0.17  -0.07  -0.04     0.03  -0.01  -0.00    -0.01   0.00   0.01
  16   1     0.04   0.00   0.05    -0.07   0.05   0.08    -0.00   0.00   0.01
  17   1    -0.09   0.06   0.11    -0.11   0.07   0.11    -0.02   0.01   0.02
                     16                     17                     18
                        a                      a                      a 
 Frequencies --   972.3053               980.4164              1006.5169
 Red. masses --     5.3229                 9.6366                 5.9465
 Frc consts  --     0.0000                 0.0000                 0.0000
 IR Inten    --     0.2730                 5.3147                30.2503
 Raman Activ --     0.0000                 0.0000                 0.0000
 Depolar     --     0.0000                 0.0000                 0.0000
 Atom AN      X      Y      Z        X      Y      Z        X      Y      Z
   1   6     0.30  -0.13  -0.05    -0.10  -0.10   0.17     0.00  -0.01   0.03
   2   6     0.19  -0.09   0.08     0.20   0.05  -0.12     0.02  -0.01  -0.02
   3   6    -0.24   0.19  -0.10     0.20  -0.01  -0.09     0.01   0.00  -0.00
   4   8    -0.20   0.01   0.06    -0.37   0.09  -0.19    -0.05  -0.06  -0.01
   5   6    -0.11  -0.00   0.06    -0.27   0.00   0.17     0.03   0.46  -0.08
   6   8     0.00   0.04   0.11     0.06   0.10   0.31    -0.03  -0.05   0.14
   7   6     0.10  -0.02  -0.14     0.27  -0.04  -0.25    -0.04  -0.43  -0.04
   8   1     0.16   0.43  -0.23    -0.08  -0.15   0.04    -0.01  -0.00  -0.01
   9   1    -0.22  -0.12   0.17    -0.05  -0.13   0.02    -0.02  -0.03   0.01
  10   1    -0.18  -0.04   0.08     0.05   0.05  -0.07     0.01   0.02  -0.02
  11   1     0.06  -0.14   0.15     0.08   0.08  -0.11     0.02   0.00  -0.01
  12   1     0.02  -0.05  -0.09    -0.16   0.09  -0.11    -0.01   0.00  -0.01
  13   1     0.12  -0.08   0.05    -0.09   0.02   0.00     0.00  -0.00   0.00
  14   1    -0.16   0.08  -0.31     0.12  -0.11   0.26     0.00  -0.00   0.00
  15   1     0.10  -0.06  -0.03     0.15  -0.10  -0.04     0.35   0.03  -0.24
  16   1     0.09  -0.05  -0.02     0.20  -0.11  -0.09    -0.38   0.28   0.27
  17   1    -0.03   0.01   0.04    -0.02  -0.02   0.02     0.26   0.09  -0.11
                     19                     20                     21
                        a                      a                      a 
 Frequencies --  1011.5488              1137.8369              1155.0860
 Red. masses --     6.6932                 7.7324                 7.6282
 Frc consts  --     0.0000                 0.0000                 0.0000
 IR Inten    --    26.3287               137.7964                31.0023
 Raman Activ --     0.0000                 0.0000                 0.0000
 Depolar     --     0.0000                 0.0000                 0.0000
 Atom AN      X      Y      Z        X      Y      Z        X      Y      Z
   1   6    -0.07   0.06  -0.00     0.17  -0.21  -0.05    -0.13  -0.32   0.04
   2   6    -0.12   0.02   0.01    -0.39   0.37   0.15     0.19   0.36  -0.42
   3   6    -0.07   0.00   0.09     0.21  -0.08  -0.02    -0.04  -0.06   0.31
   4   8     0.42  -0.08  -0.00     0.23  -0.18  -0.16    -0.09   0.01   0.11
   5   6    -0.12  -0.05   0.07    -0.13   0.04  -0.01     0.08  -0.01   0.00
   6   8    -0.04   0.07   0.13     0.03  -0.00   0.03    -0.02  -0.02  -0.04
   7   6    -0.17   0.02  -0.38     0.02  -0.00  -0.01    -0.02   0.01   0.01
   8   1    -0.04  -0.10   0.06     0.11   0.29  -0.14     0.00   0.02   0.01
   9   1     0.06   0.04  -0.04    -0.15  -0.04   0.14    -0.05  -0.03   0.05
  10   1     0.05   0.02  -0.02    -0.19  -0.08   0.09    -0.13  -0.16   0.13
  11   1     0.04  -0.01  -0.01    -0.28   0.18  -0.00     0.01   0.31  -0.32
  12   1     0.08  -0.05   0.05    -0.10   0.08  -0.00     0.20  -0.11   0.16
  13   1     0.06  -0.02   0.02    -0.11   0.03   0.00     0.17  -0.03   0.04
  14   1    -0.05   0.05  -0.12     0.12  -0.08   0.25    -0.05   0.09  -0.15
  15   1     0.41  -0.21  -0.11    -0.00  -0.00  -0.00    -0.00   0.00   0.00
  16   1     0.14  -0.04   0.09     0.00  -0.01  -0.01    -0.00   0.00   0.01
  17   1    -0.33   0.17   0.32     0.00  -0.01  -0.01    -0.01   0.01   0.01
                     22                     23                     24
                        a                      a                      a 
 Frequencies --  1179.8655              1209.3587              1303.6884
 Red. masses --     6.9150                11.4667                 4.5763
 Frc consts  --     0.0000                 0.0000                 0.0000
 IR Inten    --    13.2309               384.3352                 6.3249
 Raman Activ --     0.0000                 0.0000                 0.0000
 Depolar     --     0.0000                 0.0000                 0.0000
 Atom AN      X      Y      Z        X      Y      Z        X      Y      Z
   1   6     0.16   0.10   0.19     0.05  -0.00  -0.02    -0.08   0.04  -0.10
   2   6    -0.34  -0.25  -0.36    -0.06   0.01   0.05     0.28  -0.29   0.30
   3   6     0.19   0.22   0.22     0.06  -0.01  -0.03    -0.02   0.16   0.04
   4   8     0.04   0.04   0.10    -0.36  -0.00  -0.25     0.02  -0.06  -0.10
   5   6     0.03  -0.01  -0.01     0.74  -0.15   0.12    -0.07   0.02   0.01
   6   8    -0.01  -0.02  -0.06    -0.07   0.05   0.11     0.01   0.00   0.01
   7   6    -0.00   0.01   0.02    -0.22   0.03  -0.07    -0.01   0.01   0.01
   8   1    -0.04   0.01  -0.13     0.02   0.06  -0.03     0.02   0.00   0.07
   9   1    -0.12  -0.22   0.05    -0.01  -0.00   0.01     0.09   0.10  -0.06
  10   1     0.07   0.22  -0.21    -0.01   0.00   0.00     0.05  -0.05   0.02
  11   1    -0.13   0.02  -0.18    -0.12   0.03   0.02    -0.57   0.44  -0.26
  12   1    -0.10  -0.02  -0.20    -0.03   0.02  -0.02    -0.09  -0.00  -0.15
  13   1     0.18  -0.22   0.30    -0.02  -0.00   0.01     0.02  -0.01   0.04
  14   1    -0.06  -0.12  -0.02     0.03  -0.03   0.08    -0.09   0.00  -0.14
  15   1    -0.02   0.01   0.01     0.06  -0.04  -0.02     0.03  -0.00  -0.01
  16   1    -0.01   0.00  -0.00    -0.01   0.04   0.11     0.02  -0.02  -0.02
  17   1    -0.00  -0.00  -0.00    -0.15   0.13   0.19     0.02  -0.01  -0.03
                     25                     26                     27
                        a                      a                      a 
 Frequencies --  1314.1543              1365.7169              1394.6240
 Red. masses --     3.5282                 3.4301                 3.4125
 Frc consts  --     0.0000                 0.0000                 0.0000
 IR Inten    --     8.0403                38.6889                12.1349
 Raman Activ --     0.0000                 0.0000                 0.0000
 Depolar     --     0.0000                 0.0000                 0.0000
 Atom AN      X      Y      Z        X      Y      Z        X      Y      Z
   1   6    -0.00  -0.10  -0.15     0.01  -0.01  -0.00    -0.15  -0.23   0.18
   2   6    -0.23  -0.19   0.28    -0.04   0.01  -0.00    -0.00   0.07  -0.08
   3   6     0.06   0.06  -0.04     0.00  -0.00  -0.01     0.17  -0.14   0.22
   4   8    -0.02   0.09   0.05    -0.01   0.01   0.01    -0.00  -0.00   0.00
   5   6     0.04  -0.01  -0.01     0.07  -0.02   0.01     0.01  -0.01  -0.01
   6   8    -0.01   0.00   0.00    -0.01  -0.01  -0.03     0.00   0.00   0.01
   7   6     0.01  -0.01  -0.01    -0.38   0.12   0.23    -0.01   0.00   0.00
   8   1     0.07   0.14  -0.01     0.00   0.01  -0.01     0.05   0.33  -0.15
   9   1     0.07   0.15  -0.01    -0.00   0.00   0.00     0.28   0.22  -0.09
  10   1    -0.03  -0.06   0.02    -0.01   0.00  -0.00     0.16   0.19  -0.29
  11   1     0.62   0.25  -0.50     0.06  -0.01  -0.01    -0.01  -0.07   0.08
  12   1    -0.08   0.04  -0.06     0.01   0.00   0.01    -0.27   0.06  -0.17
  13   1    -0.04  -0.01   0.03     0.00  -0.01   0.01    -0.19   0.23  -0.18
  14   1    -0.01  -0.05   0.00     0.01  -0.01   0.02    -0.08   0.10  -0.34
  15   1    -0.03   0.01   0.00     0.48  -0.02  -0.15     0.01   0.00  -0.00
  16   1    -0.02   0.02   0.01     0.34  -0.34  -0.19     0.01  -0.01  -0.01
  17   1    -0.02   0.01   0.03     0.34  -0.01  -0.37     0.00   0.00  -0.00
                     28                     29                     30
                        a                      a                      a 
 Frequencies --  1406.6597              1443.2330              1449.8786
 Red. masses --     3.2024                 1.6469                 1.5807
 Frc consts  --     0.0000                 0.0000                 0.0000
 IR Inten    --     4.9790                 9.7811                 6.1111
 Raman Activ --     0.0000                 0.0000                 0.0000
 Depolar     --     0.0000                 0.0000                 0.0000
 Atom AN      X      Y      Z        X      Y      Z        X      Y      Z
   1   6     0.16   0.21  -0.14    -0.00   0.00   0.00     0.00   0.00  -0.00
   2   6    -0.05  -0.00  -0.02     0.01   0.00  -0.00    -0.00  -0.00  -0.00
   3   6     0.20  -0.12   0.23    -0.00   0.00  -0.00     0.00  -0.00  -0.00
   4   8    -0.02   0.01   0.01     0.01  -0.00   0.01    -0.01  -0.00  -0.01
   5   6     0.02  -0.00   0.00    -0.05  -0.04  -0.01     0.06  -0.01   0.00
   6   8    -0.00  -0.00  -0.00     0.00   0.01   0.02    -0.00   0.01   0.02
   7   6    -0.01  -0.00   0.00     0.02  -0.22   0.06     0.10   0.07   0.18
   8   1    -0.06  -0.33   0.10    -0.00   0.00  -0.00     0.00   0.00   0.01
   9   1    -0.26  -0.22   0.09     0.00  -0.01  -0.00    -0.01  -0.01   0.00
  10   1    -0.18  -0.16   0.26     0.01  -0.00   0.00     0.01  -0.00   0.00
  11   1     0.06  -0.01  -0.02    -0.01  -0.00   0.00     0.00  -0.00  -0.00
  12   1    -0.29   0.07  -0.19     0.00   0.00   0.01    -0.01   0.01   0.00
  13   1    -0.24   0.24  -0.17    -0.00  -0.01   0.01     0.00  -0.00   0.00
  14   1    -0.10   0.07  -0.37    -0.00   0.00  -0.00     0.00   0.01  -0.00
  15   1     0.00   0.00  -0.00    -0.15   0.58  -0.38     0.33   0.12  -0.18
  16   1     0.01  -0.00   0.00     0.08  -0.20  -0.27    -0.41   0.03  -0.55
  17   1     0.01   0.01  -0.00     0.08   0.45   0.34    -0.39  -0.41   0.05
                     31                     32                     33
                        a                      a                      a 
 Frequencies --  1473.8589              1482.1625              1485.5338
 Red. masses --     1.5716                 1.5661                 1.5615
 Frc consts  --     0.0000                 0.0000                 0.0000
 IR Inten    --     1.8690                 2.5187                 2.0426
 Raman Activ --     0.0000                 0.0000                 0.0000
 Depolar     --     0.0000                 0.0000                 0.0000
 Atom AN      X      Y      Z        X      Y      Z        X      Y      Z
   1   6     0.08   0.03   0.08    -0.15   0.07  -0.06    -0.01   0.08   0.14
   2   6    -0.00  -0.05   0.04    -0.04  -0.01  -0.03     0.03   0.02   0.02
   3   6    -0.10  -0.15  -0.01     0.02  -0.11  -0.06     0.10   0.03  -0.10
   4   8    -0.00   0.00  -0.00     0.00   0.00   0.01    -0.00  -0.00  -0.00
   5   6    -0.00  -0.00  -0.00     0.00   0.00   0.01    -0.00  -0.00  -0.00
   6   8    -0.00   0.00   0.00    -0.00  -0.00  -0.01    -0.00   0.00   0.00
   7   6    -0.00  -0.00  -0.00    -0.00   0.00  -0.00     0.00   0.00  -0.00
   8   1    -0.19  -0.14  -0.31     0.19   0.27   0.23    -0.20   0.01  -0.44
   9   1     0.18   0.04  -0.11    -0.11  -0.32  -0.08     0.30  -0.23  -0.33
  10   1    -0.30   0.05   0.05     0.52  -0.22   0.10    -0.10  -0.13   0.20
  11   1    -0.00   0.03  -0.04     0.00  -0.01  -0.01    -0.00   0.03  -0.01
  12   1    -0.31   0.19  -0.02    -0.21   0.28   0.20     0.08   0.15   0.29
  13   1     0.41  -0.08  -0.06     0.04  -0.16   0.15    -0.37  -0.13   0.25
  14   1     0.27   0.52   0.09     0.12   0.32  -0.08    -0.13  -0.15  -0.17
  15   1    -0.00   0.00   0.00    -0.00  -0.01   0.01     0.00  -0.01   0.00
  16   1     0.00  -0.00   0.00     0.01   0.00   0.01    -0.00   0.00   0.00
  17   1     0.00   0.00   0.00     0.01   0.00  -0.00    -0.00  -0.01  -0.00
                     34                     35                     36
                        a                      a                      a 
 Frequencies --  1495.1473              1776.4728              2906.7214
 Red. masses --     1.5632                13.3748                 1.7438
 Frc consts  --     0.0000                 0.0000                 0.0000
 IR Inten    --     6.9015               448.1221                23.8725
 Raman Activ --     0.0000                 0.0000                 0.0000
 Depolar     --     0.0000                 0.0000                 0.0000
 Atom AN      X      Y      Z        X      Y      Z        X      Y      Z
   1   6     0.08  -0.11  -0.06     0.00  -0.00  -0.00     0.00  -0.00  -0.01
   2   6     0.06  -0.03  -0.04    -0.01   0.01   0.02     0.07   0.18   0.17
   3   6     0.08  -0.05  -0.12     0.01  -0.01  -0.01     0.00  -0.01  -0.00
   4   8    -0.01   0.00   0.00    -0.03  -0.01  -0.06    -0.01   0.01   0.01
   5   6     0.00   0.00  -0.00    -0.02   0.24   0.76     0.00   0.00   0.00
   6   8     0.00   0.00   0.00     0.00  -0.18  -0.57     0.00  -0.00  -0.00
   7   6     0.00  -0.00  -0.00     0.04  -0.03  -0.06    -0.00  -0.00  -0.00
   8   1     0.03  -0.17   0.19    -0.00   0.01  -0.01    -0.01   0.00   0.00
   9   1    -0.14   0.36   0.28     0.01   0.01  -0.00     0.01  -0.01   0.01
  10   1    -0.22   0.23  -0.22    -0.01   0.00   0.00     0.01   0.04   0.03
  11   1    -0.04  -0.01   0.00     0.02  -0.00   0.01    -0.22  -0.70  -0.63
  12   1    -0.09   0.32   0.37    -0.00   0.00  -0.00     0.01   0.01  -0.01
  13   1    -0.24  -0.22   0.31    -0.01   0.00  -0.00     0.01   0.03   0.03
  14   1    -0.02   0.12  -0.20     0.00  -0.00   0.00    -0.01   0.00   0.00
  15   1     0.00  -0.00   0.00     0.04   0.00  -0.02     0.00   0.00   0.00
  16   1    -0.00   0.00   0.00     0.01  -0.01  -0.01     0.00  -0.00  -0.00
  17   1     0.00  -0.00  -0.00    -0.01   0.01   0.03     0.00  -0.00  -0.00
                     37                     38                     39
                        a                      a                      a 
 Frequencies --  3025.6500              3037.8091              3045.5072
 Red. masses --     1.7551                 1.7684                 1.7746
 Frc consts  --     0.0000                 0.0000                 0.0000
 IR Inten    --     3.6419                11.4313                21.8437
 Raman Activ --     0.0000                 0.0000                 0.0000
 Depolar     --     0.0000                 0.0000                 0.0000
 Atom AN      X      Y      Z        X      Y      Z        X      Y      Z
   1   6     0.00  -0.00  -0.00    -0.08  -0.16  -0.17    -0.14   0.14  -0.07
   2   6    -0.00  -0.00  -0.00    -0.00  -0.01  -0.01     0.00   0.01   0.00
   3   6    -0.00  -0.00   0.00     0.04   0.07   0.02     0.10   0.12   0.02
   4   8    -0.00  -0.00  -0.00     0.00   0.00   0.00    -0.00  -0.00   0.00
   5   6     0.01   0.00  -0.01    -0.00  -0.00  -0.00     0.00   0.00  -0.00
   6   8    -0.00   0.00   0.00    -0.00   0.00   0.00    -0.00  -0.00   0.00
   7   6     0.12   0.21  -0.09    -0.00   0.00   0.00     0.00  -0.00  -0.00
   8   1    -0.00   0.00   0.00     0.05  -0.04  -0.05     0.15  -0.05  -0.08
   9   1    -0.00   0.00  -0.00     0.06  -0.06   0.07     0.41  -0.23   0.54
  10   1     0.00   0.01   0.01     0.17   0.68   0.58    -0.08  -0.20  -0.20
  11   1     0.00   0.00   0.00     0.01   0.02   0.02    -0.01  -0.02  -0.02
  12   1     0.01   0.01  -0.01    -0.08  -0.11   0.08    -0.15  -0.20   0.14
  13   1    -0.00  -0.00  -0.00    -0.05  -0.17  -0.16    -0.08  -0.32  -0.29
  14   1     0.00  -0.00  -0.00    -0.03   0.03   0.02    -0.13   0.08   0.07
  15   1     0.01   0.02  -0.02    -0.00  -0.01  -0.01     0.01   0.01   0.02
  16   1    -0.49  -0.76   0.33     0.00   0.01  -0.00    -0.01  -0.01   0.00
  17   1     0.06  -0.01   0.03     0.00  -0.00   0.00    -0.01   0.01  -0.01
                     40                     41                     42
                        a                      a                      a 
 Frequencies --  3047.2549              3049.2481              3050.2366
 Red. masses --     1.8540                 1.6832                 1.4730
 Frc consts  --     0.0000                 0.0000                 0.0000
 IR Inten    --    20.0408                15.7048                12.0719
 Raman Activ --     0.0000                 0.0000                 0.0000
 Depolar     --     0.0000                 0.0000                 0.0000
 Atom AN      X      Y      Z        X      Y      Z        X      Y      Z
   1   6     0.08  -0.02   0.14     0.11  -0.03   0.00     0.11  -0.04  -0.12
   2   6     0.01   0.01   0.01     0.00   0.01   0.01     0.00  -0.00  -0.01
   3   6     0.11   0.20  -0.03    -0.06   0.07   0.20    -0.07   0.09  -0.03
   4   8    -0.00  -0.00   0.00     0.00   0.00  -0.00    -0.00   0.00  -0.00
   5   6    -0.00   0.00   0.00    -0.00   0.00   0.00    -0.00   0.00  -0.00
   6   8     0.00  -0.00  -0.00     0.00  -0.00  -0.00    -0.00   0.00   0.00
   7   6     0.00   0.00   0.00    -0.00  -0.00  -0.00    -0.00   0.00   0.00
   8   1     0.08  -0.03  -0.01    -0.31   0.13   0.14    -0.59   0.24   0.25
   9   1    -0.33   0.20  -0.42    -0.07   0.05  -0.11     0.17  -0.10   0.19
  10   1    -0.02  -0.11  -0.07     0.00  -0.05  -0.04     0.02   0.01  -0.00
  11   1    -0.01  -0.03  -0.03    -0.01  -0.02  -0.02     0.00   0.01   0.01
  12   1    -0.36  -0.48   0.33     0.24   0.35  -0.19    -0.21  -0.26   0.17
  13   1    -0.06  -0.23  -0.23    -0.17  -0.54  -0.47     0.03   0.14   0.11
  14   1     0.03   0.02  -0.01     0.15  -0.06  -0.04     0.42  -0.18  -0.18
  15   1    -0.00  -0.00  -0.00     0.00   0.01   0.01    -0.01  -0.01  -0.01
  16   1    -0.00  -0.00   0.00     0.00   0.01  -0.00    -0.00  -0.00   0.00
  17   1    -0.00   0.00  -0.00     0.01  -0.01   0.01     0.01  -0.01   0.01
                     43                     44                     45
                        a                      a                      a 
 Frequencies --  3055.0053              3055.4422              3067.9004
 Red. masses --     1.6470                 1.5770                 1.9619
 Frc consts  --     0.0000                 0.0000                 0.0000
 IR Inten    --    23.9599                28.2663                11.8093
 Raman Activ --     0.0000                 0.0000                 0.0000
 Depolar     --     0.0000                 0.0000                 0.0000
 Atom AN      X      Y      Z        X      Y      Z        X      Y      Z
   1   6    -0.10   0.04   0.04    -0.08   0.04   0.03     0.00  -0.00  -0.00
   2   6    -0.01   0.00   0.01    -0.00   0.00   0.00     0.00  -0.00  -0.00
   3   6    -0.15   0.06   0.07    -0.11   0.05   0.05     0.00  -0.00  -0.01
   4   8    -0.00  -0.00  -0.00     0.00  -0.00  -0.00     0.00   0.00   0.00
   5   6     0.00  -0.00   0.00    -0.00   0.00   0.00    -0.01  -0.00  -0.01
   6   8    -0.00   0.00  -0.00     0.00  -0.00  -0.00     0.00   0.00   0.00
   7   6     0.05  -0.11   0.01    -0.08   0.14  -0.02    -0.15  -0.06  -0.25
   8   1     0.35  -0.14  -0.16     0.30  -0.12  -0.13    -0.01   0.00   0.01
   9   1     0.00  -0.00   0.02     0.01  -0.01   0.03    -0.00   0.00  -0.00
  10   1    -0.01   0.01   0.01    -0.01  -0.01  -0.01     0.00   0.01   0.01
  11   1    -0.00  -0.01  -0.01    -0.00  -0.01  -0.01     0.00   0.00   0.00
  12   1     0.01   0.05  -0.02     0.01   0.03  -0.01    -0.01  -0.01   0.01
  13   1    -0.03  -0.01  -0.01    -0.02  -0.01  -0.01     0.00   0.01   0.01
  14   1     0.54  -0.24  -0.23     0.40  -0.18  -0.17    -0.02   0.01   0.01
  15   1     0.11   0.18   0.26    -0.13  -0.21  -0.31     0.24   0.47   0.62
  16   1    -0.01  -0.04   0.01     0.02   0.06  -0.02    -0.01   0.01  -0.04
  17   1    -0.29   0.25  -0.31     0.39  -0.34   0.42     0.29  -0.28   0.29
