      -----------------------------------------------------------      
     |                   =====================                   |     
     |                           x T B                           |     
     |                   =====================                   |     
     |                         S. Grimme                         |     
     |          Mulliken Center for Theoretical Chemistry        |     
     |                    University of Bonn                     |     
      -----------------------------------------------------------      

   * xtb version 6.7.1 (edcfbbe) compiled by 'albert@albert-system' on 2024-07-22

   xtb is free software: you can redistribute it and/or modify it under
   the terms of the GNU Lesser General Public License as published by
   the Free Software Foundation, either version 3 of the License, or
   (at your option) any later version.
   
   xtb is distributed in the hope that it will be useful,
   but WITHOUT ANY WARRANTY; without even the implied warranty of
   MERCHANTABILITY or FITNESS FOR A PARTICULAR PURPOSE.  See the
   GNU Lesser General Public License for more details.
   
   Cite this work as:
   * C. Bannwarth, E. Caldeweyher, S. Ehlert, A. Hansen, P. Pracht,
     J. Seibert, S. Spicher, S. Grimme, WIREs Comput. Mol. Sci., 2020, 11,
     e01493. DOI: 10.1002/wcms.1493
   
   for GFN2-xTB:
   * C. Bannwarth, S. Ehlert and S. Grimme., J. Chem. Theory Comput., 2019,
     15, 1652-1671. DOI: 10.1021/acs.jctc.8b01176
   for GFN1-xTB:
   * S. Grimme, C. Bannwarth, P. Shushkov, J. Chem. Theory Comput., 2017,
     13, 1989-2009. DOI: 10.1021/acs.jctc.7b00118
   for GFN0-xTB:
   * P. Pracht, E. Caldeweyher, S. Ehlert, S. Grimme, ChemRxiv, 2019, preprint.
     DOI: 10.26434/chemrxiv.8326202.v1
   for GFN-FF:
   * S. Spicher and S. Grimme, Angew. Chem. Int. Ed., 2020, 59, 15665-15673.
     DOI: 10.1002/anie.202004239
   
   for ALPB and GBSA implicit solvation:
   * S. Ehlert, M. Stahn, S. Spicher, S. Grimme, J. Chem. Theory Comput.,
     2021, 17, 4250-4261. DOI: 10.1021/acs.jctc.1c00471
   
   for ddCOSMO and CPCM-X implicit solvation:
   * M. Stahn, S. Ehlert, S. Grimme, J. Phys. Chem. A,
     2023, XX, XXXX-XXXX. DOI: 10.1021/acs.jpca.3c04382
   
   for DFT-D4:
   * E. Caldeweyher, C. Bannwarth and S. Grimme, J. Chem. Phys., 2017,
     147, 034112. DOI: 10.1063/1.4993215
   * E. Caldeweyher, S. Ehlert, A. Hansen, H. Neugebauer, S. Spicher,
     C. Bannwarth and S. Grimme, J. Chem. Phys., 2019, 150, 154122.
     DOI: 10.1063/1.5090222
   * E. Caldeweyher, J.-M. Mewes, S. Ehlert and S. Grimme, Phys. Chem. Chem. Phys.
     2020, 22, 8499-8512. DOI: 10.1039/D0CP00502A
   
   for sTDA-xTB:
   * S. Grimme and C. Bannwarth, J. Chem. Phys., 2016, 145, 054103.
     DOI: 10.1063/1.4959605
   
   in the mass-spec context:
   * V. Asgeirsson, C. Bauer and S. Grimme, Chem. Sci., 2017, 8, 4879.
     DOI: 10.1039/c7sc00601b
   * J. Koopman and S. Grimme, ACS Omega 2019, 4, 12, 15120-15133.
     DOI: 10.1021/acsomega.9b02011
   
   for metadynamics refer to:
   * S. Grimme, J. Chem. Theory Comput., 2019, 155, 2847-2862
     DOI: 10.1021/acs.jctc.9b00143
   
   for SPH calculations refer to:
   * S. Spicher and S. Grimme, J. Chem. Theory Comput., 2021, 17, 1701-1714
     DOI: 10.1021/acs.jctc.0c01306
   
   for ONIOM refer to:
   * C. Plett, A. Katbashev, S. Ehlert, S. Grimme, M. Bursch,
     Phys. Chem. Chem. Phys., 2023, 25, 17860-17868. DOI: 10.1039/D3CP02178E
   
   for DIPRO refer to:
   * J. Kohn, N. Gildemeister, S. Grimme, D. Fazzi, A. Hansen,
     J. Chem. Phys., 2023, just accepted.
   
   for PTB refer to:
   * S. Grimme, M. Mueller, A. Hansen, J. Chem. Phys., 2023, 158, 124111.
     DOI: 10.1063/5.0137838
   
   with help from (in alphabetical order)
   P. Atkinson, C. Bannwarth, F. Bohle, G. Brandenburg, E. Caldeweyher
   M. Checinski, S. Dohm, S. Ehlert, S. Ehrlich, I. Gerasimov, C. Hölzer
   A. Katbashev, J. Kohn, J. Koopman, C. Lavigne, S. Lehtola, F. März, M. Müller,
   F. Musil, H. Neugebauer, J. Pisarek, C. Plett, P. Pracht, F. Pultar,
   J. Seibert, P. Shushkov, S. Spicher, M. Stahn, M. Steiner, T. Strunk,
   J. Stückrath, T. Rose, and J. Unsleber
   
 * started run on 2025/04/15 at 20:08:14.525     
   ID    Z sym.   atoms
    1    6 C      1, 3, 4, 7-12
    2    7 N      2, 6
    3    8 O      5
    4    1 H      13-24

           -------------------------------------------------
          |                Calculation Setup                |
           -------------------------------------------------

          program call               : /software/projects/pawsey0265/mwang1/xtb/bin/xtb xtb_opt.coord --opt normal --orca -I xtb_opt-xcontrol-inp
          hostname                   : nid002793
          coordinate file            : xtb_opt.coord
          omp threads                :                     8

           -------------------------------------------------
          |                   Orca driver                   |
           -------------------------------------------------
orca executable           : /software/projects/pawsey0265/mwang1/orca_avx2/orca
orca input file           : xtb_opt.inp
orca input line           : 
orca parallel             : true
orca number of threads    : 8
                         * ORCA takes the control...
  ------------------------------------------------------------------------

                                 *****************
                                 * O   R   C   A *
                                 *****************

                                            #,                                       
                                            ###                                      
                                            ####                                     
                                            #####                                    
                                            ######                                   
                                           ########,                                 
                                     ,,################,,,,,                         
                               ,,#################################,,                 
                          ,,##########################################,,             
                       ,#########################################, ''#####,          
                    ,#############################################,,   '####,        
                  ,##################################################,,,,####,       
                ,###########''''           ''''###############################       
              ,#####''   ,,,,##########,,,,          '''####'''          '####       
            ,##' ,,,,###########################,,,                        '##       
           ' ,,###''''                  '''############,,,                           
         ,,##''                                '''############,,,,        ,,,,,,###''
      ,#''                                            '''#######################'''  
     '                                                          ''''####''''         
             ,#######,   #######,   ,#######,      ##                                
            ,#'     '#,  ##    ##  ,#'     '#,    #''#        ,####,   ,####,        
            ##       ##  ##   ,#'  ##            #'  '#       #'       #'  '#        
            ##       ##  #######   ##           ,######,      #####,   #    #        
            '#,     ,#'  ##    ##  '#,     ,#' ,#      #,     #,   #   #,  ,#        
             '#######'   ##     ##  '#######'  #'      '#     '####' # '####'        



                #########################################################
                #                        -***-                          #
                #          Department of theory and spectroscopy        #
                #                                                       #
                #                      Frank Neese                      #
                #                                                       #
                #     Directorship, Architecture, Infrastructure        #
                #                    SHARK, DRIVERS                     #
                #        Core code/Algorithms in most modules           #
                #                                                       #
                #        Max Planck Institute fuer Kohlenforschung      #
                #                Kaiser Wilhelm Platz 1                 #
                #                 D-45470 Muelheim/Ruhr                 #
                #                      Germany                          #
                #                                                       #
                #                  All rights reserved                  #
                #                        -***-                          #
                #########################################################


                         Program Version 6.0.1  -  RELEASE   -


 With contributions from (in alphabetic order):
[Max-Planck-Institut fuer Kohlenforschung]                               
  Daniel Aravena         : Magnetic Suceptibility                        
  Michael Atanasov       : Ab Initio Ligand Field Theory (pilot matlab implementation)
  Alexander A. Auer      : GIAO ZORA, VPT2 properties, NMR spectrum      
  Ute Becker             : All parallelization in ORCA, NUMFREQ, NUMCALC 
  Giovanni Bistoni       : ED, misc. LED, open-shell LED, HFLD           
  Martin Brehm           : Molecular dynamics                            
  Dmytro Bykov           : pre 5.0 version of the SCF Hessian            
  Marcos Casanova-Páez   : Triplet and SCS-CIS(D). UHF-(DLPNO)-IP/EA/STEOM-CCSD. UHF-CVS-IP/STEOM-CCSD   
  Vijay G. Chilkuri      : MRCI spin determinant printing, contributions to CSF-ICE 
  Pauline Colinet        : FMM embedding                                 
  Dipayan Datta          : RHF DLPNO-CCSD density                        
  Achintya Kumar Dutta   : EOM-CC, STEOM-CC                              
  Nicolas Foglia         : Exact transition moments, OPA infrastructure, MCD improvements    
  Dmitry Ganyushin       : Spin-Orbit,Spin-Spin,Magnetic field MRCI      
  Miquel Garcia-Rates    : C-PCM and meta-GGA Hessian, CCSD/C-PCM, Gaussian charge scheme 
  Tiago L. C. Gouveia    : GS-ROHF, GS-ROCIS                             
  Yang Guo               : DLPNO-NEVPT2, F12-NEVPT2, CIM, IAO-localization        
  Andreas Hansen         : Spin unrestricted coupled pair/coupled cluster methods 
  Ingolf Harden          : AUTO-CI MPn and infrastructure                
  Benjamin Helmich-Paris : MC-RPA, TRAH-(SCF,CASSCF), AVAS, COSX integrals, SCF dyn. polar. 
  Lee Huntington         : MR-EOM, pCC                                   
  Robert Izsak           : Overlap fitted RIJCOSX, COSX-SCS-MP3, EOM     
  Riya Kayal             : Wick's Theorem for AUTO-CI, AUTO-CI UHF-CCSDT 
  Emily Kempfer          : AUTO-CI, RHF CISDT and CCSDT                  
  Christian Kollmar      : KDIIS, OOCD, Brueckner-CCSD(T), CCSD density, CASPT2, CASPT2-K, improved NEVPT2 
  Axel Koslowski         : Symmetry handling                             
  Simone Kossmann        : meta-GGA functionals, TD-DFT gradient, OOMP2, (MP2 Hessian; deprecated post 5.0) 
  Lucas Lang             : DCDCAS                                        
  Marvin Lechner         : AUTO-CI (C++ implementation), FIC-MRCC        
  Spencer Leger          : CASSCF response                               
  Dagmar Lenk            : GEPOL surface, SMD, ORCA-2-JSON               
  Dimitrios Liakos       : Extrapolation schemes; Compound Job, initial MDCI parallelization 
  Dimitrios Manganas     : Further ROCIS development; embedding schemes. LFT, Crystal Embedding 
  Dimitrios Pantazis     : SARC Basis sets                               
  Anastasios Papadopoulos: AUTO-CI, single reference methods and gradients 
  Taras Petrenko         : pre 6.0 DFT Hessian and TD-DFT gradient, (ASA, deprecated), ECA, 1-Electron XAS/XES, NRVS 
  Peter Pinski           : DLPNO-MP2, DLPNO-MP2 Gradient                 
  Christoph Reimann      : Effective Core Potentials                     
  Marius Retegan         : Local ZFS, SOC                                
  Christoph Riplinger    : Optimizer, TS searches, QM/MM, DLPNO-CCSD(T), (RO)-DLPNO pert. Triples 
  Michael Roemelt        : Original ROCIS implementation                 
  Masaaki Saitow         : Open-shell DLPNO-CCSD energy and density      
  Barbara Sandhoefer     : DKH picture change effects                    
  Kantharuban Sivalingam : CASSCF convergence/infrastructure, NEVPT2 and variants, FIC-MRCI 
  Bernardo de Souza      : ESD, SOC TD-DFT                               
  Georgi L. Stoychev     : AutoAux, RI-MP2 NMR, DLPNO-MP2 response, X2C  
  Van Anh Tran           : RI-MP2 g-tensors                              
  Willem Van den Heuvel  : Paramagnetic NMR                              
  Zikuan Wang            : NOTCH, Electric field optimization            
  Frank Wennmohs         : Technical directorship and infrastructure     
  Hang Xu                : AUTO-CI-Response properties                   
                                                                         
[FACCTs GmbH]                                                            
  Markus Bursch, Miquel Garcia-Rates, Christoph Riplinger, Bernardo de Souza, Georgi L. Stoychev 
                                                                 
  APM, Basis sets (HGBS, AHGBS, def-TZVP (Ac-Lr), def2-XVPD (La-Lu)), CI-OPT, improved COSX, DLPNO-Multilevel,           
  DOCKER, DRACO, updates on ESD, GOAT, IRC, LR-CPCM, MBIS, meta-GGA TD-DFT gradient, ML-optimized integration grids, 
  MM, NACMEs, nearIR, NEB, NEB-TS, NL-DFT gradient (VV10), 2- and 3-layer-ONIOM, interface openCOSMO-RS, QMMM,   
  Crystal-QMMM, SF, symmetry and pop. for TD-DFT, r2SCAN hybrids, SOLVATOR                                   
                                                                         
[Other institutions]                                                     
  V. Asgeirsson          : NEB                                           
  Christoph Bannwarth    : sTDA-DFT, sTD-DFT, PBEh-3c, B97-3c, D3        
  Sebastian Ehlert       : rSCAN, r2SCAN, r2SCAN-3c, D4, dhf basis sets  
  Marvin Friede          : D4 for Fr, Ra, Ac-Lr                          
  Lars Goerigk           : TD-DFT with DH, B97 family of functionals     
  Stefan Grimme          : VdW corrections, initial TS optimization, DFT functionals, gCP, sTDA/sTD-DF 
  Waldemar Hujo          : DFT-NL                                        
  H. Jonsson             : NEB                                           
  Holger Kruse           : gCP                                           
  Marcel Mueller         : wB97X-3c, vDZP basis set                      
  Hagen Neugebauer       : wr2SCAN                                       
  Tobias Risthaus        : range-separated hybrid DFT                    
  Lukas Wittmann         : regularized MP2, r2SCAN double-hybrids, wr2SCAN        
                                                                         
We gratefully acknowledge several colleagues who have allowed us to      
interface, adapt or use parts of their codes:                            
  Ed Valeev, F. Pavosevic, A. Kumar             : LibInt (2-el integral package), F12 methods 
  Garnet Chan, S. Sharma, J. Yang, R. Olivares  : DMRG                   
  Ulf Ekstrom                                   : XCFun DFT Library      
  Mihaly Kallay                                 : mrcc  (arbitrary order and MRCC methods)
  Frank Weinhold                                : gennbo (NPA and NBO analysis)           
  Simon Mueller                                 : openCOSMO-RS                            
  Christopher J. Cramer and Donald G. Truhlar   : smd solvation model                     
  S Lehtola, MJT Oliveira, MAL Marques          : LibXC Library                           
  Liviu Ungur et al                             : ANISO software                          


 Your calculation uses the libint2 library for the computation of 2-el integrals
 For citations please refer to: http://libint.valeyev.net

 Your ORCA version has been built with support for libXC version: 6.2.2
 For citations please refer to: https://libxc.gitlab.io

 This ORCA versions uses:
   CBLAS   interface :  Fast vector & matrix operations
   LAPACKE interface :  Fast linear algebra routines
   SCALAPACK package :  Parallel linear algebra routines
   Shared memory     :  Shared parallel matrices
   BLAS/LAPACK       :  OpenBLAS 0.3.27  USE64BITINT DYNAMIC_ARCH NO_AFFINITY Zen SINGLE_THREADED
        Core in use  :  Zen
   Copyright (c) 2011-2014, The OpenBLAS Project




***************************************
The coordinates will be read from file: xtb_opt.xyz
***************************************


Your calculation utilizes the geometrical counterpoise correction gCP
Please cite in your paper:
H.Kruse, S. Grimme J.Chem.Phys., 136, (2012), 154101 
   

Your calculation utilizes the atom-pairwise dispersion correction
based on EEQ partial charges (D4)


================================================================================

----- Orbital basis set information -----
Your calculation utilizes the basis: def2-mTZVPP
   Stefan Grimme, Andreas Hansen, Sebastian Ehlert, and Jan-Michael Mewes 
   J. Chem. Phys. 154, 064103 (2021). DOI: 10.1063/5.0040021

----- AuxJ basis set information -----
Your calculation utilizes the auxiliary basis: def2/J
   F. Weigend, Phys. Chem. Chem. Phys. 8, 1057 (2006).

================================================================================
                                        WARNINGS
                       Please study these warnings very carefully!
================================================================================



WARNING: SCAN, rSCAN, or r2SCAN functional requested.
  ===> : libXC variant has now been activated.



================================================================================
                                       INPUT FILE
================================================================================
NAME = xtb_opt.inp
|  1> ! r2scan-3c def2/J RI DEFGRID2 scfconv7 ENGRAD tightSCF miniprint
|  2> * xyzfile 0 1 xtb_opt.xyz
|  3> 
|  4>                          ****END OF INPUT****
================================================================================

                     *******************************
                     * Energy+Gradient Calculation *
                     *******************************

---------------------------------
CARTESIAN COORDINATES (ANGSTROEM)
---------------------------------
  C     -2.907367   -1.639834    0.000167
  N     -2.677001   -0.214169   -0.001600
  C     -3.843179    0.638895    0.001493
  C     -1.440279    0.376929   -0.000750
  O     -1.310461    1.585038   -0.001219
  N     -0.389387   -0.511633    0.000560
  C      0.978893   -0.236462    0.000437
  C      1.502153    1.053164    0.000759
  C      2.872307    1.238909    0.000466
  C      3.736902    0.157688   -0.000140
  C      3.218993   -1.126500   -0.000331
  C      1.852154   -1.324212    0.000002
  H     -2.489274   -2.120112   -0.890777
  H     -3.981503   -1.811876   -0.004172
  H     -2.496670   -2.117243    0.896214
  H     -4.452873    0.460324   -0.887488
  H     -3.499143    1.670988   -0.000870
  H     -4.447047    0.462597    0.895027
  H     -0.607215   -1.495363    0.001452
  H      0.831813    1.895491    0.001133
  H      3.267002    2.244229    0.000393
  H      4.805380    0.312265   -0.000881
  H      3.881427   -1.979952   -0.001085
  H      1.453168   -2.330397   -0.000198

----------------------------
CARTESIAN COORDINATES (A.U.)
----------------------------
  NO LB      ZA    FRAG     MASS         X           Y           Z
   0 C     6.0000    0    12.011   -5.494128   -3.098837    0.000316
   1 N     7.0000    0    14.007   -5.058798   -0.404720   -0.003023
   2 C     6.0000    0    12.011   -7.262557    1.207337    0.002821
   3 C     6.0000    0    12.011   -2.721733    0.712293   -0.001417
   4 O     8.0000    0    15.999   -2.476412    2.995288   -0.002303
   5 N     7.0000    0    14.007   -0.735834   -0.966846    0.001059
   6 C     6.0000    0    12.011    1.849840   -0.446848    0.000825
   7 C     6.0000    0    12.011    2.838657    1.990192    0.001433
   8 C     6.0000    0    12.011    5.427873    2.341199    0.000880
   9 C     6.0000    0    12.011    7.061722    0.297987   -0.000265
  10 C     6.0000    0    12.011    6.083015   -2.128776   -0.000625
  11 C     6.0000    0    12.011    3.500063   -2.502398    0.000003
  12 H     1.0000    0     1.008   -4.704046   -4.006430   -1.683325
  13 H     1.0000    0     1.008   -7.523950   -3.423950   -0.007883
  14 H     1.0000    0     1.008   -4.718023   -4.001009    1.693600
  15 H     1.0000    0     1.008   -8.414710    0.869886   -1.677108
  16 H     1.0000    0     1.008   -6.612423    3.157710   -0.001643
  17 H     1.0000    0     1.008   -8.403701    0.874182    1.691355
  18 H     1.0000    0     1.008   -1.147470   -2.825826    0.002744
  19 H     1.0000    0     1.008    1.571899    3.581960    0.002140
  20 H     1.0000    0     1.008    6.173739    4.240978    0.000743
  21 H     1.0000    0     1.008    9.080853    0.590096   -0.001665
  22 H     1.0000    0     1.008    7.334833   -3.741567   -0.002050
  23 H     1.0000    0     1.008    2.746090   -4.403812   -0.000374

------------------------------------------------------------------------------
                   ___                                                        
                  /   \      - P O W E R E D   B Y -                         
                 /     \                                                     
                 |  |  |   _    _      __       _____    __    __             
                 |  |  |  | |  | |    /  \     |  _  \  |  |  /  |          
                  \  \/   | |  | |   /    \    | | | |  |  | /  /          
                 / \  \   | |__| |  /  /\  \   | |_| |  |  |/  /          
                |  |  |   |  __  | /  /__\  \  |    /   |      \           
                |  |  |   | |  | | |   __   |  |    \   |  |\   \          
                \     /   | |  | | |  |  |  |  | |\  \  |  | \   \       
                 \___/    |_|  |_| |__|  |__|  |_| \__\ |__|  \__/        
                                                                              
                      - O R C A' S   B I G   F R I E N D -                    
                                      &                                       
                       - I N T E G R A L  F E E D E R -                       
                                                                              
 v1 FN, 2020, v2 2021, v3 2022-2024                                           
------------------------------------------------------------------------------


----------------------
SHARK INTEGRAL PACKAGE
----------------------

Number of atoms                             ...     24
Number of basis functions                   ...    303
Number of shells                            ...    147
Maximum angular momentum                    ...      2
Integral batch strategy                     ... SHARK/LIBINT Hybrid
RI-J (if used) integral strategy            ... SPLIT-RIJ (Revised 2003 algorithm where possible)
Printlevel                                  ...      1
Contraction scheme used                     ... SEGMENTED contraction
Prescreening option                         ... SCHWARTZ
   Thresh                                   ... 3.000e-11
   Tcut                                     ... 1.000e-12
   Tpresel                                  ... 1.000e-12 
Coulomb Range Separation                    ... NOT USED
Exchange Range Separation                   ... NOT USED
Multipole approximations                    ... NOT USED
Finite Nucleus Model                        ... NOT USED
CABS basis                                  ... NOT available
Auxiliary Coulomb fitting basis             ... AVAILABLE
   # of basis functions in Aux-J            ...    720
   # of shells in Aux-J                     ...    240
   Maximum angular momentum in Aux-J        ...      4
Auxiliary J/K fitting basis                 ... NOT available
Auxiliary Correlation fitting basis         ... NOT available
Auxiliary 'external' fitting basis          ... NOT available

Checking pre-screening integrals            ... done (  0.0 sec) Dimension = 147
Check shell pair data                       ... done (  0.0 sec)
Shell pair information
Shell pair cut-off parameter TPreSel        ...   1.0e-12
Total number of shell pairs                 ...     10878
Shell pairs after pre-screening             ...      8898
Total number of primitive shell pairs       ...     39360
Primitive shell pairs kept                  ...     21930
          la=0 lb=0:   2814 shell pairs
          la=1 lb=0:   3329 shell pairs
          la=1 lb=1:   1004 shell pairs
          la=2 lb=0:   1037 shell pairs
          la=2 lb=1:    611 shell pairs
          la=2 lb=2:    103 shell pairs

Calculating one electron integrals          ... done (  0.1 sec)
Calculating RI/J V-Matrix + Cholesky decomp.... done (  0.0 sec)
Calculating Nuclear repulsion               ... done (  0.0 sec) ENN=    678.706850633583 Eh

Diagonalization of the overlap matrix:
Smallest eigenvalue                        ... 2.959e-05
Time for diagonalization                   ...    0.013 sec
Threshold for overlap eigenvalues          ... 1.000e-07
Number of eigenvalues below threshold      ... 0
Time for construction of square roots      ...    0.008 sec
Total time needed                          ...    0.022 sec

-------------------
DFT GRID GENERATION
-------------------

General Integration Accuracy     IntAcc      ... 4.388
Radial Grid Type                 RadialGrid  ... OptM3 with GC (2021)
Angular Grid (max. ang.)         AngularGrid ... 4 (Lebedev-302)
Angular grid pruning method      GridPruning ... 4 (adaptive)
Weight generation scheme         WeightScheme... mBecke (2022)
Basis function cutoff            BFCut       ... 1.0000e-11
Integration weight cutoff        WCut        ... 1.0000e-14
Partially contracted basis set               ... off
Rotationally invariant grid construction     ... off
Angular grids for H and He will be reduced by one unit
Diffuse basis detected: some atoms will have their outermost
                        angular grid increased by 1.

Total number of grid points                  ...   110777
Total number of batches                      ...     1744
Average number of points per batch           ...       63
Average number of grid points per atom       ...     4616
Initializing property integral containers    ... done (  0.0 sec)

SHARK setup successfully completed in   1.3 seconds

Maximum memory used throughout the entire STARTUP-calculation: 54.0 MB
Occupation numbers will be reassigned to an Aufbau configuration
             **** ENERGY FILE WAS UPDATED (xtb_opt.en.tmp) ****
Finished Guess after   0.1 sec
Maximum memory used throughout the entire GUESS-calculation: 24.5 MB
----------------------------------------D-I-I-S--------------------------------------------
Iteration    Energy (Eh)           Delta-E    RMSDP     MaxDP     DIISErr   Damp  Time(sec)
-------------------------------------------------------------------------------------------
               ***  Starting incremental Fock matrix formation  ***
                              *** Initializing SOSCF ***
---------------------------------------S-O-S-C-F--------------------------------------
Iteration    Energy (Eh)           Delta-E    RMSDP     MaxDP     MaxGrad    Time(sec)
--------------------------------------------------------------------------------------
    1    -534.8013485866683823     0.00e+00  8.41e-06  2.60e-04  7.32e-05     3.5
               *** Restarting incremental Fock matrix formation ***
    2    -534.8013484295106537     1.57e-07  1.61e-05  5.01e-04  1.72e-04     3.4
    3    -534.8013455726286338     2.86e-06  1.32e-05  4.28e-04  5.01e-04     2.5
    4    -534.8013490477906089    -3.48e-06  4.72e-06  1.60e-04  4.38e-05     2.5
    5    -534.8013489502475295     9.75e-08  3.26e-06  1.19e-04  7.25e-05     2.4
                 **** Energy Check signals convergence ****

               *****************************************************
               *                     SUCCESS                       *
               *           SCF CONVERGED AFTER   5 CYCLES          *
               *****************************************************

             **** ENERGY FILE WAS UPDATED (xtb_opt.en.tmp) ****

----------------
TOTAL SCF ENERGY
----------------

Total Energy       :       -534.80134895024753 Eh          -14552.68455 eV

Components:
Nuclear Repulsion  :        678.70685063358314 Eh           18468.55233 eV
Electronic Energy  :      -1213.50819958383067 Eh          -33021.23688 eV
One Electron Energy:      -2070.55774377628040 Eh          -56342.74062 eV
Two Electron Energy:        857.04954419244973 Eh           23321.50374 eV

Virial components:
Potential Energy   :      -1067.52266859532983 Eh          -29048.76862 eV
Kinetic Energy     :        532.72131964508219 Eh           14496.08407 eV
Virial Ratio       :          2.00390453550189

DFT components:
N(Alpha)           :       43.999972845240 electrons
N(Beta)            :       43.999972845240 electrons
N(Total)           :       87.999945690481 electrons
E(X)               :      -72.801323840947 Eh       
E(C)               :       -2.858029782816 Eh       
E(XC)              :      -75.659353623764 Eh       

---------------
SCF CONVERGENCE
---------------

  Last Energy change         ...   -9.7543e-08  Tolerance :   1.0000e-07
  Last MAX-Density change    ...    1.1911e-04  Tolerance :   1.0000e-07
  Last RMS-Density change    ...    3.2622e-06  Tolerance :   5.0000e-09
  Last DIIS Error            ...    3.2786e-04  Tolerance :   1.0000e-07
  Last Orbital Gradient      ...    7.2455e-05  Tolerance :   1.0000e-04
  Last Orbital Rotation      ...    8.5453e-05  Tolerance :   1.0000e-04


----------------
ORBITAL ENERGIES
----------------

  NO   OCC          E(Eh)            E(eV) 
   0   2.0000     -18.903745      -514.3971 
   1   2.0000     -14.198987      -386.3741 
   2   2.0000     -14.191513      -386.1707 
   3   2.0000     -10.151002      -276.2228 
   4   2.0000     -10.083046      -274.3736 
   5   2.0000     -10.079875      -274.2873 
   6   2.0000     -10.059058      -273.7209 
   7   2.0000     -10.033542      -273.0266 
   8   2.0000     -10.032604      -273.0010 
   9   2.0000     -10.028234      -272.8821 
  10   2.0000     -10.023421      -272.7511 
  11   2.0000     -10.019885      -272.6549 
  12   2.0000      -1.017909       -27.6987 
  13   2.0000      -0.917438       -24.9648 
  14   2.0000      -0.900263       -24.4974 
  15   2.0000      -0.814084       -22.1524 
  16   2.0000      -0.719445       -19.5771 
  17   2.0000      -0.713015       -19.4021 
  18   2.0000      -0.701533       -19.0897 
  19   2.0000      -0.661743       -18.0070 
  20   2.0000      -0.593167       -16.1409 
  21   2.0000      -0.579345       -15.7648 
  22   2.0000      -0.531762       -14.4700 
  23   2.0000      -0.519460       -14.1352 
  24   2.0000      -0.492942       -13.4136 
  25   2.0000      -0.460050       -12.5186 
  26   2.0000      -0.456524       -12.4227 
  27   2.0000      -0.433982       -11.8092 
  28   2.0000      -0.414972       -11.2920 
  29   2.0000      -0.399300       -10.8655 
  30   2.0000      -0.393488       -10.7073 
  31   2.0000      -0.390882       -10.6364 
  32   2.0000      -0.386528       -10.5180 
  33   2.0000      -0.382779       -10.4159 
  34   2.0000      -0.378191       -10.2911 
  35   2.0000      -0.350764        -9.5448 
  36   2.0000      -0.343629        -9.3506 
  37   2.0000      -0.325525        -8.8580 
  38   2.0000      -0.309392        -8.4190 
  39   2.0000      -0.284058        -7.7296 
  40   2.0000      -0.233122        -6.3436 
  41   2.0000      -0.227813        -6.1991 
  42   2.0000      -0.217195        -5.9102 
  43   2.0000      -0.194418        -5.2904 
  44   0.0000      -0.027822        -0.7571 
  45   0.0000      -0.023249        -0.6326 
  46   0.0000       0.045357         1.2342 
  47   0.0000       0.046868         1.2753 
  48   0.0000       0.076914         2.0929 
  49   0.0000       0.092264         2.5106 
  50   0.0000       0.096315         2.6209 
  51   0.0000       0.107330         2.9206 
  52   0.0000       0.120016         3.2658 
  53   0.0000       0.133669         3.6373 
  54   0.0000       0.134625         3.6633 
*Only the first 10 virtual orbitals were printed.
Total SCF time: 0 days 0 hours 0 min 15 sec 
Finished LeanSCF after  16.9 sec

Maximum memory used throughout the entire LEANSCF-calculation: 36.4 MB


-------------------------------------------------------------------------------
                          DFT DISPERSION CORRECTION                            
                                                                               
                                DFTD4 V3.4.0                                   
-------------------------------------------------------------------------------
-------------------------   ----------------
Dispersion correction           -0.008501897
-------------------------   ----------------

------------------   -----------------
gCP correction             0.019930541
------------------   -----------------

-------------------------   --------------------
FINAL SINGLE POINT ENERGY      -534.789920306146
-------------------------   --------------------

------------------------------------------------------------------------------
                         ORCA SCF GRADIENT CALCULATION
------------------------------------------------------------------------------

Nuc. rep. gradient        (SHARK) ... done (  0.0 sec)
HCore & Overlap gradient  (SHARK) ... done (  0.5 sec)
Split-RIJ-J gradient      (SHARK) ... done (  3.0 sec)
XC gradient                       ... done ( 13.3 sec)
Dispersion correction             ... done (  0.0 sec)

-------------------
DISPERSION GRADIENT
-------------------

   1   C   :   -0.000075431   -0.000077463    0.000000032
   2   N   :   -0.000089373   -0.000006907   -0.000000088
   3   C   :   -0.000090790    0.000034847    0.000000082
   4   C   :   -0.000072617    0.000033955   -0.000000067
   5   O   :   -0.000036168    0.000102282   -0.000000098
   6   N   :   -0.000021957   -0.000046677    0.000000019
   7   C   :    0.000055741   -0.000002541    0.000000027
   8   C   :    0.000054256    0.000071539    0.000000051
   9   C   :    0.000087222    0.000067482    0.000000029
  10   C   :    0.000094593    0.000009504   -0.000000012
  11   C   :    0.000089387   -0.000053120   -0.000000021
  12   C   :    0.000074665   -0.000078074    0.000000010
  13   H   :   -0.000030500   -0.000036607   -0.000013062
  14   H   :   -0.000025178   -0.000023661   -0.000000051
  15   H   :   -0.000030447   -0.000036533    0.000013078
  16   H   :   -0.000033046    0.000012095   -0.000009097
  17   H   :   -0.000028862    0.000025624   -0.000000013
  18   H   :   -0.000033046    0.000012128    0.000009172
  19   H   :   -0.000008954   -0.000017363    0.000000019
  20   H   :    0.000003249    0.000046047    0.000000021
  21   H   :    0.000026661    0.000038015    0.000000007
  22   H   :    0.000037801    0.000005477   -0.000000015
  23   H   :    0.000030148   -0.000029814   -0.000000020
  24   H   :    0.000022650   -0.000050235   -0.000000003

Difference to translation invariance:
           :   -0.0000000000   -0.0000000000   -0.0000000000

Difference to rotation invariance:
           :    0.0000000000   -0.0000000000   -0.0000000000

Norm of the Dispersion gradient    ...    0.0003550489
RMS gradient                       ...    0.0000418429
MAX gradient                       ...    0.0001022823
gCP correction                   ... done

------------------
CARTESIAN GRADIENT
------------------

   1   C   :   -0.002699188    0.000822466   -0.000030812
   2   N   :    0.005740896    0.002257104    0.000064811
   3   C   :    0.000025998   -0.004046266   -0.000022193
   4   C   :    0.004551832    0.006585034   -0.000017637
   5   O   :   -0.006491705   -0.018715705    0.000002701
   6   N   :   -0.002802011    0.011445710   -0.000019564
   7   C   :    0.000734667   -0.001846932    0.000004088
   8   C   :    0.002998046   -0.006972581   -0.000006430
   9   C   :   -0.001636459    0.000711838    0.000016982
  10   C   :   -0.005796830   -0.001137413    0.000022071
  11   C   :   -0.000863967    0.001992541    0.000008542
  12   C   :    0.001350655    0.003297196   -0.000002299
  13   H   :   -0.000189679    0.003098366    0.002297044
  14   H   :    0.001864180    0.001985502    0.000015145
  15   H   :   -0.000176883    0.003082519   -0.002301693
  16   H   :    0.002834523    0.000124946    0.002204308
  17   H   :    0.001835188   -0.001747175   -0.000001424
  18   H   :    0.002810508    0.000114190   -0.002203705
  19   H   :    0.000036876   -0.001541170   -0.000001030
  20   H   :    0.001363323   -0.001882895    0.000001044
  21   H   :   -0.000931152   -0.003628844   -0.000011177
  22   H   :   -0.003747060   -0.000505453   -0.000014095
  23   H   :   -0.001903416    0.002921762   -0.000010445
  24   H   :    0.001091659    0.003585260    0.000005769

Difference to translation invariance:
           :   -0.0000000000    0.0000000000    0.0000000000

Difference to rotation invariance:
           :    0.0000071966    0.0000019788    0.0004580989

Norm of the Cartesian gradient     ...    0.0301061267
RMS gradient                       ...    0.0035480411
MAX gradient                       ...    0.0187157054

-------
TIMINGS
-------

Total SCF gradient time     ....       16.904 sec

Densities                   ....       0.001 sec  (  0.0%)
One electron gradient       ....       0.523 sec  (  3.1%)
RI-J Coulomb gradient       ....       2.996 sec  ( 17.7%)
XC gradient                 ....      13.329 sec  ( 78.9%)

Maximum memory used throughout the entire SCFGRAD-calculation: 44.2 MB

------------------------------------------------------------------------------
                              ORCA PROPERTY CALCULATIONS
------------------------------------------------------------------------------

GBWName                                 ... xtb_opt.gbw
Number of atoms                         ...     24
Number of basis functions               ...    303
Max core memory                         ...   1024 MB

Electric properties:
Dipole moment                           ... YES
Quadrupole moment                       ...  NO
Static polarizability (Dipole/Dipole)   ...  NO
Static polarizability (Dipole/Quad.)    ...  NO
Static polarizability (Quad./Quad.)     ...  NO
Static polarizability (Velocity)        ...  NO

Atomic electric properties:
Dipole moment                           ...  NO
Quadrupole moment                       ...  NO
Static polarizability                   ...  NO

Choice of electric origin               ... Center of mass
Position of electric origin             ...    -0.000013    -0.000015     0.000000

General magnetic properties:
Magnetizability                         ...  NO

EPR properties:
g-Tensor (aka g-matrix)                 ...  NO
Zero-Field splitting spin-orbit         ...  NO
Zero-field splitting spin-spin          ...  NO
Hyperfine couplings                     ...  NO (   0 nuclei)
Quadrupole couplings                    ...  NO (   0 nuclei)
Contact density                         ...  NO (   0 nuclei)

NMR properties:
Chemical shifts                         ...  NO (   0 nuclei)
Spin-rotation constants                 ...  NO (   0 nuclei)
Spin-spin couplings                     ...  NO (   0 nuclei,    0 pairs)

Choice of magnetic origin               ... GIAO
Position of magnetic origin             ...     0.000000     0.000000     0.000000

Properties with geometric perturbations:
SCF Hessian                             ...  NO
IR spectrum                             ...  NO
VCD spectrum                            ...  NO
X-ray spectroscopy properties:
SCF XES/XAS/RIXS spectra                ...  NO


-------------
DIPOLE MOMENT
-------------

Method             : SCF
Type of density    : Electron Density
Multiplicity       :   1
Irrep              :   0
Energy             :  -534.8013489502475295 Eh
Relativity type    : 
Basis              : AO
                                X                 Y                 Z
Electronic contribution:      6.466104467       3.024293430      -0.006765253
Nuclear contribution   :     -7.292919216      -4.492198677       0.008184897
                        -----------------------------------------
Total Dipole Moment    :     -0.826814749      -1.467905247       0.001419644
                        -----------------------------------------
Magnitude (a.u.)       :      1.684746408
Magnitude (Debye)      :      4.282285050



--------------------
Rotational spectrum 
--------------------
 
Rotational constants in cm-1:             0.087922             0.016189             0.013743 
Rotational constants in MHz :          2635.848072           485.327933           412.007598 

Dipole components along the rotational axes: 
x,y,z [a.u.] :     0.826818    -1.467903     0.001420 
x,y,z [Debye]:     2.101604    -3.731114     0.003608 

 

Dipole moment calculation done in   1.0 sec 

Maximum memory used throughout the entire PROP-calculation: 23.2 MB

--------------------------------
SUGGESTED CITATIONS FOR THIS RUN
--------------------------------

Below you find a list of papers that are relevant to this ORCA run
We neither can nor want to force you to cite these papers, but we appreciate if you do
You receive ORCA, which is the product of decades of hard work by many enthusiastic individuals, for free
The only thing we kindly ask in return is that you cite our papers,
We deeply appreciate it, if you show your appreciation for ORCA by not just citing the generic ORCA reference.

Please note that relegating all ORCA citations to the supporting information does *not* help us.
SI sections are not indexed - citations you put there will not count into any citation statistics
But we need these citations in order to attract the funding resources that allow us to do what we are doing

Therefore, if you are a happy ORCA user, please consider citing a few of the papers listed below in the main body of your paper

In addition to the list printed below, the program has created the file xtb_opt.bibtex that contains the list in bibtex format
You can import this file easily into all common literature databanks and citation aid programs


List of essential papers. We consider these as the minimum necessary citations

  1. Neese,F.
     Software update: the ORCA program system, version 5.0
     WIRES Comput. Molec. Sci., 2022 12(1)e1606
     doi.org/10.1002/wcms.1606
  2. Grimme,S.; Hansen,A.; Ehlert,S.; Mewes,J.
     r2SCAN-3c: A 'Swiss army knife' composite electronic-structure method
     J. Chem. Phys., 2021 154 064103
     doi.org/10.1063/5.0040021

List of papers to cite with high priority. The work reported in these papers was absolutely
necessary for this run to complete.
Our perspective: the developers of density functionals and basis sets usually get cited in chemistry papers
Good! But without the algorithms to do something with them, the functionals or basis sets would not do anything.
Hence, in our opinion, the algorithm design and method developments papers are equally worthy of getting cited

  1. Neese,F.
     An improvement of the resolution of the identity approximation for the formation of the Coulomb matrix
     J. Comp. Chem., 2003 24(14)1740-1747
     doi.org/10.1002/jcc.10318
  2. Neese,F.
     The SHARK Integral Generation and Digestion System
     J. Comp. Chem., 2022  1-16
     doi.org/10.1002/jcc.26942
  3. Lehtola,S.; Steigemann,C.; Oliveira,M.; Marques,M.
     Recent developments in Libxc - A comprehensive library of functionals for density functional theory
     Software X, 2018 7 
     doi.org/10.1016/j.softx.2017.11.002
  4. Caldeweyher,E.; Bannwarth,C.; Grimme,S.
     Extension of the D3 dispersion coefficient model
     J. Chem. Phys., 2017 147 034112
     doi.org/10.1063/1.4993215
  5. Caldeweyher,E.; Ehlert,S.; Hansen,A.; Neugebauer,H.; Spicher,S.; Bannwarth,C.; Grimme,S.
     A generally applicable atomic-charge dependent London dispersion correction
     J. Chem. Phys., 2019 150 154122
     doi.org/10.1063/1.5090222
  6. Caldeweyher,E.; Mewes,J.; Ehlert,S.; Grimme,S.
     Extension and evaluation of the D4 London-dispersion model for periodic systems
     Phys. Chem. Chem. Phys., 2020 22(16)8499-8512
     doi.org/10.1039/D0CP00502A
  7. Wittmann,L.; Gordiy,I.; Friede,M.; Helmich-Paris,B.; Grimme,S.; Hansen,A.; Bursch,M.
     Extension of the D3 and D4 London Dispersion Corrections to the full Actinides Series
     Phys. Chem. Chem. Phys., 2024 26(32)21379-21394
     doi.org/https://doi.org/10.1039/D4CP01514B 

List of suggested additional citations. These are papers that are important in the 'surrounding' of 
of this run, or papers that preceded the highly important papers. If you like your results we are grateful for a citation.

  1. Neese,F.
     The ORCA program system
     WIRES Comput. Molec. Sci., 2012 2(1)73-78
     doi.org/10.1002/wcms.81
  2. Neese,F.
     Software update: the ORCA program system, version 4.0
     WIRES Comput. Molec. Sci., 2018 8(1)1-6
     doi.org/10.1002/wcms.1327
  3. Neese,F.; Wennmohs,F.; Becker,U.; Riplinger,C.
     The ORCA quantum chemistry program package
     J. Chem. Phys., 2020 152 Art. No. L224108
     doi.org/10.1063/5.0004608

List of optional additional citations

  1. Neese,F.
     Approximate second-order SCF convergence for spin unrestricted wavefunctions
     Chem. Phys. Lett., 2000 325(1-3)93-98
     doi.org/10.1016/s0009-2614(00)00662-x

Timings for individual modules:

Sum of individual times          ...       37.534 sec (=   0.626 min)
Startup calculation              ...        1.358 sec (=   0.023 min)   3.6 %
SCF iterations                   ...       17.109 sec (=   0.285 min)  45.6 %
Property calculations            ...        1.123 sec (=   0.019 min)   3.0 %
SCF Gradient evaluation          ...       17.945 sec (=   0.299 min)  47.8 %
                             ****ORCA TERMINATED NORMALLY****
TOTAL RUN TIME: 0 days 0 hours 0 minutes 39 seconds 105 msec
  ------------------------------------------------------------------------
          * successful ORCA run, taking over control again...

         :::::::::::::::::::::::::::::::::::::::::::::::::::::
         ::                  ORCA SUMMARY                   ::
         :::::::::::::::::::::::::::::::::::::::::::::::::::::
         :: total energy            -534.789920306146 Eh    ::
         :: gradient norm              0.030106126652 Eh/a0 ::
         :: HOMO-LUMO gap              0.000000000000 eV    ::
         :::::::::::::::::::::::::::::::::::::::::::::::::::::

      ----------------------------------------------------------- 
     |                       L-ANC optimizer                     |
      ----------------------------------------------------------- 
          low memory version by Sebastian Ehlert

          ...................................................
          :                      SETUP                      :
          :.................................................:
          :   energy convergence        0.5000000E-05 Eh    :
          :   grad. convergence         0.1000000E-02 Eh/a0 :
          :   optimization log               true           :
          :   writing optlog all                1     steps :
          :   Hessian reset                     8     steps :
          :   maximium step len.        1.0000000     a0    :
          :   LBFGS images                      8           :
          ...................................................
 * calculating model hessian...
Using Lindh-Hessian (1995)
 Shifting diagonal of input Hessian by   1.000000000000000E-002
 Lowest  eigenvalues of input Hessian
    0.000000    0.000000    0.000000    0.000000    0.000000    0.000000
    0.011484    0.011847    0.012423    0.017176    0.020166    0.021978
    0.022922    0.023312    0.025511    0.026500    0.032796    0.037355
 Highest eigenvalues
    1.745626    1.918561    2.009738    2.043981    2.236788    2.484236
 

........................................................................
.............................. CYCLE    1 ..............................
........................................................................
                         * ORCA takes the control...
  ------------------------------------------------------------------------

                                 *****************
                                 * O   R   C   A *
                                 *****************

                                            #,                                       
                                            ###                                      
                                            ####                                     
                                            #####                                    
                                            ######                                   
                                           ########,                                 
                                     ,,################,,,,,                         
                               ,,#################################,,                 
                          ,,##########################################,,             
                       ,#########################################, ''#####,          
                    ,#############################################,,   '####,        
                  ,##################################################,,,,####,       
                ,###########''''           ''''###############################       
              ,#####''   ,,,,##########,,,,          '''####'''          '####       
            ,##' ,,,,###########################,,,                        '##       
           ' ,,###''''                  '''############,,,                           
         ,,##''                                '''############,,,,        ,,,,,,###''
      ,#''                                            '''#######################'''  
     '                                                          ''''####''''         
             ,#######,   #######,   ,#######,      ##                                
            ,#'     '#,  ##    ##  ,#'     '#,    #''#        ,####,   ,####,        
            ##       ##  ##   ,#'  ##            #'  '#       #'       #'  '#        
            ##       ##  #######   ##           ,######,      #####,   #    #        
            '#,     ,#'  ##    ##  '#,     ,#' ,#      #,     #,   #   #,  ,#        
             '#######'   ##     ##  '#######'  #'      '#     '####' # '####'        



                #########################################################
                #                        -***-                          #
                #          Department of theory and spectroscopy        #
                #                                                       #
                #                      Frank Neese                      #
                #                                                       #
                #     Directorship, Architecture, Infrastructure        #
                #                    SHARK, DRIVERS                     #
                #        Core code/Algorithms in most modules           #
                #                                                       #
                #        Max Planck Institute fuer Kohlenforschung      #
                #                Kaiser Wilhelm Platz 1                 #
                #                 D-45470 Muelheim/Ruhr                 #
                #                      Germany                          #
                #                                                       #
                #                  All rights reserved                  #
                #                        -***-                          #
                #########################################################


                         Program Version 6.0.1  -  RELEASE   -


 With contributions from (in alphabetic order):
[Max-Planck-Institut fuer Kohlenforschung]                               
  Daniel Aravena         : Magnetic Suceptibility                        
  Michael Atanasov       : Ab Initio Ligand Field Theory (pilot matlab implementation)
  Alexander A. Auer      : GIAO ZORA, VPT2 properties, NMR spectrum      
  Ute Becker             : All parallelization in ORCA, NUMFREQ, NUMCALC 
  Giovanni Bistoni       : ED, misc. LED, open-shell LED, HFLD           
  Martin Brehm           : Molecular dynamics                            
  Dmytro Bykov           : pre 5.0 version of the SCF Hessian            
  Marcos Casanova-Páez   : Triplet and SCS-CIS(D). UHF-(DLPNO)-IP/EA/STEOM-CCSD. UHF-CVS-IP/STEOM-CCSD   
  Vijay G. Chilkuri      : MRCI spin determinant printing, contributions to CSF-ICE 
  Pauline Colinet        : FMM embedding                                 
  Dipayan Datta          : RHF DLPNO-CCSD density                        
  Achintya Kumar Dutta   : EOM-CC, STEOM-CC                              
  Nicolas Foglia         : Exact transition moments, OPA infrastructure, MCD improvements    
  Dmitry Ganyushin       : Spin-Orbit,Spin-Spin,Magnetic field MRCI      
  Miquel Garcia-Rates    : C-PCM and meta-GGA Hessian, CCSD/C-PCM, Gaussian charge scheme 
  Tiago L. C. Gouveia    : GS-ROHF, GS-ROCIS                             
  Yang Guo               : DLPNO-NEVPT2, F12-NEVPT2, CIM, IAO-localization        
  Andreas Hansen         : Spin unrestricted coupled pair/coupled cluster methods 
  Ingolf Harden          : AUTO-CI MPn and infrastructure                
  Benjamin Helmich-Paris : MC-RPA, TRAH-(SCF,CASSCF), AVAS, COSX integrals, SCF dyn. polar. 
  Lee Huntington         : MR-EOM, pCC                                   
  Robert Izsak           : Overlap fitted RIJCOSX, COSX-SCS-MP3, EOM     
  Riya Kayal             : Wick's Theorem for AUTO-CI, AUTO-CI UHF-CCSDT 
  Emily Kempfer          : AUTO-CI, RHF CISDT and CCSDT                  
  Christian Kollmar      : KDIIS, OOCD, Brueckner-CCSD(T), CCSD density, CASPT2, CASPT2-K, improved NEVPT2 
  Axel Koslowski         : Symmetry handling                             
  Simone Kossmann        : meta-GGA functionals, TD-DFT gradient, OOMP2, (MP2 Hessian; deprecated post 5.0) 
  Lucas Lang             : DCDCAS                                        
  Marvin Lechner         : AUTO-CI (C++ implementation), FIC-MRCC        
  Spencer Leger          : CASSCF response                               
  Dagmar Lenk            : GEPOL surface, SMD, ORCA-2-JSON               
  Dimitrios Liakos       : Extrapolation schemes; Compound Job, initial MDCI parallelization 
  Dimitrios Manganas     : Further ROCIS development; embedding schemes. LFT, Crystal Embedding 
  Dimitrios Pantazis     : SARC Basis sets                               
  Anastasios Papadopoulos: AUTO-CI, single reference methods and gradients 
  Taras Petrenko         : pre 6.0 DFT Hessian and TD-DFT gradient, (ASA, deprecated), ECA, 1-Electron XAS/XES, NRVS 
  Peter Pinski           : DLPNO-MP2, DLPNO-MP2 Gradient                 
  Christoph Reimann      : Effective Core Potentials                     
  Marius Retegan         : Local ZFS, SOC                                
  Christoph Riplinger    : Optimizer, TS searches, QM/MM, DLPNO-CCSD(T), (RO)-DLPNO pert. Triples 
  Michael Roemelt        : Original ROCIS implementation                 
  Masaaki Saitow         : Open-shell DLPNO-CCSD energy and density      
  Barbara Sandhoefer     : DKH picture change effects                    
  Kantharuban Sivalingam : CASSCF convergence/infrastructure, NEVPT2 and variants, FIC-MRCI 
  Bernardo de Souza      : ESD, SOC TD-DFT                               
  Georgi L. Stoychev     : AutoAux, RI-MP2 NMR, DLPNO-MP2 response, X2C  
  Van Anh Tran           : RI-MP2 g-tensors                              
  Willem Van den Heuvel  : Paramagnetic NMR                              
  Zikuan Wang            : NOTCH, Electric field optimization            
  Frank Wennmohs         : Technical directorship and infrastructure     
  Hang Xu                : AUTO-CI-Response properties                   
                                                                         
[FACCTs GmbH]                                                            
  Markus Bursch, Miquel Garcia-Rates, Christoph Riplinger, Bernardo de Souza, Georgi L. Stoychev 
                                                                 
  APM, Basis sets (HGBS, AHGBS, def-TZVP (Ac-Lr), def2-XVPD (La-Lu)), CI-OPT, improved COSX, DLPNO-Multilevel,           
  DOCKER, DRACO, updates on ESD, GOAT, IRC, LR-CPCM, MBIS, meta-GGA TD-DFT gradient, ML-optimized integration grids, 
  MM, NACMEs, nearIR, NEB, NEB-TS, NL-DFT gradient (VV10), 2- and 3-layer-ONIOM, interface openCOSMO-RS, QMMM,   
  Crystal-QMMM, SF, symmetry and pop. for TD-DFT, r2SCAN hybrids, SOLVATOR                                   
                                                                         
[Other institutions]                                                     
  V. Asgeirsson          : NEB                                           
  Christoph Bannwarth    : sTDA-DFT, sTD-DFT, PBEh-3c, B97-3c, D3        
  Sebastian Ehlert       : rSCAN, r2SCAN, r2SCAN-3c, D4, dhf basis sets  
  Marvin Friede          : D4 for Fr, Ra, Ac-Lr                          
  Lars Goerigk           : TD-DFT with DH, B97 family of functionals     
  Stefan Grimme          : VdW corrections, initial TS optimization, DFT functionals, gCP, sTDA/sTD-DF 
  Waldemar Hujo          : DFT-NL                                        
  H. Jonsson             : NEB                                           
  Holger Kruse           : gCP                                           
  Marcel Mueller         : wB97X-3c, vDZP basis set                      
  Hagen Neugebauer       : wr2SCAN                                       
  Tobias Risthaus        : range-separated hybrid DFT                    
  Lukas Wittmann         : regularized MP2, r2SCAN double-hybrids, wr2SCAN        
                                                                         
We gratefully acknowledge several colleagues who have allowed us to      
interface, adapt or use parts of their codes:                            
  Ed Valeev, F. Pavosevic, A. Kumar             : LibInt (2-el integral package), F12 methods 
  Garnet Chan, S. Sharma, J. Yang, R. Olivares  : DMRG                   
  Ulf Ekstrom                                   : XCFun DFT Library      
  Mihaly Kallay                                 : mrcc  (arbitrary order and MRCC methods)
  Frank Weinhold                                : gennbo (NPA and NBO analysis)           
  Simon Mueller                                 : openCOSMO-RS                            
  Christopher J. Cramer and Donald G. Truhlar   : smd solvation model                     
  S Lehtola, MJT Oliveira, MAL Marques          : LibXC Library                           
  Liviu Ungur et al                             : ANISO software                          


 Your calculation uses the libint2 library for the computation of 2-el integrals
 For citations please refer to: http://libint.valeyev.net

 Your ORCA version has been built with support for libXC version: 6.2.2
 For citations please refer to: https://libxc.gitlab.io

 This ORCA versions uses:
   CBLAS   interface :  Fast vector & matrix operations
   LAPACKE interface :  Fast linear algebra routines
   SCALAPACK package :  Parallel linear algebra routines
   Shared memory     :  Shared parallel matrices
   BLAS/LAPACK       :  OpenBLAS 0.3.27  USE64BITINT DYNAMIC_ARCH NO_AFFINITY Zen SINGLE_THREADED
        Core in use  :  Zen
   Copyright (c) 2011-2014, The OpenBLAS Project




***************************************
The coordinates will be read from file: xtb_opt.xyz
***************************************


Your calculation utilizes the geometrical counterpoise correction gCP
Please cite in your paper:
H.Kruse, S. Grimme J.Chem.Phys., 136, (2012), 154101 
   

Your calculation utilizes the atom-pairwise dispersion correction
based on EEQ partial charges (D4)


================================================================================

----- Orbital basis set information -----
Your calculation utilizes the basis: def2-mTZVPP
   Stefan Grimme, Andreas Hansen, Sebastian Ehlert, and Jan-Michael Mewes 
   J. Chem. Phys. 154, 064103 (2021). DOI: 10.1063/5.0040021

----- AuxJ basis set information -----
Your calculation utilizes the auxiliary basis: def2/J
   F. Weigend, Phys. Chem. Chem. Phys. 8, 1057 (2006).

================================================================================
                                        WARNINGS
                       Please study these warnings very carefully!
================================================================================

WARNING: Old DensityContainer found on disk!
         Will remove this file - 
         If you want to keep old densities, please start your calculation with a different basename. 



WARNING: SCAN, rSCAN, or r2SCAN functional requested.
  ===> : libXC variant has now been activated.



================================================================================
                                       INPUT FILE
================================================================================
NAME = xtb_opt.inp
|  1> ! r2scan-3c def2/J RI DEFGRID2 scfconv7 ENGRAD tightSCF miniprint
|  2> * xyzfile 0 1 xtb_opt.xyz
|  3> 
|  4>                          ****END OF INPUT****
================================================================================

                     *******************************
                     * Energy+Gradient Calculation *
                     *******************************

---------------------------------
CARTESIAN COORDINATES (ANGSTROEM)
---------------------------------
  C     -2.905277   -1.643303    0.000181
  N     -2.687746   -0.208170   -0.001695
  C     -3.862315    0.645005    0.001494
  C     -1.442550    0.383666   -0.000674
  O     -1.295820    1.600171   -0.001134
  N     -0.389700   -0.514590    0.000615
  C      0.982123   -0.234018    0.000386
  C      1.508114    1.061227    0.000671
  C      2.884884    1.240313    0.000293
  C      3.753675    0.155731   -0.000305
  C      3.228551   -1.131588   -0.000435
  C      1.856521   -1.327572   -0.000080
  H     -2.490023   -2.132102   -0.892290
  H     -3.979678   -1.829530   -0.004224
  H     -2.497455   -2.129179    0.897788
  H     -4.476760    0.462221   -0.888015
  H     -3.536264    1.684186   -0.000833
  H     -4.470895    0.464497    0.895595
  H     -0.609267   -1.496249    0.001503
  H      0.837565    1.906626    0.001103
  H      3.280152    2.249818    0.000501
  H      4.826150    0.309634   -0.000678
  H      3.889770   -1.990675   -0.000902
  H      1.455039   -2.337350   -0.000273

----------------------------
CARTESIAN COORDINATES (A.U.)
----------------------------
  NO LB      ZA    FRAG     MASS         X           Y           Z
   0 C     6.0000    0    12.011   -5.490177   -3.105393    0.000342
   1 N     7.0000    0    14.007   -5.079103   -0.393385   -0.003203
   2 C     6.0000    0    12.011   -7.298717    1.218883    0.002823
   3 C     6.0000    0    12.011   -2.726024    0.725023   -0.001274
   4 O     8.0000    0    15.999   -2.448746    3.023885   -0.002142
   5 N     7.0000    0    14.007   -0.736426   -0.972435    0.001162
   6 C     6.0000    0    12.011    1.855943   -0.442231    0.000729
   7 C     6.0000    0    12.011    2.849923    2.005428    0.001269
   8 C     6.0000    0    12.011    5.451642    2.343851    0.000554
   9 C     6.0000    0    12.011    7.093417    0.294288   -0.000577
  10 C     6.0000    0    12.011    6.101078   -2.138392   -0.000822
  11 C     6.0000    0    12.011    3.508315   -2.508748   -0.000151
  12 H     1.0000    0     1.008   -4.705462   -4.029090   -1.686183
  13 H     1.0000    0     1.008   -7.520502   -3.457311   -0.007982
  14 H     1.0000    0     1.008   -4.719506   -4.023565    1.696573
  15 H     1.0000    0     1.008   -8.459850    0.873471   -1.678105
  16 H     1.0000    0     1.008   -6.682570    3.182651   -0.001574
  17 H     1.0000    0     1.008   -8.448767    0.877773    1.692429
  18 H     1.0000    0     1.008   -1.151348   -2.827501    0.002841
  19 H     1.0000    0     1.008    1.582768    3.603001    0.002084
  20 H     1.0000    0     1.008    6.198589    4.251540    0.000946
  21 H     1.0000    0     1.008    9.120102    0.585123   -0.001281
  22 H     1.0000    0     1.008    7.350600   -3.761830   -0.001704
  23 H     1.0000    0     1.008    2.749625   -4.416952   -0.000516

------------------------------------------------------------------------------
                   ___                                                        
                  /   \      - P O W E R E D   B Y -                         
                 /     \                                                     
                 |  |  |   _    _      __       _____    __    __             
                 |  |  |  | |  | |    /  \     |  _  \  |  |  /  |          
                  \  \/   | |  | |   /    \    | | | |  |  | /  /          
                 / \  \   | |__| |  /  /\  \   | |_| |  |  |/  /          
                |  |  |   |  __  | /  /__\  \  |    /   |      \           
                |  |  |   | |  | | |   __   |  |    \   |  |\   \          
                \     /   | |  | | |  |  |  |  | |\  \  |  | \   \       
                 \___/    |_|  |_| |__|  |__|  |_| \__\ |__|  \__/        
                                                                              
                      - O R C A' S   B I G   F R I E N D -                    
                                      &                                       
                       - I N T E G R A L  F E E D E R -                       
                                                                              
 v1 FN, 2020, v2 2021, v3 2022-2024                                           
------------------------------------------------------------------------------


----------------------
SHARK INTEGRAL PACKAGE
----------------------

Number of atoms                             ...     24
Number of basis functions                   ...    303
Number of shells                            ...    147
Maximum angular momentum                    ...      2
Integral batch strategy                     ... SHARK/LIBINT Hybrid
RI-J (if used) integral strategy            ... SPLIT-RIJ (Revised 2003 algorithm where possible)
Printlevel                                  ...      1
Contraction scheme used                     ... SEGMENTED contraction
Prescreening option                         ... SCHWARTZ
   Thresh                                   ... 3.000e-11
   Tcut                                     ... 1.000e-12
   Tpresel                                  ... 1.000e-12 
Coulomb Range Separation                    ... NOT USED
Exchange Range Separation                   ... NOT USED
Multipole approximations                    ... NOT USED
Finite Nucleus Model                        ... NOT USED
CABS basis                                  ... NOT available
Auxiliary Coulomb fitting basis             ... AVAILABLE
   # of basis functions in Aux-J            ...    720
   # of shells in Aux-J                     ...    240
   Maximum angular momentum in Aux-J        ...      4
Auxiliary J/K fitting basis                 ... NOT available
Auxiliary Correlation fitting basis         ... NOT available
Auxiliary 'external' fitting basis          ... NOT available

Checking pre-screening integrals            ... done (  0.0 sec) Dimension = 147
Check shell pair data                       ... done (  0.0 sec)
Shell pair information
Shell pair cut-off parameter TPreSel        ...   1.0e-12
Total number of shell pairs                 ...     10878
Shell pairs after pre-screening             ...      8880
Total number of primitive shell pairs       ...     39360
Primitive shell pairs kept                  ...     21888
          la=0 lb=0:   2806 shell pairs
          la=1 lb=0:   3324 shell pairs
          la=1 lb=1:   1003 shell pairs
          la=2 lb=0:   1034 shell pairs
          la=2 lb=1:    611 shell pairs
          la=2 lb=2:    102 shell pairs

Calculating one electron integrals          ... done (  0.1 sec)
Calculating RI/J V-Matrix + Cholesky decomp.... done (  0.0 sec)
Calculating Nuclear repulsion               ... done (  0.0 sec) ENN=    675.891795401031 Eh

Diagonalization of the overlap matrix:
Smallest eigenvalue                        ... 3.063e-05
Time for diagonalization                   ...    0.013 sec
Threshold for overlap eigenvalues          ... 1.000e-07
Number of eigenvalues below threshold      ... 0
Time for construction of square roots      ...    0.008 sec
Total time needed                          ...    0.023 sec

-------------------
DFT GRID GENERATION
-------------------

General Integration Accuracy     IntAcc      ... 4.388
Radial Grid Type                 RadialGrid  ... OptM3 with GC (2021)
Angular Grid (max. ang.)         AngularGrid ... 4 (Lebedev-302)
Angular grid pruning method      GridPruning ... 4 (adaptive)
Weight generation scheme         WeightScheme... mBecke (2022)
Basis function cutoff            BFCut       ... 1.0000e-11
Integration weight cutoff        WCut        ... 1.0000e-14
Partially contracted basis set               ... off
Rotationally invariant grid construction     ... off
Angular grids for H and He will be reduced by one unit
Diffuse basis detected: some atoms will have their outermost
                        angular grid increased by 1.

Total number of grid points                  ...   110813
Total number of batches                      ...     1744
Average number of points per batch           ...       63
Average number of grid points per atom       ...     4617
Initializing property integral containers    ... done (  0.0 sec)

SHARK setup successfully completed in   1.8 seconds

Maximum memory used throughout the entire STARTUP-calculation: 54.0 MB
Occupation numbers will be reassigned to an Aufbau configuration
             **** ENERGY FILE WAS UPDATED (xtb_opt.en.tmp) ****
Finished Guess after   0.1 sec
Maximum memory used throughout the entire GUESS-calculation: 24.4 MB
----------------------------------------D-I-I-S--------------------------------------------
Iteration    Energy (Eh)           Delta-E    RMSDP     MaxDP     DIISErr   Damp  Time(sec)
-------------------------------------------------------------------------------------------
               ***  Starting incremental Fock matrix formation  ***
    1    -534.8019403163198149     0.00e+00  6.09e-05  2.65e-03  6.08e-03  0.700   3.4
    2    -534.8020558879866257    -1.16e-04  5.17e-05  2.10e-03  4.59e-03  0.700   3.3
                               ***Turning on AO-DIIS***
                              *** Initializing SOSCF ***
---------------------------------------S-O-S-C-F--------------------------------------
Iteration    Energy (Eh)           Delta-E    RMSDP     MaxDP     MaxGrad    Time(sec)
--------------------------------------------------------------------------------------
    3    -534.8021357944560350    -7.99e-05  1.26e-04  4.88e-03  3.28e-03     4.2
               *** Restarting incremental Fock matrix formation ***
    4    -534.8023163160187323    -1.81e-04  2.38e-05  5.57e-04  1.90e-04     5.2
    5    -534.8023139937938595     2.32e-06  1.43e-05  4.97e-04  3.49e-04     3.9
    6    -534.8023181516105069    -4.16e-06  1.08e-05  5.05e-04  7.59e-05     3.9
    7    -534.8023178084040410     3.43e-07  7.58e-06  3.65e-04  1.41e-04     3.9
    8    -534.8023183150949080    -5.07e-07  1.89e-06  5.31e-05  2.22e-05     3.8
                  *** Gradient check signals convergence ***

               *****************************************************
               *                     SUCCESS                       *
               *           SCF CONVERGED AFTER   8 CYCLES          *
               *****************************************************

             **** ENERGY FILE WAS UPDATED (xtb_opt.en.tmp) ****

----------------
TOTAL SCF ENERGY
----------------

Total Energy       :       -534.80231831509491 Eh          -14552.71093 eV

Components:
Nuclear Repulsion  :        675.89179540103100 Eh           18391.95078 eV
Electronic Energy  :      -1210.69411371612614 Eh          -32944.66171 eV
One Electron Energy:      -2064.99293267133135 Eh          -56191.31441 eV
Two Electron Energy:        854.29881895520532 Eh           23246.65270 eV

Virial components:
Potential Energy   :      -1067.26417966348663 Eh          -29041.73478 eV
Kinetic Energy     :        532.46186134839161 Eh           14489.02386 eV
Virial Ratio       :          2.00439553916740

DFT components:
N(Alpha)           :       43.999980036525 electrons
N(Beta)            :       43.999980036525 electrons
N(Total)           :       87.999960073051 electrons
E(X)               :      -72.741821889965 Eh       
E(C)               :       -2.854679709455 Eh       
E(XC)              :      -75.596501599420 Eh       

---------------
SCF CONVERGENCE
---------------

  Last Energy change         ...    5.0669e-07  Tolerance :   1.0000e-07
  Last MAX-Density change    ...    5.3136e-05  Tolerance :   1.0000e-07
  Last RMS-Density change    ...    1.8916e-06  Tolerance :   5.0000e-09
  Last DIIS Error            ...    3.2792e-03  Tolerance :   1.0000e-07
  Last Orbital Gradient      ...    2.2195e-05  Tolerance :   1.0000e-04
  Last Orbital Rotation      ...    6.4235e-05  Tolerance :   1.0000e-04


----------------
ORBITAL ENERGIES
----------------

  NO   OCC          E(Eh)            E(eV) 
   0   2.0000     -18.905148      -514.4352 
   1   2.0000     -14.199453      -386.3868 
   2   2.0000     -14.194659      -386.2563 
   3   2.0000     -10.154131      -276.3080 
   4   2.0000     -10.085255      -274.4337 
   5   2.0000     -10.081853      -274.3412 
   6   2.0000     -10.062344      -273.8103 
   7   2.0000     -10.035346      -273.0757 
   8   2.0000     -10.034472      -273.0519 
   9   2.0000     -10.029997      -272.9301 
  10   2.0000     -10.025433      -272.8059 
  11   2.0000     -10.021801      -272.7071 
  12   2.0000      -1.012448       -27.5501 
  13   2.0000      -0.914458       -24.8837 
  14   2.0000      -0.897565       -24.4240 
  15   2.0000      -0.811365       -22.0784 
  16   2.0000      -0.717518       -19.5247 
  17   2.0000      -0.711384       -19.3577 
  18   2.0000      -0.700641       -19.0654 
  19   2.0000      -0.660972       -17.9860 
  20   2.0000      -0.591435       -16.0938 
  21   2.0000      -0.578392       -15.7388 
  22   2.0000      -0.531388       -14.4598 
  23   2.0000      -0.518239       -14.1020 
  24   2.0000      -0.491772       -13.3818 
  25   2.0000      -0.459490       -12.5034 
  26   2.0000      -0.453983       -12.3535 
  27   2.0000      -0.433663       -11.8006 
  28   2.0000      -0.413918       -11.2633 
  29   2.0000      -0.398292       -10.8381 
  30   2.0000      -0.391403       -10.6506 
  31   2.0000      -0.389996       -10.6123 
  32   2.0000      -0.385955       -10.5024 
  33   2.0000      -0.382081       -10.3970 
  34   2.0000      -0.377064       -10.2604 
  35   2.0000      -0.352478        -9.5914 
  36   2.0000      -0.341551        -9.2941 
  37   2.0000      -0.325719        -8.8633 
  38   2.0000      -0.309108        -8.4113 
  39   2.0000      -0.282762        -7.6943 
  40   2.0000      -0.232324        -6.3219 
  41   2.0000      -0.227583        -6.1928 
  42   2.0000      -0.217872        -5.9286 
  43   2.0000      -0.194420        -5.2904 
  44   0.0000      -0.028639        -0.7793 
  45   0.0000      -0.024757        -0.6737 
  46   0.0000       0.041389         1.1263 
  47   0.0000       0.047234         1.2853 
  48   0.0000       0.075350         2.0504 
  49   0.0000       0.091121         2.4795 
  50   0.0000       0.093473         2.5435 
  51   0.0000       0.106423         2.8959 
  52   0.0000       0.118180         3.2158 
  53   0.0000       0.131148         3.5687 
  54   0.0000       0.134022         3.6469 
*Only the first 10 virtual orbitals were printed.
Total SCF time: 0 days 0 hours 0 min 33 sec 
Finished LeanSCF after  34.6 sec

Maximum memory used throughout the entire LEANSCF-calculation: 36.2 MB


-------------------------------------------------------------------------------
                          DFT DISPERSION CORRECTION                            
                                                                               
                                DFTD4 V3.4.0                                   
-------------------------------------------------------------------------------
-------------------------   ----------------
Dispersion correction           -0.008469133
-------------------------   ----------------

------------------   -----------------
gCP correction             0.019516140
------------------   -----------------

-------------------------   --------------------
FINAL SINGLE POINT ENERGY      -534.791271308437
-------------------------   --------------------

------------------------------------------------------------------------------
                         ORCA SCF GRADIENT CALCULATION
------------------------------------------------------------------------------

Nuc. rep. gradient        (SHARK) ... done (  0.0 sec)
HCore & Overlap gradient  (SHARK) ... done (  0.9 sec)
Split-RIJ-J gradient      (SHARK) ... done (  5.3 sec)
XC gradient                       ... done ( 12.3 sec)
Dispersion correction             ... done (  0.0 sec)

-------------------
DISPERSION GRADIENT
-------------------

   1   C   :   -0.000074470   -0.000079057    0.000000034
   2   N   :   -0.000088968   -0.000006680   -0.000000090
   3   C   :   -0.000091928    0.000035860    0.000000084
   4   C   :   -0.000071054    0.000034321   -0.000000062
   5   O   :   -0.000034706    0.000102363   -0.000000092
   6   N   :   -0.000021935   -0.000046568    0.000000026
   7   C   :    0.000054807   -0.000002339    0.000000025
   8   C   :    0.000053329    0.000071803    0.000000047
   9   C   :    0.000086939    0.000067301    0.000000022
  10   C   :    0.000094320    0.000009310   -0.000000016
  11   C   :    0.000089059   -0.000053284   -0.000000024
  12   C   :    0.000073966   -0.000078198    0.000000006
  13   H   :   -0.000030311   -0.000036561   -0.000012720
  14   H   :   -0.000024684   -0.000023844   -0.000000052
  15   H   :   -0.000030254   -0.000036489    0.000012735
  16   H   :   -0.000032912    0.000012282   -0.000008761
[...]
  21   2.0000      -0.577894       -15.7253 
  22   2.0000      -0.530783       -14.4433 
  23   2.0000      -0.517496       -14.0818 
  24   2.0000      -0.491154       -13.3650 
  25   2.0000      -0.459332       -12.4991 
  26   2.0000      -0.453180       -12.3317 
  27   2.0000      -0.433601       -11.7989 
  28   2.0000      -0.413741       -11.2585 
  29   2.0000      -0.398212       -10.8359 
  30   2.0000      -0.390556       -10.6276 
  31   2.0000      -0.389475       -10.5982 
  32   2.0000      -0.385700       -10.4954 
  33   2.0000      -0.382060       -10.3964 
  34   2.0000      -0.377133       -10.2623 
  35   2.0000      -0.353149        -9.6097 
  36   2.0000      -0.341332        -9.2881 
  37   2.0000      -0.326172        -8.8756 
  38   2.0000      -0.309069        -8.4102 
  39   2.0000      -0.282514        -7.6876 
  40   2.0000      -0.232220        -6.3190 
  41   2.0000      -0.228492        -6.2176 
  42   2.0000      -0.218065        -5.9339 
  43   2.0000      -0.194472        -5.2918 
  44   0.0000      -0.029086        -0.7915 
  45   0.0000      -0.025398        -0.6911 
  46   0.0000       0.040435         1.1003 
  47   0.0000       0.047357         1.2886 
  48   0.0000       0.074358         2.0234 
  49   0.0000       0.090629         2.4661 
  50   0.0000       0.092807         2.5254 
  51   0.0000       0.106192         2.8896 
  52   0.0000       0.117511         3.1976 
  53   0.0000       0.129969         3.5366 
  54   0.0000       0.133596         3.6353 
*Only the first 10 virtual orbitals were printed.
Total SCF time: 0 days 0 hours 0 min 7 sec 
Finished LeanSCF after  12.3 sec

Maximum memory used throughout the entire LEANSCF-calculation: 36.2 MB


-------------------------------------------------------------------------------
                          DFT DISPERSION CORRECTION                            
                                                                               
                                DFTD4 V3.4.0                                   
-------------------------------------------------------------------------------
-------------------------   ----------------
Dispersion correction           -0.008449505
-------------------------   ----------------

------------------   -----------------
gCP correction             0.019337628
------------------   -----------------

-------------------------   --------------------
FINAL SINGLE POINT ENERGY      -534.791434634062
-------------------------   --------------------

------------------------------------------------------------------------------
                         ORCA SCF GRADIENT CALCULATION
------------------------------------------------------------------------------

Nuc. rep. gradient        (SHARK) ... done (  0.0 sec)
HCore & Overlap gradient  (SHARK) ... done (  0.5 sec)
Split-RIJ-J gradient      (SHARK) ... done (  3.0 sec)
XC gradient                       ... done ( 10.4 sec)
Dispersion correction             ... done (  0.0 sec)

-------------------
DISPERSION GRADIENT
-------------------

   1   C   :   -0.000073607   -0.000079755    0.000000038
   2   N   :   -0.000088492   -0.000006625   -0.000000125
   3   C   :   -0.000092117    0.000035786    0.000000095
   4   C   :   -0.000070682    0.000034682   -0.000000058
   5   O   :   -0.000034664    0.000102491   -0.000000054
   6   N   :   -0.000021969   -0.000045735    0.000000027
   7   C   :    0.000054357   -0.000001275    0.000000023
   8   C   :    0.000053337    0.000072251    0.000000035
   9   C   :    0.000086692    0.000066718    0.000000014
  10   C   :    0.000093879    0.000008705   -0.000000011
  11   C   :    0.000088525   -0.000053695   -0.000000019
  12   C   :    0.000073656   -0.000077782    0.000000004
  13   H   :   -0.000030217   -0.000036573   -0.000012677
  14   H   :   -0.000024318   -0.000024082   -0.000000056
  15   H   :   -0.000030162   -0.000036494    0.000012684
  16   H   :   -0.000032854    0.000012150   -0.000008610
  17   H   :   -0.000028982    0.000025092   -0.000000013
  18   H   :   -0.000032860    0.000012179    0.000008684
  19   H   :   -0.000009056   -0.000016890    0.000000021
  20   H   :    0.000002992    0.000046388    0.000000017
  21   H   :    0.000026548    0.000037641    0.000000004
  22   H   :    0.000037887    0.000005092   -0.000000007
  23   H   :    0.000029768   -0.000030206   -0.000000013
  24   H   :    0.000022339   -0.000050066   -0.000000005

Difference to translation invariance:
           :   -0.0000000000    0.0000000000    0.0000000000

Difference to rotation invariance:
           :   -0.0000000000    0.0000000000    0.0000000000

Norm of the Dispersion gradient    ...    0.0003534767
RMS gradient                       ...    0.0000416576
MAX gradient                       ...    0.0001024906
gCP correction                   ... done

------------------
CARTESIAN GRADIENT
------------------

   1   C   :    0.000087384   -0.000137745   -0.000004236
   2   N   :    0.000209991   -0.000006035    0.000021718
   3   C   :   -0.000191371    0.000032968   -0.000003248
   4   C   :   -0.000371683    0.000244632   -0.000018688
   5   O   :    0.000082802   -0.000376057    0.000005161
   6   N   :    0.000126970   -0.000104585    0.000000044
   7   C   :   -0.000099072    0.000301558    0.000004365
   8   C   :    0.000007020   -0.000086352    0.000000075
   9   C   :    0.000111960   -0.000154792   -0.000001134
  10   C   :    0.000003187    0.000136784    0.000002090
  11   C   :    0.000055793    0.000032841   -0.000000278
  12   C   :   -0.000089411    0.000019262   -0.000002727
  13   H   :   -0.000035066    0.000065182    0.000063264
  14   H   :    0.000003730    0.000000849    0.000002919
  15   H   :   -0.000033246    0.000063605   -0.000065080
  16   H   :    0.000028045   -0.000002045    0.000037099
  17   H   :   -0.000006521    0.000022731    0.000000765
  18   H   :    0.000024905   -0.000006050   -0.000042226
  19   H   :    0.000009021    0.000021478    0.000002492
  20   H   :    0.000080916    0.000032497   -0.000000368
  21   H   :   -0.000015121   -0.000060812    0.000000205
  22   H   :   -0.000049586   -0.000003964    0.000000017
  23   H   :   -0.000015416   -0.000041598   -0.000000987
  24   H   :    0.000074768    0.000005648   -0.000001243

Difference to translation invariance:
           :   -0.0000000000    0.0000000000   -0.0000000000

Difference to rotation invariance:
           :    0.0000112630    0.0000035224    0.0003240828

Norm of the Cartesian gradient     ...    0.0008395963
RMS gradient                       ...    0.0000989474
MAX gradient                       ...    0.0003760574

-------
TIMINGS
-------

Total SCF gradient time     ....       13.968 sec

Densities                   ....       0.001 sec  (  0.0%)
One electron gradient       ....       0.515 sec  (  3.7%)
RI-J Coulomb gradient       ....       2.981 sec  ( 21.3%)
XC gradient                 ....      10.436 sec  ( 74.7%)

Maximum memory used throughout the entire SCFGRAD-calculation: 44.1 MB

------------------------------------------------------------------------------
                              ORCA PROPERTY CALCULATIONS
------------------------------------------------------------------------------

GBWName                                 ... xtb_opt.gbw
Number of atoms                         ...     24
Number of basis functions               ...    303
Max core memory                         ...   1024 MB

Electric properties:
Dipole moment                           ... YES
Quadrupole moment                       ...  NO
Static polarizability (Dipole/Dipole)   ...  NO
Static polarizability (Dipole/Quad.)    ...  NO
Static polarizability (Quad./Quad.)     ...  NO
Static polarizability (Velocity)        ...  NO

Atomic electric properties:
Dipole moment                           ...  NO
Quadrupole moment                       ...  NO
Static polarizability                   ...  NO

Choice of electric origin               ... Center of mass
Position of electric origin             ...     0.002988     0.010694    -0.000098

General magnetic properties:
Magnetizability                         ...  NO

EPR properties:
g-Tensor (aka g-matrix)                 ...  NO
Zero-Field splitting spin-orbit         ...  NO
Zero-field splitting spin-spin          ...  NO
Hyperfine couplings                     ...  NO (   0 nuclei)
Quadrupole couplings                    ...  NO (   0 nuclei)
Contact density                         ...  NO (   0 nuclei)

NMR properties:
Chemical shifts                         ...  NO (   0 nuclei)
Spin-rotation constants                 ...  NO (   0 nuclei)
Spin-spin couplings                     ...  NO (   0 nuclei,    0 pairs)

Choice of magnetic origin               ... GIAO
Position of magnetic origin             ...     0.000000     0.000000     0.000000

Properties with geometric perturbations:
SCF Hessian                             ...  NO
IR spectrum                             ...  NO
VCD spectrum                            ...  NO
X-ray spectroscopy properties:
SCF XES/XAS/RIXS spectra                ...  NO


-------------
DIPOLE MOMENT
-------------

Method             : SCF
Type of density    : Electron Density
Multiplicity       :   1
Irrep              :   0
Energy             :  -534.8023227571251255 Eh
Relativity type    : 
Basis              : AO
                                X                 Y                 Z
Electronic contribution:      6.468302097       3.142652259      -0.008025351
Nuclear contribution   :     -7.336001036      -4.623259101       0.009624561
                        -----------------------------------------
Total Dipole Moment    :     -0.867698939      -1.480606842       0.001599210
                        -----------------------------------------
Magnitude (a.u.)       :      1.716129548
Magnitude (Debye)      :      4.362054653



--------------------
Rotational spectrum 
--------------------
 
Rotational constants in cm-1:             0.086807             0.015988             0.013572 
Rotational constants in MHz :          2602.410130           479.318554           406.868252 

Dipole components along the rotational axes: 
x,y,z [a.u.] :    -0.866259    -1.481450     0.001754 
x,y,z [Debye]:    -2.201856    -3.765545     0.004459 

 

Dipole moment calculation done in   0.6 sec 

Maximum memory used throughout the entire PROP-calculation: 23.1 MB

--------------------------------
SUGGESTED CITATIONS FOR THIS RUN
--------------------------------

Below you find a list of papers that are relevant to this ORCA run
We neither can nor want to force you to cite these papers, but we appreciate if you do
You receive ORCA, which is the product of decades of hard work by many enthusiastic individuals, for free
The only thing we kindly ask in return is that you cite our papers,
We deeply appreciate it, if you show your appreciation for ORCA by not just citing the generic ORCA reference.

Please note that relegating all ORCA citations to the supporting information does *not* help us.
SI sections are not indexed - citations you put there will not count into any citation statistics
But we need these citations in order to attract the funding resources that allow us to do what we are doing

Therefore, if you are a happy ORCA user, please consider citing a few of the papers listed below in the main body of your paper

In addition to the list printed below, the program has created the file xtb_opt.bibtex that contains the list in bibtex format
You can import this file easily into all common literature databanks and citation aid programs


List of essential papers. We consider these as the minimum necessary citations

  1. Neese,F.
     Software update: the ORCA program system, version 5.0
     WIRES Comput. Molec. Sci., 2022 12(1)e1606
     doi.org/10.1002/wcms.1606
  2. Grimme,S.; Hansen,A.; Ehlert,S.; Mewes,J.
     r2SCAN-3c: A 'Swiss army knife' composite electronic-structure method
     J. Chem. Phys., 2021 154 064103
     doi.org/10.1063/5.0040021

List of papers to cite with high priority. The work reported in these papers was absolutely
necessary for this run to complete.
Our perspective: the developers of density functionals and basis sets usually get cited in chemistry papers
Good! But without the algorithms to do something with them, the functionals or basis sets would not do anything.
Hence, in our opinion, the algorithm design and method developments papers are equally worthy of getting cited

  1. Neese,F.
     An improvement of the resolution of the identity approximation for the formation of the Coulomb matrix
     J. Comp. Chem., 2003 24(14)1740-1747
     doi.org/10.1002/jcc.10318
  2. Neese,F.
     The SHARK Integral Generation and Digestion System
     J. Comp. Chem., 2022  1-16
     doi.org/10.1002/jcc.26942
  3. Lehtola,S.; Steigemann,C.; Oliveira,M.; Marques,M.
     Recent developments in Libxc - A comprehensive library of functionals for density functional theory
     Software X, 2018 7 
     doi.org/10.1016/j.softx.2017.11.002
  4. Caldeweyher,E.; Bannwarth,C.; Grimme,S.
     Extension of the D3 dispersion coefficient model
     J. Chem. Phys., 2017 147 034112
     doi.org/10.1063/1.4993215
  5. Caldeweyher,E.; Ehlert,S.; Hansen,A.; Neugebauer,H.; Spicher,S.; Bannwarth,C.; Grimme,S.
     A generally applicable atomic-charge dependent London dispersion correction
     J. Chem. Phys., 2019 150 154122
     doi.org/10.1063/1.5090222
  6. Caldeweyher,E.; Mewes,J.; Ehlert,S.; Grimme,S.
     Extension and evaluation of the D4 London-dispersion model for periodic systems
     Phys. Chem. Chem. Phys., 2020 22(16)8499-8512
     doi.org/10.1039/D0CP00502A
  7. Wittmann,L.; Gordiy,I.; Friede,M.; Helmich-Paris,B.; Grimme,S.; Hansen,A.; Bursch,M.
     Extension of the D3 and D4 London Dispersion Corrections to the full Actinides Series
     Phys. Chem. Chem. Phys., 2024 26(32)21379-21394
     doi.org/https://doi.org/10.1039/D4CP01514B 

List of suggested additional citations. These are papers that are important in the 'surrounding' of 
of this run, or papers that preceded the highly important papers. If you like your results we are grateful for a citation.

  1. Neese,F.
     The ORCA program system
     WIRES Comput. Molec. Sci., 2012 2(1)73-78
     doi.org/10.1002/wcms.81
  2. Neese,F.
     Software update: the ORCA program system, version 4.0
     WIRES Comput. Molec. Sci., 2018 8(1)1-6
     doi.org/10.1002/wcms.1327
  3. Neese,F.; Wennmohs,F.; Becker,U.; Riplinger,C.
     The ORCA quantum chemistry program package
     J. Chem. Phys., 2020 152 Art. No. L224108
     doi.org/10.1063/5.0004608

List of optional additional citations

  1. Neese,F.
     Approximate second-order SCF convergence for spin unrestricted wavefunctions
     Chem. Phys. Lett., 2000 325(1-3)93-98
     doi.org/10.1016/s0009-2614(00)00662-x

Timings for individual modules:

Sum of individual times          ...       29.096 sec (=   0.485 min)
Startup calculation              ...        1.253 sec (=   0.021 min)   4.3 %
SCF iterations                   ...       12.434 sec (=   0.207 min)  42.7 %
Property calculations            ...        0.710 sec (=   0.012 min)   2.4 %
SCF Gradient evaluation          ...       14.699 sec (=   0.245 min)  50.5 %
                             ****ORCA TERMINATED NORMALLY****
TOTAL RUN TIME: 0 days 0 hours 0 minutes 33 seconds 111 msec
  ------------------------------------------------------------------------
          * successful ORCA run, taking over control again...

         :::::::::::::::::::::::::::::::::::::::::::::::::::::
         ::                  ORCA SUMMARY                   ::
         :::::::::::::::::::::::::::::::::::::::::::::::::::::
         :: total energy            -534.791434634062 Eh    ::
         :: gradient norm              0.000839596300 Eh/a0 ::
         :: HOMO-LUMO gap              0.000000000000 eV    ::
         :::::::::::::::::::::::::::::::::::::::::::::::::::::

           -------------------------------------------------
          |                Property Printout                |
           -------------------------------------------------
           -------------------------------------------------
          |                Geometry Summary                 |
           -------------------------------------------------

      molecular mass/u    :      164.2047234
   center of mass at/Å    :        0.0015767       0.0056676      -0.0000518
  moments of inertia/u·Å² :        0.1941930E+03   0.1054344E+04   0.1242091E+04
rotational constants/cm⁻¹ :        0.8680867E-01   0.1598874E-01   0.1357198E-01

 * 24 selected distances

     #   Z          #   Z                                           value/Å
     1   6 C        2   7 N                                       1.4540159
     2   7 N        3   6 C                                       1.4553468 (max)
     2   7 N        4   6 C                                       1.3816740
     4   6 C        5   8 O                                       1.2251746
     4   6 C        6   7 N                                       1.3900904
     6   7 N        7   6 C                                       1.4036133
     7   6 C        8   6 C                                       1.3999915
     8   6 C        9   6 C                                       1.3914161
     9   6 C       10   6 C                                       1.3904601
    10   6 C       11   6 C                                       1.3921048
     7   6 C       12   6 C                                       1.4032399
    11   6 C       12   6 C                                       1.3868160
     1   6 C       13   1 H                                       1.0997992
     1   6 C       14   1 H                                       1.0917258
     1   6 C       15   1 H                                       1.0999090
     3   6 C       16   1 H                                       1.0977074
     3   6 C       17   1 H                                       1.0897108
     3   6 C       18   1 H                                       1.0977927
     6   7 N       19   1 H                                       1.0054378 (min)
     8   6 C       20   1 H                                       1.0796632
     9   6 C       21   1 H                                       1.0855521
    10   6 C       22   1 H                                       1.0844631
    11   6 C       23   1 H                                       1.0854682
    12   6 C       24   1 H                                       1.0876086

 * 5 distinct bonds (by element types)

   Z      Z             #   av. dist./Å        max./Å        min./Å
   1 H    6 C          11     1.0908546     1.0999090     1.0796632
   6 C    6 C           6     1.3940047     1.4032399     1.3868160
   1 H    7 N           1     1.0054378     1.0054378     1.0054378
   6 C    7 N           5     1.4169481     1.4553468     1.3816740
   6 C    8 O           1     1.2251746     1.2251746     1.2251746


optimized geometry written to: xtbopt.coord


           -------------------------------------------------
          | TOTAL ENERGY             -534.791434634062 Eh   |
          | GRADIENT NORM               0.000839596300 Eh/α |
           -------------------------------------------------

------------------------------------------------------------------------
 * finished run on 2025/04/15 at 20:13:17.196     
------------------------------------------------------------------------
 total:
 * wall-time:     0 d,  0 h,  5 min,  2.669 sec
 *  cpu-time:     0 d,  0 h,  0 min,  2.288 sec
 * ratio c/w:     0.008 speedup
 SCF:
 * wall-time:     0 d,  0 h,  0 min, 39.137 sec
 *  cpu-time:     0 d,  0 h,  0 min,  0.773 sec
 * ratio c/w:     0.020 speedup
 ANC optimizer:
 * wall-time:     0 d,  0 h,  4 min, 23.500 sec
 *  cpu-time:     0 d,  0 h,  0 min,  1.376 sec
 * ratio c/w:     0.005 speedup

