
                                 *****************
                                 * O   R   C   A *
                                 *****************

                                            #,                                       
                                            ###                                      
                                            ####                                     
                                            #####                                    
                                            ######                                   
                                           ########,                                 
                                     ,,################,,,,,                         
                               ,,#################################,,                 
                          ,,##########################################,,             
                       ,#########################################, ''#####,          
                    ,#############################################,,   '####,        
                  ,##################################################,,,,####,       
                ,###########''''           ''''###############################       
              ,#####''   ,,,,##########,,,,          '''####'''          '####       
            ,##' ,,,,###########################,,,                        '##       
           ' ,,###''''                  '''############,,,                           
         ,,##''                                '''############,,,,        ,,,,,,###''
      ,#''                                            '''#######################'''  
     '                                                          ''''####''''         
             ,#######,   #######,   ,#######,      ##                                
            ,#'     '#,  ##    ##  ,#'     '#,    #''#        ,####,   ,####,        
            ##       ##  ##   ,#'  ##            #'  '#       #'       #'  '#        
            ##       ##  #######   ##           ,######,      #####,   #    #        
            '#,     ,#'  ##    ##  '#,     ,#' ,#      #,     #,   #   #,  ,#        
             '#######'   ##     ##  '#######'  #'      '#     '####' # '####'        



                #########################################################
                #                        -***-                          #
                #          Department of theory and spectroscopy        #
                #                                                       #
                #                      Frank Neese                      #
                #                                                       #
                #     Directorship, Architecture, Infrastructure        #
                #                    SHARK, DRIVERS                     #
                #        Core code/Algorithms in most modules           #
                #                                                       #
                #        Max Planck Institute fuer Kohlenforschung      #
                #                Kaiser Wilhelm Platz 1                 #
                #                 D-45470 Muelheim/Ruhr                 #
                #                      Germany                          #
                #                                                       #
                #                  All rights reserved                  #
                #                        -***-                          #
                #########################################################


                         Program Version 6.0.1  -  RELEASE   -


 With contributions from (in alphabetic order):
[Max-Planck-Institut fuer Kohlenforschung]                               
  Daniel Aravena         : Magnetic Suceptibility                        
  Michael Atanasov       : Ab Initio Ligand Field Theory (pilot matlab implementation)
  Alexander A. Auer      : GIAO ZORA, VPT2 properties, NMR spectrum      
  Ute Becker             : All parallelization in ORCA, NUMFREQ, NUMCALC 
  Giovanni Bistoni       : ED, misc. LED, open-shell LED, HFLD           
  Martin Brehm           : Molecular dynamics                            
  Dmytro Bykov           : pre 5.0 version of the SCF Hessian            
  Marcos Casanova-Páez   : Triplet and SCS-CIS(D). UHF-(DLPNO)-IP/EA/STEOM-CCSD. UHF-CVS-IP/STEOM-CCSD   
  Vijay G. Chilkuri      : MRCI spin determinant printing, contributions to CSF-ICE 
  Pauline Colinet        : FMM embedding                                 
  Dipayan Datta          : RHF DLPNO-CCSD density                        
  Achintya Kumar Dutta   : EOM-CC, STEOM-CC                              
  Nicolas Foglia         : Exact transition moments, OPA infrastructure, MCD improvements    
  Dmitry Ganyushin       : Spin-Orbit,Spin-Spin,Magnetic field MRCI      
  Miquel Garcia-Rates    : C-PCM and meta-GGA Hessian, CCSD/C-PCM, Gaussian charge scheme 
  Tiago L. C. Gouveia    : GS-ROHF, GS-ROCIS                             
  Yang Guo               : DLPNO-NEVPT2, F12-NEVPT2, CIM, IAO-localization        
  Andreas Hansen         : Spin unrestricted coupled pair/coupled cluster methods 
  Ingolf Harden          : AUTO-CI MPn and infrastructure                
  Benjamin Helmich-Paris : MC-RPA, TRAH-(SCF,CASSCF), AVAS, COSX integrals, SCF dyn. polar. 
  Lee Huntington         : MR-EOM, pCC                                   
  Robert Izsak           : Overlap fitted RIJCOSX, COSX-SCS-MP3, EOM     
  Riya Kayal             : Wick's Theorem for AUTO-CI, AUTO-CI UHF-CCSDT 
  Emily Kempfer          : AUTO-CI, RHF CISDT and CCSDT                  
  Christian Kollmar      : KDIIS, OOCD, Brueckner-CCSD(T), CCSD density, CASPT2, CASPT2-K, improved NEVPT2 
  Axel Koslowski         : Symmetry handling                             
  Simone Kossmann        : meta-GGA functionals, TD-DFT gradient, OOMP2, (MP2 Hessian; deprecated post 5.0) 
  Lucas Lang             : DCDCAS                                        
  Marvin Lechner         : AUTO-CI (C++ implementation), FIC-MRCC        
  Spencer Leger          : CASSCF response                               
  Dagmar Lenk            : GEPOL surface, SMD, ORCA-2-JSON               
  Dimitrios Liakos       : Extrapolation schemes; Compound Job, initial MDCI parallelization 
  Dimitrios Manganas     : Further ROCIS development; embedding schemes. LFT, Crystal Embedding 
  Dimitrios Pantazis     : SARC Basis sets                               
  Anastasios Papadopoulos: AUTO-CI, single reference methods and gradients 
  Taras Petrenko         : pre 6.0 DFT Hessian and TD-DFT gradient, (ASA, deprecated), ECA, 1-Electron XAS/XES, NRVS 
  Peter Pinski           : DLPNO-MP2, DLPNO-MP2 Gradient                 
  Christoph Reimann      : Effective Core Potentials                     
  Marius Retegan         : Local ZFS, SOC                                
  Christoph Riplinger    : Optimizer, TS searches, QM/MM, DLPNO-CCSD(T), (RO)-DLPNO pert. Triples 
  Michael Roemelt        : Original ROCIS implementation                 
  Masaaki Saitow         : Open-shell DLPNO-CCSD energy and density      
  Barbara Sandhoefer     : DKH picture change effects                    
  Kantharuban Sivalingam : CASSCF convergence/infrastructure, NEVPT2 and variants, FIC-MRCI 
  Bernardo de Souza      : ESD, SOC TD-DFT                               
  Georgi L. Stoychev     : AutoAux, RI-MP2 NMR, DLPNO-MP2 response, X2C  
  Van Anh Tran           : RI-MP2 g-tensors                              
  Willem Van den Heuvel  : Paramagnetic NMR                              
  Zikuan Wang            : NOTCH, Electric field optimization            
  Frank Wennmohs         : Technical directorship and infrastructure     
  Hang Xu                : AUTO-CI-Response properties                   
                                                                         
[FACCTs GmbH]                                                            
  Markus Bursch, Miquel Garcia-Rates, Christoph Riplinger, Bernardo de Souza, Georgi L. Stoychev 
                                                                 
  APM, Basis sets (HGBS, AHGBS, def-TZVP (Ac-Lr), def2-XVPD (La-Lu)), CI-OPT, improved COSX, DLPNO-Multilevel,           
  DOCKER, DRACO, updates on ESD, GOAT, IRC, LR-CPCM, MBIS, meta-GGA TD-DFT gradient, ML-optimized integration grids, 
  MM, NACMEs, nearIR, NEB, NEB-TS, NL-DFT gradient (VV10), 2- and 3-layer-ONIOM, interface openCOSMO-RS, QMMM,   
  Crystal-QMMM, SF, symmetry and pop. for TD-DFT, r2SCAN hybrids, SOLVATOR                                   
                                                                         
[Other institutions]                                                     
  V. Asgeirsson          : NEB                                           
  Christoph Bannwarth    : sTDA-DFT, sTD-DFT, PBEh-3c, B97-3c, D3        
  Sebastian Ehlert       : rSCAN, r2SCAN, r2SCAN-3c, D4, dhf basis sets  
  Marvin Friede          : D4 for Fr, Ra, Ac-Lr                          
  Lars Goerigk           : TD-DFT with DH, B97 family of functionals     
  Stefan Grimme          : VdW corrections, initial TS optimization, DFT functionals, gCP, sTDA/sTD-DF 
  Waldemar Hujo          : DFT-NL                                        
  H. Jonsson             : NEB                                           
  Holger Kruse           : gCP                                           
  Marcel Mueller         : wB97X-3c, vDZP basis set                      
  Hagen Neugebauer       : wr2SCAN                                       
  Tobias Risthaus        : range-separated hybrid DFT                    
  Lukas Wittmann         : regularized MP2, r2SCAN double-hybrids, wr2SCAN        
                                                                         
We gratefully acknowledge several colleagues who have allowed us to      
interface, adapt or use parts of their codes:                            
  Ed Valeev, F. Pavosevic, A. Kumar             : LibInt (2-el integral package), F12 methods 
  Garnet Chan, S. Sharma, J. Yang, R. Olivares  : DMRG                   
  Ulf Ekstrom                                   : XCFun DFT Library      
  Mihaly Kallay                                 : mrcc  (arbitrary order and MRCC methods)
  Frank Weinhold                                : gennbo (NPA and NBO analysis)           
  Simon Mueller                                 : openCOSMO-RS                            
  Christopher J. Cramer and Donald G. Truhlar   : smd solvation model                     
  S Lehtola, MJT Oliveira, MAL Marques          : LibXC Library                           
  Liviu Ungur et al                             : ANISO software                          


 Your calculation uses the libint2 library for the computation of 2-el integrals
 For citations please refer to: http://libint.valeyev.net

 Your ORCA version has been built with support for libXC version: 6.2.2
 For citations please refer to: https://libxc.gitlab.io

 This ORCA versions uses:
   CBLAS   interface :  Fast vector & matrix operations
   LAPACKE interface :  Fast linear algebra routines
   SCALAPACK package :  Parallel linear algebra routines
   Shared memory     :  Shared parallel matrices
   BLAS/LAPACK       :  OpenBLAS 0.3.27  USE64BITINT DYNAMIC_ARCH NO_AFFINITY Zen SINGLE_THREADED
        Core in use  :  Zen
   Copyright (c) 2011-2014, The OpenBLAS Project


Your calculation utilizes the geometrical counterpoise correction gCP
Please cite in your paper:
H.Kruse, S. Grimme J.Chem.Phys., 136, (2012), 154101 
   

Your calculation utilizes the atom-pairwise dispersion correction
based on EEQ partial charges (D4)


================================================================================

----- Orbital basis set information -----
Your calculation utilizes the basis: def2-SV(P)
   F. Weigend and R. Ahlrichs, Phys. Chem. Chem. Phys. 7, 3297 (2005).

----- AuxJ basis set information -----
Your calculation utilizes the auxiliary basis: def2/J
   F. Weigend, Phys. Chem. Chem. Phys. 8, 1057 (2006).

================================================================================
                                        WARNINGS
                       Please study these warnings very carefully!
================================================================================


================================================================================
                                       INPUT FILE
================================================================================
NAME = sp.inp
|  1> ! pbe def2-sv(p) def2/J RI DEFGRID1 loosescf d4 GCP(DFT/SV(P)) printgap
|  2> %output
|  3>     printlevel normal
|  4> end
|  5> * xyz 0 1
|  6> C 1.201568284 -1.2309235018 -0.6763034931
|  7> C 0.671171848 -0.2841957467 0.4066298876
|  8> C 1.5933112991 0.9219457544 0.5629568608
|  9> C -0.7215926658 0.1599374691 -0.0210853214
| 10> O -0.906045892 1.0836885095 -0.7706788974
| 11> C -1.8483664454 -0.6634512973 0.5503493561
| 12> H 0.5561327538 -2.0997392504 -0.7872519465
| 13> H 1.2500394214 -0.7116302414 -1.6306342635
| 14> H 2.200228482 -1.5735981102 -0.4153327956
| 15> H 0.6034678578 -0.8283186639 1.3535885072
| 16> H 1.5939397214 1.5047433294 -0.354643817
| 17> H 2.6092158103 0.5998279652 0.7785448152
| 18> H 1.2501876561 1.5610942366 1.3735065626
| 19> H -2.7852917181 -0.4193428647 0.0568386919
| 20> H -1.9382044376 -0.4420849443 1.6127651074
| 21> H -1.6357510774 -1.7243521018 0.4441941464
| 22> *
| 23> 
| 24>                          ****END OF INPUT****
================================================================================

                       ****************************
                       * Single Point Calculation *
                       ****************************

---------------------------------
CARTESIAN COORDINATES (ANGSTROEM)
---------------------------------
  C      1.201568   -1.230924   -0.676303
  C      0.671172   -0.284196    0.406630
  C      1.593311    0.921946    0.562957
  C     -0.721593    0.159937   -0.021085
  O     -0.906046    1.083689   -0.770679
  C     -1.848366   -0.663451    0.550349
  H      0.556133   -2.099739   -0.787252
  H      1.250039   -0.711630   -1.630634
  H      2.200228   -1.573598   -0.415333
  H      0.603468   -0.828319    1.353589
  H      1.593940    1.504743   -0.354644
  H      2.609216    0.599828    0.778545
  H      1.250188    1.561094    1.373507
  H     -2.785292   -0.419343    0.056839
  H     -1.938204   -0.442085    1.612765
  H     -1.635751   -1.724352    0.444194

----------------------------
CARTESIAN COORDINATES (A.U.)
----------------------------
  NO LB      ZA    FRAG     MASS         X           Y           Z
   0 C     6.0000    0    12.011    2.270635   -2.326108   -1.278028
   1 C     6.0000    0    12.011    1.268331   -0.537052    0.768419
   2 C     6.0000    0    12.011    3.010922    1.742225    1.063834
   3 C     6.0000    0    12.011   -1.363613    0.302238   -0.039845
   4 O     8.0000    0    15.999   -1.712179    2.047874   -1.456372
   5 C     6.0000    0    12.011   -3.492906   -1.253741    1.040010
   6 H     1.0000    0     1.008    1.050939   -3.967932   -1.487691
   7 H     1.0000    0     1.008    2.362232   -1.344786   -3.081452
   8 H     1.0000    0     1.008    4.157829   -2.973669   -0.784865
   9 H     1.0000    0     1.008    1.140389   -1.565295    2.557912
  10 H     1.0000    0     1.008    3.012110    2.843553   -0.670180
  11 H     1.0000    0     1.008    4.930703    1.133511    1.471236
  12 H     1.0000    0     1.008    2.362512    2.950041    2.595551
  13 H     1.0000    0     1.008   -5.263439   -0.792443    0.107410
  14 H     1.0000    0     1.008   -3.662676   -0.835419    3.047684
  15 H     1.0000    0     1.008   -3.091122   -3.258553    0.839405

--------------------------------
INTERNAL COORDINATES (ANGSTROEM)
--------------------------------
 C      0   0   0     0.000000000000     0.00000000     0.00000000
 C      1   0   0     1.533087906362     0.00000000     0.00000000
 C      2   1   0     1.526288508278   110.56844179     0.00000000
 C      2   1   3     1.523150552075   107.34103028   120.64273995
 O      4   2   1     1.203839485345   122.59537808   275.24665886
 C      4   2   1     1.508020491133   114.68375780    94.26618305
 H      1   2   3     1.087996961380   111.09529436   179.37419675
 H      1   2   3     1.087548693526   109.90141660   299.53564519
 H      1   2   3     1.087590816100   110.04449415    59.16874958
 H      2   1   3     1.094250522753   109.00359169   238.98671710
 H      3   2   1     1.087034687689   109.72882362    64.16948181
 H      3   2   1     1.087336200114   110.52904623   303.92357423
 H      3   2   1     1.087766259714   110.49175977   183.53154806
 H      6   4   2     1.086724743976   110.45434294   191.09173782
 H      6   4   2     1.088944973676   108.68389191    71.50580932
 H      6   4   2     1.087191216045   110.46777865   313.12998544

---------------------------
INTERNAL COORDINATES (A.U.)
---------------------------
 C      0   0   0     0.000000000000     0.00000000     0.00000000
 C      1   0   0     2.897116282250     0.00000000     0.00000000
 C      2   1   0     2.884267281996   110.56844179     0.00000000
 C      2   1   3     2.878337404153   107.34103028   120.64273995
 O      4   2   1     2.274926936503   122.59537808   275.24665886
 C      4   2   1     2.849745732583   114.68375780    94.26618305
 H      1   2   3     2.056016291546   111.09529436   179.37419675
 H      1   2   3     2.055169188068   109.90141660   299.53564519
 H      1   2   3     2.055248788197   110.04449415    59.16874958
 H      2   1   3     2.067833809904   109.00359169   238.98671710
 H      3   2   1     2.054197857805   109.72882362    64.16948181
 H      3   2   1     2.054767633714   110.52904623   303.92357423
 H      3   2   1     2.055580328579   110.49175977   183.53154806
 H      6   4   2     2.053612149070   110.45434294   191.09173782
 H      6   4   2     2.057807775157   108.68389191    71.50580932
 H      6   4   2     2.054493653529   110.46777865   313.12998544

---------------------
BASIS SET INFORMATION
---------------------
There are 3 groups of distinct atoms

 Group   1 Type C   : 7s4p1d contracted to 3s2p1d pattern {511/31/1}
 Group   2 Type O   : 7s4p1d contracted to 3s2p1d pattern {511/31/1}
 Group   3 Type H   : 4s contracted to 2s pattern {31}

Atom   0C    basis set group =>   1
Atom   1C    basis set group =>   1
Atom   2C    basis set group =>   1
Atom   3C    basis set group =>   1
Atom   4O    basis set group =>   2
Atom   5C    basis set group =>   1
Atom   6H    basis set group =>   3
Atom   7H    basis set group =>   3
Atom   8H    basis set group =>   3
Atom   9H    basis set group =>   3
Atom  10H    basis set group =>   3
Atom  11H    basis set group =>   3
Atom  12H    basis set group =>   3
Atom  13H    basis set group =>   3
Atom  14H    basis set group =>   3
Atom  15H    basis set group =>   3
---------------------------------
AUXILIARY/J BASIS SET INFORMATION
---------------------------------
There are 3 groups of distinct atoms

 Group   1 Type C   : 12s5p4d2f1g contracted to 6s4p3d1f1g pattern {711111/2111/211/2/1}
 Group   2 Type O   : 12s5p4d2f1g contracted to 6s4p3d1f1g pattern {711111/2111/211/2/1}
 Group   3 Type H   : 5s2p1d contracted to 3s1p1d pattern {311/2/1}

Atom   0C    basis set group =>   1
Atom   1C    basis set group =>   1
Atom   2C    basis set group =>   1
Atom   3C    basis set group =>   1
Atom   4O    basis set group =>   2
Atom   5C    basis set group =>   1
Atom   6H    basis set group =>   3
Atom   7H    basis set group =>   3
Atom   8H    basis set group =>   3
Atom   9H    basis set group =>   3
Atom  10H    basis set group =>   3
Atom  11H    basis set group =>   3
Atom  12H    basis set group =>   3
Atom  13H    basis set group =>   3
Atom  14H    basis set group =>   3
Atom  15H    basis set group =>   3
------------------------------------------------------------------------------
                             ORCA STARTUP CALCULATIONS
                           -- RI-GTO INTEGRALS CHOSEN --
------------------------------------------------------------------------------
------------------------------------------------------------------------------
                   ___                                                        
                  /   \      - P O W E R E D   B Y -                         
                 /     \                                                     
                 |  |  |   _    _      __       _____    __    __             
                 |  |  |  | |  | |    /  \     |  _  \  |  |  /  |          
                  \  \/   | |  | |   /    \    | | | |  |  | /  /          
                 / \  \   | |__| |  /  /\  \   | |_| |  |  |/  /          
                |  |  |   |  __  | /  /__\  \  |    /   |      \           
                |  |  |   | |  | | |   __   |  |    \   |  |\   \          
                \     /   | |  | | |  |  |  |  | |\  \  |  | \   \       
                 \___/    |_|  |_| |__|  |__|  |_| \__\ |__|  \__/        
                                                                              
                      - O R C A' S   B I G   F R I E N D -                    
                                      &                                       
                       - I N T E G R A L  F E E D E R -                       
                                                                              
 v1 FN, 2020, v2 2021, v3 2022-2024                                           
------------------------------------------------------------------------------


----------------------
SHARK INTEGRAL PACKAGE
----------------------

Number of atoms                             ...     16
Number of basis functions                   ...    104
Number of shells                            ...     56
Maximum angular momentum                    ...      2
Integral batch strategy                     ... SHARK/LIBINT Hybrid
RI-J (if used) integral strategy            ... SPLIT-RIJ (Revised 2003 algorithm where possible)
Printlevel                                  ...      1
Contraction scheme used                     ... SEGMENTED contraction
Prescreening option                         ... SCHWARTZ
   Thresh                                   ... 1.000e-09
   Tcut                                     ... 1.000e-10
   Tpresel                                  ... 1.000e-10 
Coulomb Range Separation                    ... NOT USED
Exchange Range Separation                   ... NOT USED
Multipole approximations                    ... NOT USED
Finite Nucleus Model                        ... NOT USED
CABS basis                                  ... NOT available
Auxiliary Coulomb fitting basis             ... AVAILABLE
   # of basis functions in Aux-J            ...    404
   # of shells in Aux-J                     ...    140
   Maximum angular momentum in Aux-J        ...      4
Auxiliary J/K fitting basis                 ... NOT available
Auxiliary Correlation fitting basis         ... NOT available
Auxiliary 'external' fitting basis          ... NOT available

Checking pre-screening integrals            ... done (  0.0 sec) Dimension = 56
Check shell pair data                       ... done (  0.0 sec)
Shell pair information
Shell pair cut-off parameter TPreSel        ...   1.0e-10
Total number of shell pairs                 ...      1596
Shell pairs after pre-screening             ...      1565
Total number of primitive shell pairs       ...      6436
Primitive shell pairs kept                  ...      4656
          la=0 lb=0:    719 shell pairs
          la=1 lb=0:    453 shell pairs
          la=1 lb=1:     78 shell pairs
          la=2 lb=0:    222 shell pairs
          la=2 lb=1:     72 shell pairs
          la=2 lb=2:     21 shell pairs

Calculating one electron integrals          ... done (  0.0 sec)
Calculating RI/J V-Matrix + Cholesky decomp.... done (  0.2 sec)
Calculating Nuclear repulsion               ... done (  0.0 sec) ENN=    246.180372935325 Eh

Diagonalization of the overlap matrix:
Smallest eigenvalue                        ... 1.844e-03
Time for diagonalization                   ...    0.001 sec
Threshold for overlap eigenvalues          ... 1.000e-07
Number of eigenvalues below threshold      ... 0
Time for construction of square roots      ...    0.002 sec
Total time needed                          ...    0.005 sec

-------------------
DFT GRID GENERATION
-------------------

General Integration Accuracy     IntAcc      ... 4.159
Radial Grid Type                 RadialGrid  ... OptM3 with GC (2021)
Angular Grid (max. ang.)         AngularGrid ... 3 (Lebedev-194)
Angular grid pruning method      GridPruning ... 4 (adaptive)
Weight generation scheme         WeightScheme... mBecke (2022)
Basis function cutoff            BFCut       ... 1.0000e-10
Integration weight cutoff        WCut        ... 1.0000e-14
Partially contracted basis set               ... off
Rotationally invariant grid construction     ... off
Angular grids for H and He will be reduced by one unit

Total number of grid points                  ...    33719
Total number of batches                      ...      535
Average number of points per batch           ...       63
Average number of grid points per atom       ...     2107
Initializing property integral containers    ... done (  0.0 sec)

SHARK setup successfully completed in   0.6 seconds

Maximum memory used throughout the entire STARTUP-calculation: 17.2 MB
-------------------------------------------------------------------------------
                                 ORCA GUESS
                   Start orbitals & Density for SCF / CASSCF
-------------------------------------------------------------------------------

------------
SCF SETTINGS
------------
Hamiltonian:
 Density Functional     Method          .... DFT(GTOs)
 Exchange Functional    Exchange        .... PBE
   PBE kappa parameter   XKappa         ....  0.804000
   PBE mue parameter    XMuePBE         ....  0.219520
 Correlation Functional Correlation     .... PBE
   PBE beta parameter  CBetaPBE         ....  0.066725
 LDA part of GGA corr.  LDAOpt          .... PW91-LDA
 Gradients option       PostSCFGGA      .... off
   NL short-range parameter             ....  6.400000
 RI-approximation to the Coulomb term is turned on
   Number of AuxJ basis functions       .... 404


General Settings:
 Integral files         IntName         .... sp
 Hartree-Fock type      HFTyp           .... RHF
 Total Charge           Charge          ....    0
 Multiplicity           Mult            ....    1
 Number of Electrons    NEL             ....   48
 Basis Dimension        Dim             ....  104
 Nuclear Repulsion      ENuc            ....    246.1803729353 Eh

Convergence Acceleration:
 AO-DIIS                CNVDIIS         .... on
   Start iteration      DIISMaxIt       ....    12
   Startup error        DIISStart       ....  0.200000
   # of expansion vecs  DIISMaxEq       ....     5
   Bias factor          DIISBfac        ....   1.050
   Max. coefficient     DIISMaxC        ....  10.000
 MO-DIIS                CNVKDIIS        .... off
 Trust-Rad. Augm. Hess. CNVTRAH         .... auto
   Auto Start mean grad. ratio tolernc. ....  1.125000
   Auto Start start iteration           ....    50
   Auto Start num. interpolation iter.  ....    10
   Max. Number of Micro iterations      ....    24
   Max. Number of Macro iterations      .... Maxiter - #DIIS iter
   Number of Davidson start vectors     ....     2
   Converg. threshold    (grad. norm)   ....   1.000e-04
   Grad. Scal. Fac. for Micro threshold ....   0.100
   Minimum threshold for Micro iter.    ....   1.000e-02
   NR start threshold (gradient norm)   ....   1.000e-04
   Initial trust radius                 ....   0.400
   Minimum AH scaling param. (alpha)    ....   1.000
   Maximum AH scaling param. (alpha)    .... 1000.000
   Quad. conv. algorithm                .... NR
   White noise on init. David. guess    .... on
   Maximum white noise                  ....   0.010
   Pseudo random numbers                .... off
   Inactive MOs                         .... canonical
   Orbital update algorithm             .... Taylor
   Preconditioner                       .... Diag
   Full preconditioner red. dimension   ....   250
 SOSCF                  CNVSOSCF        .... on
   Start iteration      SOSCFMaxIt      ....   150
   Startup grad/error   SOSCFStart      ....  0.003300
   Hessian update       SOSCFHessUp     .... L-BFGS
 Level Shifting         CNVShift        .... on
   Level shift para.    LevelShift      ....    0.2500
   Turn off err/grad.   ShiftErr        ....    0.0010
 Zerner damping         CNVZerner       .... off
 Static damping         CNVDamp         .... on
   Fraction old density DampFac         ....    0.7000
   Max. Damping (<1)    DampMax         ....    0.9800
   Min. Damping (>=0)   DampMin         ....    0.0000
   Turn off err/grad.   DampErr         ....    0.1000

SCF Procedure:
 Maximum # iterations   MaxIter         ....   125
 SCF integral mode      SCFMode         .... Direct
   Integral package                     .... SHARK and LIBINT hybrid scheme
 Reset frequency        DirectResetFreq ....    20
 Integral Threshold     Thresh          ....  1.000e-09 Eh
 Primitive CutOff       TCut            ....  1.000e-10 Eh

Convergence Tolerance:
 Convergence Check Mode ConvCheckMode   .... Total+1el-Energy
 Convergence forced     ConvForced      .... 0
 Energy Change          TolE            ....  1.000e-05 Eh
 1-El. energy change                    ....  1.000e-02 Eh
 Orbital Gradient       TolG            ....  1.000e-04
 Orbital Rotation angle TolX            ....  1.000e-04
 DIIS Error             TolErr          ....  5.000e-04

------------------------------
INITIAL GUESS: MODEL POTENTIAL
------------------------------
Loading Hartree-Fock densities                     ... done
Calculating cut-offs                               ... done
Initializing the effective Hamiltonian             ... done
Setting up the integral package (SHARK)            ... done
Starting the Coulomb interaction                   ... done (   0.1 sec)
Making the grid                                    ... done (   0.1 sec)
Mapping shells                                     ... done
Starting the XC term evaluation                    ... done (   0.1 sec)
  promolecular density results
     # of electrons  =     47.995290210
     EX              =    -36.660833311
     EC              =     -1.563423152
     EX+EC           =    -38.224256462
Transforming the Hamiltonian                       ... done (   0.0 sec)
Diagonalizing the Hamiltonian                      ... done (   0.0 sec)
Back transforming the eigenvectors                 ... done (   0.0 sec)
Now organizing SCF variables                       ... done
                      ------------------
                      INITIAL GUESS DONE (   0.3 sec)
                      ------------------
             **** ENERGY FILE WAS UPDATED (sp.en.tmp) ****
Finished Guess after   0.3 sec
Maximum memory used throughout the entire GUESS-calculation: 13.2 MB

-------------------------------------------------------------------------------------------
                                      ORCA LEAN-SCF
                              memory conserving SCF solver
-------------------------------------------------------------------------------------------

----------------------------------------D-I-I-S--------------------------------------------
Iteration    Energy (Eh)           Delta-E    RMSDP     MaxDP     DIISErr   Damp  Time(sec)
-------------------------------------------------------------------------------------------
               ***  Starting incremental Fock matrix formation  ***
    1    -270.9923290099274595     0.00e+00  7.08e-03  1.36e-01  2.18e-01  0.700   1.3
    2    -271.0962608900502460    -1.04e-01  4.61e-03  8.18e-02  7.69e-02  0.700   0.7
                               ***Turning on AO-DIIS***
    3    -271.1288151204717565    -3.26e-02  1.63e-03  1.91e-02  2.78e-02  0.700   0.3
    4    -271.1493041821860857    -2.05e-02  2.13e-03  2.36e-02  1.58e-02  0.000   0.6
    5    -271.1968042335767564    -4.75e-02  8.04e-04  1.18e-02  1.07e-02  0.000   0.5
                              *** Initializing SOSCF ***
---------------------------------------S-O-S-C-F--------------------------------------
Iteration    Energy (Eh)           Delta-E    RMSDP     MaxDP     MaxGrad    Time(sec)
--------------------------------------------------------------------------------------
    6    -271.1975375916054531    -7.33e-04  2.63e-04  3.17e-03  2.20e-03     0.3
               *** Restarting incremental Fock matrix formation ***
    7    -271.1975868614221667    -4.93e-05  2.21e-04  4.19e-03  3.51e-04     0.3
    8    -271.1975860304935964     8.31e-07  9.60e-05  1.91e-03  5.20e-04     0.2
                 **** Energy Check signals convergence ****

               *****************************************************
               *                     SUCCESS                       *
               *           SCF CONVERGED AFTER   8 CYCLES          *
               *****************************************************

             **** ENERGY FILE WAS UPDATED (sp.en.tmp) ****

----------------
TOTAL SCF ENERGY
----------------

Total Energy       :       -271.19758603049360 Eh           -7379.66149 eV

Components:
Nuclear Repulsion  :        246.18037293532512 Eh            6698.90851 eV
Electronic Energy  :       -517.37795896581883 Eh          -14078.57000 eV
One Electron Energy:       -854.16429405180861 Eh          -23242.99209 eV
Two Electron Energy:        336.78633508598983 Eh            9164.42209 eV

Virial components:
Potential Energy   :       -540.10854432065821 Eh          -14697.10068 eV
Kinetic Energy     :        268.91095829016467 Eh            7317.43919 eV
Virial Ratio       :          2.00850328954561

DFT components:
N(Alpha)           :       24.000110985900 electrons
N(Beta)            :       24.000110985900 electrons
N(Total)           :       48.000221971800 electrons
E(X)               :      -37.500485581744 Eh       
E(C)               :       -1.577765306063 Eh       
E(XC)              :      -39.078250887807 Eh       

---------------
SCF CONVERGENCE
---------------

  Last Energy change         ...   -8.3093e-07  Tolerance :   1.0000e-05
  Last MAX-Density change    ...    1.9150e-03  Tolerance :   1.0000e-03
  Last RMS-Density change    ...    9.6044e-05  Tolerance :   1.0000e-04
  Last DIIS Error            ...    2.1954e-03  Tolerance :   5.0000e-04
  Last Orbital Gradient      ...    5.2041e-04  Tolerance :   1.0000e-04
  Last Orbital Rotation      ...    7.4160e-04  Tolerance :   1.0000e-04


----------------
ORBITAL ENERGIES
----------------

  NO   OCC          E(Eh)            E(eV) 
   0   2.0000     -18.739192      -509.9193 
   1   2.0000      -9.970308      -271.3059 
   2   2.0000      -9.902842      -269.4700 
   3   2.0000      -9.887528      -269.0533 
   4   2.0000      -9.885949      -269.0104 
   5   2.0000      -9.875674      -268.7308 
   6   2.0000      -0.941198       -25.6113 
   7   2.0000      -0.729363       -19.8470 
   8   2.0000      -0.666050       -18.1241 
   9   2.0000      -0.617563       -16.8047 
  10   2.0000      -0.552096       -15.0233 
  11   2.0000      -0.459240       -12.4965 
  12   2.0000      -0.430061       -11.7026 
  13   2.0000      -0.407750       -11.0954 
  14   2.0000      -0.406055       -11.0493 
  15   2.0000      -0.373303       -10.1581 
  16   2.0000      -0.361561        -9.8386 
  17   2.0000      -0.356310        -9.6957 
  18   2.0000      -0.345819        -9.4102 
  19   2.0000      -0.319166        -8.6849 
  20   2.0000      -0.313109        -8.5201 
  21   2.0000      -0.299008        -8.1364 
  22   2.0000      -0.297487        -8.0950 
  23   2.0000      -0.195253        -5.3131 
  24   0.0000      -0.046346        -1.2611 
  25   0.0000       0.026786         0.7289 
  26   0.0000       0.065923         1.7939 
  27   0.0000       0.073758         2.0071 
  28   0.0000       0.089936         2.4473 
  29   0.0000       0.102582         2.7914 
  30   0.0000       0.109322         2.9748 
  31   0.0000       0.118292         3.2189 
  32   0.0000       0.126960         3.4548 
  33   0.0000       0.144017         3.9189 
  34   0.0000       0.152077         4.1382 
*Only the first 10 virtual orbitals were printed.

                    ********************************
                    * MULLIKEN POPULATION ANALYSIS *
                    ********************************

-----------------------
MULLIKEN ATOMIC CHARGES
-----------------------
   0 C :   -0.254575
   1 C :   -0.186294
   2 C :   -0.236573
   3 C :    0.010104
   4 O :   -0.158976
   5 C :   -0.253059
   6 H :    0.103226
   7 H :    0.114420
   8 H :    0.112382
   9 H :    0.073173
  10 H :    0.115009
  11 H :    0.096999
  12 H :    0.101867
  13 H :    0.115948
  14 H :    0.127805
  15 H :    0.118544
Sum of atomic charges:   -0.0000000

--------------------------------
MULLIKEN REDUCED ORBITAL CHARGES
--------------------------------
  0 C s       :     3.095612  s :     3.095612
      pz      :     1.043529  p :     3.129602
      px      :     1.051371
      py      :     1.034702
      dz2     :     0.008412  d :     0.029361
      dxz     :     0.002630
      dyz     :     0.006136
      dx2y2   :     0.004481
      dxy     :     0.007702

  1 C s       :     3.101904  s :     3.101904
      pz      :     1.012056  p :     3.043229
      px      :     1.004820
      py      :     1.026352
      dz2     :     0.008434  d :     0.041162
      dxz     :     0.005057
      dyz     :     0.010769
      dx2y2   :     0.009075
      dxy     :     0.007827

  2 C s       :     3.089001  s :     3.089001
      pz      :     1.078282  p :     3.118812
      px      :     1.022048
      py      :     1.018482
      dz2     :     0.004757  d :     0.028760
      dxz     :     0.002471
      dyz     :     0.009659
      dx2y2   :     0.006673
      dxy     :     0.005200

  3 C s       :     3.154588  s :     3.154588
      pz      :     0.848716  p :     2.741682
      px      :     1.012345
      py      :     0.880620
      dz2     :     0.015206  d :     0.093626
      dxz     :     0.019445
      dyz     :     0.014267
      dx2y2   :     0.017547
      dxy     :     0.027161

  4 O s       :     3.745407  s :     3.745407
      pz      :     1.308806  p :     4.395613
      px      :     1.758416
      py      :     1.328391
      dz2     :     0.004164  d :     0.017955
      dxz     :     0.001836
      dyz     :     0.005619
      dx2y2   :     0.003551
      dxy     :     0.002785

  5 C s       :     3.035793  s :     3.035793
      pz      :     1.075424  p :     3.191633
      px      :     1.060234
      py      :     1.055975
      dz2     :     0.007585  d :     0.025633
      dxz     :     0.004254
      dyz     :     0.001875
      dx2y2   :     0.007715
      dxy     :     0.004203

  6 H s       :     0.896774  s :     0.896774

  7 H s       :     0.885580  s :     0.885580

  8 H s       :     0.887618  s :     0.887618

  9 H s       :     0.926827  s :     0.926827

 10 H s       :     0.884991  s :     0.884991

 11 H s       :     0.903001  s :     0.903001

 12 H s       :     0.898133  s :     0.898133

 13 H s       :     0.884052  s :     0.884052

 14 H s       :     0.872195  s :     0.872195

 15 H s       :     0.881456  s :     0.881456


------------------------
MULLIKEN OVERLAP CHARGES
------------------------
B(  0-C ,  1-C ) :   0.8078 B(  0-C ,  2-C ) :  -0.1002 B(  0-C ,  3-C ) :  -0.0519 
B(  0-C ,  6-H ) :   0.7340 B(  0-C ,  7-H ) :   0.7483 B(  0-C ,  8-H ) :   0.7456 
B(  1-C ,  2-C ) :   0.7525 B(  1-C ,  3-C ) :   0.3729 B(  1-C ,  4-O ) :  -0.2552 
B(  1-C ,  5-C ) :  -0.5011 B(  1-C ,  6-H ) :  -0.0612 B(  1-C ,  7-H ) :  -0.0696 
B(  1-C ,  9-H ) :   0.6257 B(  1-C , 10-H ) :  -0.0619 B(  1-C , 12-H ) :  -0.0542 
B(  2-C ,  9-H ) :  -0.0662 B(  2-C , 10-H ) :   0.7418 B(  2-C , 11-H ) :   0.7455 
B(  2-C , 12-H ) :   0.7493 B(  3-C ,  4-O ) :   1.5039 B(  3-C ,  5-C ) :   0.7688 
B(  4-O ,  5-C ) :  -0.1882 B(  5-C , 13-H ) :   0.6261 B(  5-C , 14-H ) :   0.6672 
B(  5-C , 15-H ) :   0.6590 B( 11-H , 12-H ) :  -0.0502 


                     *******************************
                     * LOEWDIN POPULATION ANALYSIS *
                     *******************************

----------------------
LOEWDIN ATOMIC CHARGES
----------------------
   0 C :   -0.318268
   1 C :   -0.184036
   2 C :   -0.326273
   3 C :    0.049334
   4 O :   -0.120578
   5 C :   -0.363246
   6 H :    0.117711
   7 H :    0.126296
   8 H :    0.123447
   9 H :    0.118328
  10 H :    0.126181
  11 H :    0.117972
  12 H :    0.120199
  13 H :    0.132361
  14 H :    0.144762
  15 H :    0.135811

-------------------------------
LOEWDIN REDUCED ORBITAL CHARGES
-------------------------------
  0 C s       :     2.947548  s :     2.947548
      pz      :     1.099494  p :     3.299513
      px      :     1.108604
      py      :     1.091414
      dz2     :     0.018896  d :     0.071208
      dxz     :     0.006581
      dyz     :     0.016488
      dx2y2   :     0.010550
      dxy     :     0.018694

  1 C s       :     2.889127  s :     2.889127
      pz      :     1.066060  p :     3.193348
      px      :     1.060347
      py      :     1.066941
      dz2     :     0.020540  d :     0.101561
      dxz     :     0.012159
      dyz     :     0.025954
      dx2y2   :     0.021293
      dxy     :     0.021615

  2 C s       :     2.945498  s :     2.945498
      pz      :     1.133209  p :     3.310055
      px      :     1.090562
      py      :     1.086285
      dz2     :     0.012327  d :     0.070720
      dxz     :     0.005463
      dyz     :     0.022386
      dx2y2   :     0.015435
      dxy     :     0.015110

  3 C s       :     2.887184  s :     2.887184
      pz      :     0.869878  p :     2.843735
      px      :     1.045861
      py      :     0.927996
      dz2     :     0.028195  d :     0.219747
      dxz     :     0.047194
      dyz     :     0.036203
      dx2y2   :     0.041109
      dxy     :     0.067047

  4 O s       :     3.543515  s :     3.543515
      pz      :     1.364037  p :     4.545308
      px      :     1.767354
      py      :     1.413918
      dz2     :     0.005151  d :     0.031755
      dxz     :     0.003296
      dyz     :     0.012102
      dx2y2   :     0.006232
      dxy     :     0.004974

  5 C s       :     2.958208  s :     2.958208
      pz      :     1.122082  p :     3.338456
      px      :     1.105182
      py      :     1.111191
      dz2     :     0.018816  d :     0.066582
      dxz     :     0.011482
      dyz     :     0.005037
      dx2y2   :     0.019547
      dxy     :     0.011701

  6 H s       :     0.882289  s :     0.882289

  7 H s       :     0.873704  s :     0.873704

  8 H s       :     0.876553  s :     0.876553

  9 H s       :     0.881672  s :     0.881672

 10 H s       :     0.873819  s :     0.873819

 11 H s       :     0.882028  s :     0.882028

 12 H s       :     0.879801  s :     0.879801

 13 H s       :     0.867639  s :     0.867639

 14 H s       :     0.855238  s :     0.855238

 15 H s       :     0.864189  s :     0.864189


---------------------------------
LOEWDIN BOND ORDERS (THRESH 0.050000)
---------------------------------
B(  0-C ,  1-C ) :   1.0734 B(  0-C ,  2-C ) :   0.0547 B(  0-C ,  3-C ) :   0.0716 
B(  0-C ,  6-H ) :   0.9360 B(  0-C ,  7-H ) :   0.9347 B(  0-C ,  8-H ) :   0.9324 
B(  1-C ,  2-C ) :   1.0895 B(  1-C ,  3-C ) :   1.0109 B(  1-C ,  4-O ) :   0.1066 
B(  1-C ,  5-C ) :   0.0714 B(  1-C ,  9-H ) :   0.8702 B(  2-C ,  3-C ) :   0.0591 
B(  2-C , 10-H ) :   0.9312 B(  2-C , 11-H ) :   0.9349 B(  2-C , 12-H ) :   0.9376 
B(  3-C ,  4-O ) :   2.2886 B(  3-C ,  5-C ) :   1.1091 B(  4-O ,  5-C ) :   0.1088 
B(  5-C , 13-H ) :   0.9292 B(  5-C , 14-H ) :   0.9117 B(  5-C , 15-H ) :   0.9182 


------------------------------------------
LOEWDIN REDUCED ORBITAL POPULATIONS PER MO
-------------------------------------------
THRESHOLD FOR PRINTING IS 0.1%%
                      0         1         2         3         4         5   
                 -18.73919  -9.97031  -9.90284  -9.88753  -9.88595  -9.87567
                   2.00000   2.00000   2.00000   2.00000   2.00000   2.00000
                  --------  --------  --------  --------  --------  --------
 0 C  s               0.0       0.0       0.0      99.7       0.0       0.0
 1 C  s               0.0       0.0      99.6       0.0       0.0       0.0
 2 C  s               0.0       0.0       0.0       0.0       0.0      99.7
 3 C  s               0.0      99.4       0.0       0.0       0.0       0.0
 4 O  s              99.9       0.0       0.0       0.0       0.0       0.0
 4 O  pz              0.0       0.1       0.0       0.0       0.0       0.0
 4 O  py              0.0       0.2       0.0       0.0       0.0       0.0
 5 C  s               0.0       0.0       0.0       0.0      99.7       0.0

                      6         7         8         9        10        11   
                  -0.94120  -0.72936  -0.66605  -0.61756  -0.55210  -0.45924
                   2.00000   2.00000   2.00000   2.00000   2.00000   2.00000
                  --------  --------  --------  --------  --------  --------
 0 C  s               0.1      13.8       2.3      23.1       6.3       0.3
 0 C  pz              0.0       1.5       0.0       0.3       1.8       8.8
 0 C  px              0.1       0.4       0.1       0.0       2.3       0.7
 0 C  py              0.1       1.3       0.1       0.6       0.9       0.0
 1 C  s               1.2      27.3       0.9       0.1       7.7       4.3
 1 C  pz              0.3       0.5       0.1       4.1       0.8      10.2
 1 C  px              1.1       0.1       4.0       0.2      10.6       6.9
 1 C  py              0.4       0.0       0.2      11.1       0.0       4.9
 1 C  dx2y2           0.0       0.0       0.1       0.0       0.1       0.1
 1 C  dxy             0.0       0.0       0.0       0.2       0.1       0.0
 2 C  s               0.1      10.6       4.2      22.1       8.0       0.9
 2 C  pz              0.0       0.1       0.0       0.2       0.0       1.2
 2 C  px              0.2       0.9       0.0       0.0       3.2       0.1
 2 C  py              0.0       2.1       0.1       0.3       1.3       7.1
 2 C  dxy             0.0       0.1       0.0       0.0       0.1       0.0
 3 C  s              19.6       3.7       4.9       0.0       4.5       7.2
 3 C  pz              5.2       2.6       3.3       0.6       1.3       0.1
 3 C  px              0.3       3.4       6.6       0.0       8.8       0.3
 3 C  py              7.8       4.4       5.9       0.2       0.9       1.6
 3 C  dyz             1.3       0.0       0.0       0.0       0.0       0.1
 3 C  dx2y2           0.4       0.2       0.0       0.0       0.1       0.0
 3 C  dxy             0.1       0.0       0.2       0.0       0.1       0.0
 4 O  s              50.8       3.0       1.7       0.1       1.0       5.9
 4 O  pz              2.6       0.1       0.2       0.0       0.3       2.0
 4 O  px              0.2       0.1       0.3       0.0       0.8       0.8
 4 O  py              4.0       0.1       0.3       0.0       0.3       4.8
 4 O  dyz             0.2       0.0       0.0       0.0       0.0       0.1
 5 C  s               1.1       2.8      35.6       0.3       5.0       0.5
 5 C  pz              0.4       0.0       0.0       0.0       0.0       1.8
 5 C  px              0.6       0.7       0.3       0.0       3.8       4.3
 5 C  py              0.8       0.0       0.0       0.0       0.3       1.4
 6 H  s               0.0       2.5       0.3       7.2       2.0       0.7
 7 H  s               0.0       2.5       0.5       5.8       2.9       2.9
 8 H  s               0.0       2.5       0.6       5.8       3.9       0.2
 9 H  s               0.1       5.4       0.0       0.1       3.4      11.6
10 H  s               0.1       1.8       1.0       5.2       3.2       3.0
11 H  s               0.0       1.9       1.0       5.3       4.5       0.0
12 H  s               0.0       1.8       0.8       6.5       2.4       0.9
13 H  s               0.2       0.4       7.4       0.1       3.3       1.2
14 H  s               0.1       0.6       8.5       0.1       1.7       1.5
15 H  s               0.1       0.8       8.4       0.0       1.6       0.8

                     12        13        14        15        16        17   
                  -0.43006  -0.40775  -0.40605  -0.37330  -0.36156  -0.35631
                   2.00000   2.00000   2.00000   2.00000   2.00000   2.00000
                  --------  --------  --------  --------  --------  --------
 0 C  s               0.2       0.5       0.1       0.1       0.0       0.0
 0 C  pz              0.7       2.9       0.2       0.1       0.9       8.4
 0 C  px              1.2       0.0       8.8       0.8      14.5      11.5
 0 C  py              6.3       9.0       4.6       4.5       0.8       2.6
 0 C  dyz             0.0       0.1       0.0       0.0       0.0       0.2
 1 C  s               0.4       0.6       0.3       0.1       0.6       0.0
 1 C  pz              8.9       3.7       0.4       1.8       0.3       2.4
 1 C  px              0.1       5.1       2.7       0.0       0.2       0.0
 1 C  py              2.8       0.9       4.7       1.3       0.5       5.5
 1 C  dx2y2           0.0       0.0       0.0       0.2       0.1       0.0
 2 C  s               0.2       0.0       0.5       0.0       0.0       0.1
 2 C  pz              5.9       2.4       2.1       6.8       0.1       1.7
 2 C  px              2.4       3.4       2.0       8.9       1.0       9.0
 2 C  py              0.0       5.1       4.3       0.3       1.3       0.3
 3 C  s               2.1       0.2       0.3       0.2       0.8       0.2
 3 C  pz              2.2       8.0       3.4       2.6       1.1       1.4
 3 C  px             13.6       2.8       0.2       0.9       1.0       0.6
 3 C  py              0.2       3.5       6.1       3.3       1.8       2.3
 3 C  dx2y2           0.0       0.1       0.1       0.0       0.3       0.0
 3 C  dxy             0.0       0.0       0.0       0.0       0.1       0.1
 4 O  s               0.9       1.3       2.7       4.1       2.5       2.1
 4 O  pz              2.8       0.5       9.2       4.5       5.6       3.8
 4 O  px              6.4       1.1       0.0       1.4       4.2       1.8
 4 O  py              1.4       8.9       0.4       7.4       7.2       5.4
 5 C  s               1.1       0.0       0.0       0.0       0.0       0.0
 5 C  pz              2.5      18.2       3.8       6.7       1.1       9.5
 5 C  px              5.8       0.5       3.4      16.9       4.9       2.4
 5 C  py             11.9       0.0      14.1       0.6      17.6       1.2
 5 C  dz2             0.0       0.1       0.1       0.0       0.0       0.2
 5 C  dxz             0.1       0.0       0.0       0.1       0.0       0.0
 5 C  dx2y2           0.0       0.0       0.0       0.0       0.4       0.0
 5 C  dxy             0.3       0.0       0.0       0.1       0.0       0.0
 6 H  s               1.0       4.0       5.1       2.8       1.2       4.4
 7 H  s               0.9       0.2       1.1       0.2       0.8       6.7
 8 H  s               2.3       0.5       1.7       0.0       8.8       2.1
 9 H  s               2.6       0.4       0.7       0.3       0.1       0.0
10 H  s               0.9       0.0       0.2       2.0       0.7       1.0
11 H  s               2.0       1.4       1.0       3.0       1.1       3.4
12 H  s               1.3       4.0       2.3       4.4       0.3       1.2
13 H  s               1.0       2.5       1.0      10.5       6.5       0.0
14 H  s               1.7       7.6       3.9       2.4       0.0       6.4
15 H  s               5.4       0.0       8.0       0.2      10.6       1.4

                     18        19        20        21        22        23   
                  -0.34582  -0.31917  -0.31311  -0.29901  -0.29749  -0.19525
                   2.00000   2.00000   2.00000   2.00000   2.00000   2.00000
                  --------  --------  --------  --------  --------  --------
 0 C  s               0.0       0.0       0.1       0.1       0.6       0.0
 0 C  pz             14.0       4.0       0.1       6.3       4.6       0.1
 0 C  px              3.7       6.8       1.9       2.1       0.0       0.4
 0 C  py              6.2       0.5       3.0       1.4      12.5       0.1
 0 C  dz2             0.2       0.0       0.1       0.3       0.1       0.1
 0 C  dyz             0.1       0.0       0.0       0.2       0.0       0.0
 0 C  dx2y2           0.1       0.1       0.1       0.0       0.0       0.0
 0 C  dxy             0.0       0.3       0.0       0.0       0.2       0.1
 1 C  s               0.0       0.0       0.0       0.1       0.0       1.2
 1 C  pz              0.5       1.1       0.1      10.5       6.9       0.5
 1 C  px              0.1       1.3       6.9       4.9       0.2       8.4
 1 C  py              0.0       1.2       1.5       7.4       9.5       1.3
 1 C  dz2             0.2       0.0       0.1       0.4       0.0       0.0
 1 C  dxz             0.1       0.0       0.1       0.0       0.1       0.0
 1 C  dyz             0.0       0.0       0.0       0.8       0.2       0.0
 1 C  dx2y2           0.0       0.0       0.5       0.0       0.0       0.0
 1 C  dxy             0.0       0.1       0.1       0.0       0.3       0.0
 2 C  s               0.0       0.1       0.1       0.4       0.3       0.0
 2 C  pz             17.3       5.3       1.1       5.5       6.9       0.1
 2 C  px              3.9       0.2      13.1       4.7       1.0       0.5
 2 C  py              5.3       6.2       3.8       8.8       7.9       0.2
 2 C  dz2             0.1       0.0       0.2       0.1       0.0       0.0
 2 C  dyz             0.1       0.1       0.0       0.4       0.3       0.0
 2 C  dx2y2           0.1       0.0       0.5       0.0       0.0       0.1
 2 C  dxy             0.0       0.0       0.0       0.0       0.2       0.0
 3 C  s               0.0       0.1       1.1       0.1       0.0       0.0
 3 C  pz              1.3       5.0       2.5       0.2       2.5       0.0
 3 C  px              0.0       1.5       8.6       0.4       0.0       3.1
 3 C  py              0.3       4.9       0.6       0.5       1.9       0.0
 3 C  dz2             0.1       0.4       0.1       0.0       0.6       0.0
 3 C  dxz             0.0       0.0       0.0       0.1       0.0       1.8
 3 C  dx2y2           0.0       0.2       0.0       0.0       0.2       0.3
 3 C  dxy             0.0       0.0       0.0       0.0       0.1       2.6
 4 O  s               0.2       0.1       0.8       0.2       0.0       0.0
 4 O  pz              0.2      19.6       0.5       0.4      15.7       0.0
 4 O  px              0.0       1.6       5.3       1.3       0.1      62.9
 4 O  py              3.7       6.6       7.9       1.2       8.7       1.9
 5 C  s               0.0       0.0       0.0       0.1       0.0       1.6
 5 C  pz              4.0       2.4       3.0       0.2       0.5       2.0
 5 C  px              0.0       0.6       4.4       2.3       0.1       3.9
 5 C  py              0.0       2.9       0.7       0.1       0.8       3.2
 5 C  dz2             0.1       0.2       0.1       0.0       0.1       0.0
 5 C  dxz             0.0       0.0       0.1       0.0       0.0       0.0
 5 C  dx2y2           0.0       0.2       0.3       0.0       0.0       0.0
 6 H  s               0.1       4.6       0.1       2.8       5.1       0.1
 7 H  s              10.4       0.8       0.4       7.0       0.1       0.2
 8 H  s               6.2       5.7       2.6       0.0       0.1       0.7
 9 H  s               0.3       0.1       1.1      16.7       0.7       0.4
10 H  s              11.5       0.3       2.6       8.8       1.0       0.3
11 H  s               5.4       0.4      13.0       0.1       0.1       0.3
12 H  s               0.6       6.8       2.2       0.9       7.5       0.1
13 H  s               0.8       0.1       6.2       1.5       0.1       0.4
14 H  s               2.3       3.2       1.4       0.2       0.9       0.3
15 H  s               0.0       3.8       0.8       0.0       0.7       0.4

                     24        25        26        27        28        29   
                  -0.04635   0.02679   0.06592   0.07376   0.08994   0.10258
                   0.00000   0.00000   0.00000   0.00000   0.00000   0.00000
                  --------  --------  --------  --------  --------  --------
 0 C  s               1.3       5.6       4.2      10.3       0.1       0.0
 0 C  pz              1.5       0.6       0.5       0.9       3.6       0.6
 0 C  px              0.3       0.1       4.8       1.1       0.5       8.0
 0 C  py              0.6       2.6       0.1       0.9       2.1       0.5
 0 C  dz2             0.0       0.2       0.0       0.1       0.3       0.1
 0 C  dxz             0.0       0.1       0.1       0.1       0.0       0.0
 0 C  dyz             0.0       0.1       0.0       0.0       0.0       0.3
 0 C  dx2y2           0.1       0.0       0.0       0.0       0.0       0.3
 0 C  dxy             0.1       0.0       0.0       0.0       0.1       0.2
 1 C  s               0.0       4.1       0.1       1.4       0.9       0.8
 1 C  pz              0.1       2.2       0.0       0.7       5.3       0.3
 1 C  px              0.0       0.1       0.0       0.1       0.4       0.3
 1 C  py              0.2       0.9       0.0       1.6       1.3       0.2
 1 C  dz2             0.0       0.1       0.0       0.3       0.3       0.1
 1 C  dxz             0.7       0.0       0.1       0.1       0.1       0.1
 1 C  dyz             0.2       0.1       0.0       0.0       0.3       0.4
 1 C  dx2y2           0.0       0.0       0.1       0.0       0.3       0.5
 1 C  dxy             0.7       0.0       0.0       0.1       0.2       0.1
 2 C  s               0.4       4.0       7.0       4.7       3.6       3.0
 2 C  pz              0.0       0.4       0.1       1.9       1.1       1.7
 2 C  px              0.5       0.4       3.2       0.1       0.7       4.7
 2 C  py              0.4       0.4       0.1       0.3       3.5       1.0
 2 C  dxz             0.0       0.0       0.0       0.0       0.2       0.0
 2 C  dyz             0.0       0.1       0.1       0.0       0.2       0.4
 2 C  dx2y2           0.0       0.0       0.0       0.1       0.2       0.1
 2 C  dxy             0.0       0.1       0.0       0.0       0.0       0.1
 3 C  s               0.0       0.3       0.2       0.2       2.0       0.2
 3 C  pz             30.0       0.4       0.1       0.1       0.1       0.5
 3 C  px              0.2       0.0       0.1       0.0       0.0       0.5
 3 C  py             18.7       1.4       0.1       0.2       0.5       0.2
 3 C  dz2             1.1       0.0       0.0       0.0       0.1       0.0
 3 C  dxz             0.0       0.0       0.0       0.0       0.3       0.0
 3 C  dyz             0.1       0.5       0.0       0.1       0.2       0.0
 3 C  dx2y2           0.3       0.0       0.1       0.0       0.3       0.2
 3 C  dxy             0.0       0.0       0.0       0.2       0.0       0.0
 4 O  s               0.0       0.5       0.1       0.0       0.3       0.0
 4 O  pz             19.1       0.1       0.0       0.1       0.1       0.0
 4 O  px              0.2       0.0       0.8       0.0       0.0       0.1
 4 O  py             11.8       0.0       0.0       0.0       0.0       0.1
 4 O  dz2             0.4       0.0       0.0       0.0       0.0       0.0
 4 O  dx2y2           0.1       0.0       0.0       0.0       0.0       0.0
 5 C  s               0.0       7.9       9.1       0.1       3.3       3.2
 5 C  pz              0.1       1.0       1.0       3.8       0.5       0.1
 5 C  px              0.0       0.3       1.3       0.3       0.8       5.0
 5 C  py              0.0       1.8       0.3       4.2       1.9       0.9
 5 C  dz2             0.8       0.0       0.0       0.3       0.1       0.0
 5 C  dxz             0.4       0.0       0.0       0.0       0.1       0.2
 5 C  dx2y2           0.3       0.1       0.0       0.0       0.1       0.1
 5 C  dxy             0.1       0.0       0.0       0.1       0.2       0.0
 6 H  s               0.2       9.9       0.3      16.0       0.2      11.1
 7 H  s               0.1       1.8       6.3       8.4      10.6       1.8
 8 H  s               1.3       5.6      14.0       1.1       3.7       7.6
 9 H  s               0.6      12.4       0.3       7.3      17.6       0.5
10 H  s               0.0       0.9       5.8       0.1      15.8       0.4
11 H  s               0.1       4.2      15.0       3.8       0.8       2.2
12 H  s               0.1       4.9       0.8       9.6       4.8      19.4
13 H  s               0.2       2.2       7.7       0.1       2.7      19.3
14 H  s               3.8       9.1      10.8       8.7       7.5       1.8
15 H  s               2.5      12.3       5.2      10.6       0.2       0.4

                     30        31        32        33        34        35   
                   0.10932   0.11829   0.12696   0.14402   0.15208   0.17232
                   0.00000   0.00000   0.00000   0.00000   0.00000   0.00000
                  --------  --------  --------  --------  --------  --------
 0 C  s               0.7       0.5       5.5       0.2       0.3       2.0
 0 C  pz              0.1       6.0       0.7       3.5       0.2       7.9
 0 C  px              1.0       0.0       2.2       8.3       0.0       1.3
 0 C  py              0.8       3.7       0.4       0.3       9.9      12.3
 0 C  dz2             0.0       0.0       0.1       0.1       0.5       0.3
 0 C  dxz             0.0       0.0       0.0       0.2       0.2       0.5
 0 C  dyz             0.0       0.5       0.2       0.0       0.1       2.6
 0 C  dx2y2           0.3       0.2       0.0       0.5       0.0       0.8
 0 C  dxy             0.0       0.1       0.0       0.3       0.1       1.7
 1 C  s               1.1       2.3       0.7       0.7       0.0      18.4
 1 C  pz              2.7       3.4       0.1       0.1       0.6       7.4
 1 C  px              0.3       0.2       0.2       0.0       1.0       4.1
 1 C  py              0.6       0.6       2.2       0.2       2.7       0.2
 1 C  dz2             0.1       0.0       0.2       0.1       0.7       0.2
 1 C  dxz             0.0       0.1       0.1       0.3       0.0       0.4
 1 C  dyz             0.4       0.0       0.2       0.2       0.1       1.5
 1 C  dx2y2           0.2       0.1       0.0       0.3       0.4       0.0
 1 C  dxy             0.2       0.0       0.1       0.3       0.5       0.1
 2 C  s               0.0       3.2       2.1       0.2       0.2       1.6
 2 C  pz              0.7       1.4       8.6       0.7       9.2       1.5
 2 C  px              0.8       1.9       1.6       4.8       2.5       3.2
 2 C  py              3.1       0.3       0.1       6.0       0.8       6.7
 2 C  dz2             0.3       0.3       0.0       0.5       0.0       0.4
 2 C  dxz             0.0       0.1       0.2       0.2       0.0       0.8
 2 C  dyz             0.3       0.0       0.5       0.1       0.2       0.1
 2 C  dx2y2           0.1       0.1       0.1       0.3       0.3       0.4
 2 C  dxy             0.0       0.0       0.1       0.0       0.6       2.1
 3 C  s               0.9       0.1       0.1       1.8       0.0       1.7
 3 C  pz              0.1       0.4       1.5       0.3       0.6       0.1
 3 C  px              0.7       0.3       0.0       0.2       0.4       0.0
 3 C  py              0.3       0.8       0.3       0.1       1.1       1.2
 3 C  dz2             0.0       0.1       0.0       0.2       0.0       0.5
 3 C  dxz             0.2       0.0       0.1       0.1       0.0       0.3
 3 C  dyz             0.9       0.2       0.0       0.3       0.0       0.1
 3 C  dx2y2           0.3       0.2       0.3       0.0       0.0       1.2
 3 C  dxy             0.0       0.0       0.0       0.4       0.1       0.0
 4 O  s               0.1       0.1       0.2       0.0       0.0       0.0
 4 O  pz              0.4       0.1       0.2       0.1       0.0       0.1
 4 O  px              0.1       0.6       0.2       0.1       0.2       0.0
 4 O  py              0.2       0.1       0.1       0.0       0.1       0.0
 5 C  s               0.3       1.2       0.0       0.6       0.6       0.1
 5 C  pz              8.5       2.9       2.6       1.6       1.0       1.0
 5 C  px              6.7       1.6       0.0       2.4       1.0       1.9
 5 C  py              1.3       0.2       4.0       0.8       4.6       1.7
 5 C  dz2             0.2       0.0       0.1       0.4       0.2       0.0
 5 C  dxz             0.7       0.0       0.0       0.1       0.1       0.1
 5 C  dyz             0.2       0.0       0.0       0.0       0.0       0.0
 5 C  dx2y2           0.7       0.0       0.1       0.0       0.2       0.6
 5 C  dxy             0.2       0.0       0.1       0.2       0.0       0.1
 6 H  s               0.1       2.1       1.3       6.7      13.3       3.0
 7 H  s               2.1      20.4       1.3       5.6       5.6       0.3
 8 H  s               0.9       1.1      13.5      16.0       2.1       1.2
 9 H  s               6.0      15.1       3.8       0.1       0.6       0.5
10 H  s               0.1       0.1      20.1       5.0      11.1       1.5
11 H  s               2.7      12.2       2.7      18.7       3.6       0.2
12 H  s               7.7       2.7       6.3       2.6       7.4       0.2
13 H  s              24.5       9.5       0.1       0.3       0.4       0.7
14 H  s              13.8       1.9       6.4       1.7       1.4       1.0
15 H  s               5.5       1.0       8.4       5.0      12.7       1.8

                     36        37        38        39        40        41   
                   0.17827   0.20287   0.23901   0.28162   0.36269   0.39692
                   0.00000   0.00000   0.00000   0.00000   0.00000   0.00000
                  --------  --------  --------  --------  --------  --------
 0 C  s               0.0       0.9       0.2       0.0       1.0       0.5
 0 C  pz              0.1       4.3       3.3       1.6       1.2      23.5
 0 C  px              1.6       5.2       1.4       0.4       4.9       0.6
 0 C  py              0.3       2.3       0.8       0.3      13.8       2.0
 0 C  dz2             0.3       0.1       0.5       0.5       1.2       1.7
 0 C  dxz             0.6       1.5       0.1       0.3       0.0       0.1
 0 C  dyz             0.1       1.1       0.3       0.1       0.3       4.2
 0 C  dx2y2           0.1       0.1       0.1       0.0       0.4       0.8
 0 C  dxy             0.0       0.0       0.1       0.4       3.1       0.3
 1 C  s               0.7       0.1       1.8       1.7       0.3       0.1
 1 C  pz              0.3       5.2       0.4       1.8       0.9       3.1
 1 C  px             18.8       0.3       2.5       7.8       0.6       0.3
 1 C  py              0.1      10.5      12.0       1.3       0.0       6.0
 1 C  dz2             0.1       1.2       0.8       1.0       0.2       1.5
 1 C  dxz             0.9       0.0       1.7       0.6       0.0       0.0
 1 C  dyz             0.2       0.0       0.8       0.1       2.2       0.5
 1 C  dx2y2           1.2       0.1       0.0       1.5       0.4       0.3
 1 C  dxy             2.3       1.7       0.0       0.4       0.2       0.0
 2 C  s               0.2       0.4       0.6       0.2       1.2       0.3
 2 C  pz              1.2       0.5       0.3       0.4      11.7       3.1
 2 C  px              0.2       6.0       8.2       1.7       1.1       0.2
 2 C  py              6.1       5.7       2.5       0.0       5.6      10.0
 2 C  dz2             0.6       0.9       0.1       0.0       0.2       1.9
 2 C  dxz             0.1       0.0       0.1       0.2       0.8       0.1
 2 C  dyz             0.0       0.0       0.4       0.1       3.6       0.5
 2 C  dx2y2           0.7       0.0       0.0       1.3       0.2       0.2
 2 C  dxy             0.1       1.8       2.8       0.0       0.2       0.0
 3 C  s              23.9       4.5       5.8       6.4       1.4       1.2
 3 C  pz              1.8       4.9       0.5       4.8       0.4       0.7
 3 C  px              0.5       2.0       9.5      15.6       1.5       0.0
 3 C  py              2.4       1.6       6.1       8.1       0.6       5.5
 3 C  dz2             0.7       0.0       0.0       0.1       0.0       0.1
 3 C  dxz             0.2       0.0       0.4       0.0       0.2       0.0
 3 C  dyz             3.3       0.4       1.0       2.4       0.1       0.0
 3 C  dx2y2           0.3       0.5       0.0       1.2       0.3       0.1
 3 C  dxy             0.1       0.7       0.1       0.1       0.1       0.1
 4 O  s               1.0       1.0       2.7       6.7       0.6       0.6
 4 O  pz              0.6       0.3       0.7       0.4       0.0       0.4
 4 O  px              0.2       0.3       1.9       1.7       0.2       0.0
 4 O  py              1.2       0.8       0.4       0.7       0.3       0.3
 4 O  dxz             0.0       0.0       0.2       0.2       0.0       0.0
 4 O  dx2y2           0.1       0.0       0.1       0.1       0.0       0.0
 4 O  dxy             0.0       0.1       0.2       0.2       0.0       0.0
 5 C  s               0.3       0.8       1.4       0.3       0.0       0.1
 5 C  pz              2.6       3.4       4.4       1.6       0.8       0.9
 5 C  px              6.7       5.1       5.5       0.9       0.1       0.3
 5 C  py              2.8       4.4       5.9       2.5       0.3       0.5
 5 C  dz2             0.2       0.6       0.2       0.0       0.1       0.0
 5 C  dxz             1.0       0.4       0.4       0.5       0.0       0.0
 5 C  dyz             0.1       0.2       1.0       1.8       0.1       0.4
 5 C  dx2y2           0.2       0.8       0.4       0.9       0.2       0.0
 5 C  dxy             2.1       1.3       1.5       0.7       0.0       0.0
 6 H  s               0.0       0.7       0.9       1.4      12.5       0.2
 7 H  s               0.0       1.2       2.0       1.8       1.7      15.4
 8 H  s               0.5       1.8       0.3       0.7       1.3       3.2
 9 H  s               2.0       1.2       0.4       3.1       4.9       0.2
10 H  s               3.9       2.4       0.9       0.9       2.8       5.5
11 H  s               1.0       1.8       0.9       3.2       0.9       1.7
12 H  s               0.8       2.0       0.0       0.2      12.5       0.1
13 H  s               1.2       0.8       0.0       4.6       0.2       0.0
14 H  s               1.0       3.1       1.0       0.7       0.3       0.0
15 H  s               0.3       1.0       1.6       2.1       0.5       0.3

                     42        43        44        45        46        47   
                   0.40905   0.42687   0.44517   0.47039   0.49519   0.53766
                   0.00000   0.00000   0.00000   0.00000   0.00000   0.00000
                  --------  --------  --------  --------  --------  --------
 0 C  s               1.4       0.1       0.6       1.6       0.5       4.7
 0 C  pz              1.8       1.8       6.2       0.9       0.1      11.6
 0 C  px              3.9       0.2       1.3       9.0       0.1       5.3
 0 C  py              2.9       0.7       0.2       1.5       1.6       4.8
 0 C  dz2             0.2       0.0       0.0       0.6       0.0       0.0
 0 C  dxz             0.1       0.0       0.0       1.5       0.0       0.0
 0 C  dyz             0.2       0.0       0.9       0.4       0.4       0.0
 0 C  dx2y2           0.9       0.0       0.0       1.4       0.0       0.0
 0 C  dxy             0.5       0.1       0.0       0.6       0.1       0.1
 1 C  s               0.2       0.9       0.5       0.8       2.9       8.1
 1 C  pz              0.5       0.9       0.7       2.0       4.9       0.6
 1 C  px             10.5       4.1       3.5       4.8       2.7       0.2
 1 C  py              1.3       0.1       0.7       1.3       0.4       0.3
 1 C  dz2             0.3       0.0       0.3       0.2       0.2       0.0
 1 C  dxz             0.0       0.0       0.3       0.4       0.2       0.1
 1 C  dyz             0.1       0.6       0.0       1.6       0.2       0.1
 1 C  dx2y2           0.0       0.1       0.2       0.1       0.1       0.2
 1 C  dxy             1.9       0.0       0.6       0.3       0.1       0.0
 2 C  s               1.1       0.2       1.1       0.4       0.0       3.1
 2 C  pz              2.7       0.8       3.9       0.1       3.7       1.8
 2 C  px              5.4       0.7      10.1       0.5       0.1       8.6
 2 C  py              7.7       0.3       2.2       2.2       1.5      12.9
 2 C  dz2             0.5       0.0       2.4       0.2       1.5       0.0
 2 C  dxz             0.0       0.0       0.2       0.4       0.1       0.1
 2 C  dyz             1.1       0.4       0.0       0.1       0.6       0.3
 2 C  dx2y2           0.2       0.0       1.3       0.0       0.0       0.2
 2 C  dxy             0.6       0.3       0.7       0.3       0.0       0.1
 3 C  s               3.4       0.2       1.8       0.3       5.0       5.0
 3 C  pz              3.5       8.8       5.5       0.8      14.6       0.0
 3 C  px              0.3       1.3       5.3       5.5       3.1       4.1
 3 C  py              2.6       7.0       2.3       0.9       4.2       0.7
 3 C  dz2             0.7       0.7       0.1       0.1       0.4       0.1
 3 C  dxz             0.0       0.3       0.0       1.2       0.8       0.1
 3 C  dyz             0.2       0.0       0.3       0.6       0.0       0.2
 3 C  dx2y2           1.6       0.1       0.5       0.0       0.4       0.0
 3 C  dxy             0.5       0.3       1.3       0.0       1.5       0.3
 4 O  s               0.0       0.2       0.1       0.9       1.8       0.0
 4 O  pz              0.2       0.1       0.2       0.1       0.6       0.2
 4 O  px              0.0       0.3       4.5       1.8       1.2       0.2
 4 O  py              0.1       0.1       1.1       0.4       0.4       0.7
 4 O  dz2             0.1       0.1       0.0       0.0       0.0       0.0
 4 O  dxz             0.0       0.0       0.1       0.0       0.1       0.1
 4 O  dyz             0.1       0.0       0.2       0.0       0.2       0.3
 4 O  dxy             0.0       0.0       0.0       0.0       0.3       0.2
 5 C  s               2.4       0.3       1.4       1.6       1.5       0.1
 5 C  pz              0.3      15.1       0.6       5.8      13.7       1.6
 5 C  px             13.8       2.8       2.1      13.2       2.1       1.5
 5 C  py              1.6      14.1       7.8       4.0      10.4       1.7
 5 C  dz2             0.0       5.6       0.0       3.3       0.0       0.0
 5 C  dxz             1.2       0.4       0.3       0.5       0.4       0.5
 5 C  dyz             0.1       0.7       0.0       0.2       3.5       0.7
 5 C  dx2y2           1.5       0.2       2.3       0.1       0.4       0.4
 5 C  dxy             0.0       1.5       0.0       0.0       0.0       0.0
 6 H  s               0.6       0.2       0.2       0.7       0.1       2.4
 7 H  s               1.1       0.1       2.0       0.1       0.1       1.0
 8 H  s               4.1       0.2       0.4      10.1       0.6       0.5
 9 H  s               0.1       0.8       1.0       5.0       2.5       7.6
10 H  s               4.0       0.8       1.7       0.8       3.3       2.4
11 H  s               1.1       0.4       9.9       0.6       0.1       0.0
12 H  s               0.3       1.1       0.8       0.1       0.3       0.0
13 H  s               6.5       3.3       2.6       0.3       0.9       2.0
14 H  s               0.2      13.1       0.7       5.0       0.7       0.9
15 H  s               1.9       7.4       4.9       2.6       2.6       1.0

                     48        49        50        51        52        53   
                   0.56326   0.59323   0.59593   0.61965   0.62519   0.63084
                   0.00000   0.00000   0.00000   0.00000   0.00000   0.00000
                  --------  --------  --------  --------  --------  --------
 0 C  s               1.1       3.2       3.3      24.4       0.0       0.3
 0 C  pz              0.0       1.9       5.7       2.5       3.7       6.1
 0 C  px              0.1       0.5       0.7       0.5      12.7       6.9
 0 C  py              0.3       3.7       4.5       1.1       0.1       9.2
 0 C  dz2             0.1       1.2       0.7       0.1       0.4       0.3
 0 C  dxz             0.1       0.0       0.0       0.0       0.3       0.1
 0 C  dyz             0.0       0.0       0.2       0.3       0.1       0.0
 0 C  dx2y2           0.1       0.1       0.3       0.0       0.2       2.0
 0 C  dxy             0.1       0.3       2.9       0.0       0.4       0.1
 1 C  s               0.5       0.4       0.6       5.1       0.2       2.7
 1 C  pz              1.0       2.2       1.2       3.7       3.4       0.3
 1 C  px              1.6       1.9       8.8       0.0       6.6       0.8
 1 C  py              1.9       8.4      16.6       1.2       3.1       4.5
 1 C  dz2             0.7       0.2       0.4       0.0       0.0       0.3
 1 C  dxz             0.0       0.1       0.1       0.0       0.0       0.3
 1 C  dyz             0.6       0.5       0.1       0.0       0.0       0.3
 1 C  dx2y2           0.0       0.2       0.2       0.1       0.0       0.1
 1 C  dxy             0.2       0.6       0.1       0.0       0.1       0.0
 2 C  s               1.7       2.7       2.1      15.9       7.2       3.7
 2 C  pz              1.1       7.8       2.3       0.5       3.1       1.5
 2 C  px              3.1       1.8       2.1       1.6       0.9       1.6
 2 C  py              2.5       0.3       5.1       0.8       2.1       1.6
 2 C  dz2             0.0       0.2       0.1       0.2       0.2       0.0
 2 C  dxz             0.8       1.1       1.3       0.1       0.3       0.2
 2 C  dyz             0.0       0.4       0.8       0.2       0.0       0.1
 2 C  dx2y2           0.3       0.0       1.0       0.0       0.0       0.5
 2 C  dxy             0.3       0.4       0.1       0.0       0.3       0.0
 3 C  s              16.0       2.0       0.4       1.8       2.9       4.4
 3 C  pz              0.6      14.5       2.4       1.9       1.9       3.0
 3 C  px             12.5       0.3       0.7       0.3       1.6       3.6
 3 C  py              1.1       2.5       4.9       1.8       2.9       3.4
 3 C  dz2             0.0       0.0       0.2       0.0       0.0       0.2
 3 C  dxz             0.1       0.5       0.2       0.0       0.0       0.0
 3 C  dyz             0.2       0.5       0.7       0.3       0.3       0.7
 3 C  dx2y2           0.0       0.0       0.0       0.0       1.2       0.6
 3 C  dxy             0.1       0.0       0.4       0.0       0.0       0.1
 4 O  s               0.1       0.1       0.2       0.1       0.1       0.7
 4 O  pz              0.5       1.9       0.7       1.4       0.7       2.2
 4 O  px              1.7       0.2       0.4       0.0       0.3       0.0
 4 O  py              1.0       0.5       2.1       0.3       1.4       2.3
[...]
 5 C  dxy             0.1       1.3       0.5       6.0       1.7      10.1
 6 H  s               0.2       0.0       1.0       0.5       0.0       0.4
 7 H  s               2.4       0.0       1.8       0.2       0.5       0.1
 8 H  s               3.9       0.3       0.2       0.2       0.9       0.3
 9 H  s               0.3       0.1       1.0       1.8       1.5       0.2
10 H  s               4.3       0.6       0.3       0.3       1.1       0.5
11 H  s               2.1       0.6       1.5       0.0       0.5       0.1
12 H  s               0.2       0.0       0.8       0.4       0.2       0.2
13 H  s               0.3       0.6       0.7       0.1       0.1       0.0
14 H  s               0.1       4.7       0.0       0.6       0.1       0.3
15 H  s               0.5       3.1       0.4       0.2       0.0       0.3

                     96        97        98        99       100       101   
                   2.50350   2.52897   2.59858   2.63897   2.71017   3.06971
                   0.00000   0.00000   0.00000   0.00000   0.00000   0.00000
                  --------  --------  --------  --------  --------  --------
 0 C  s               0.5       0.4       0.6       0.4       0.1       0.0
 0 C  pz              0.5       0.5       0.5       0.3       0.0       0.0
 0 C  px              0.0       0.5       0.1       0.1       0.0       0.0
 0 C  py              0.3       0.5       0.8       0.4       0.0       0.0
 0 C  dz2             0.0       0.4       0.4       1.0       0.1       0.0
 0 C  dxz             0.0       4.4       1.4       0.5       0.1       0.0
 0 C  dyz             6.5       3.5       3.2       2.3       0.2       0.1
 0 C  dx2y2           1.4       0.1       0.3       0.4       0.0       0.0
 0 C  dxy             0.0       2.6       2.3       0.3       0.0       0.0
 1 C  s               0.0       0.4       0.1       0.0       0.2       0.0
 1 C  pz              0.2       0.1       0.7       0.2       0.1       0.0
 1 C  px              0.2       2.5       0.1       0.0       0.9       0.0
 1 C  py              2.2       0.2       1.6       0.3       0.0       0.0
 1 C  dz2             1.6       1.2       7.2       0.1       0.2       0.0
 1 C  dxz             6.1       4.0       0.3       3.3       2.2       0.5
 1 C  dyz             1.8      10.9       2.3       2.0       2.7       0.0
 1 C  dx2y2           8.4      15.0       1.4       1.9       0.0       0.0
 1 C  dxy             4.8       5.5      12.1       5.9       9.0       0.7
 2 C  s               0.7       0.2       0.7       0.1       0.3       0.0
 2 C  px              0.5       0.6       0.5       0.0       0.2       0.0
 2 C  py              0.8       0.2       1.0       0.3       0.4       0.0
 2 C  dz2             2.9       1.3       1.4       0.3       0.5       0.0
 2 C  dxz             1.1       0.0       0.2       0.0       0.0       0.0
 2 C  dyz             0.1       0.0       0.7       0.0       0.4       0.0
 2 C  dx2y2           1.0       0.5       2.7       1.3       0.7       0.0
 2 C  dxy             7.7       4.6       5.1       0.6       1.4       0.1
 3 C  s               0.2       1.3       0.2       0.1       1.0       0.0
 3 C  pz              0.0       0.1       0.0       0.0       0.1       0.6
 3 C  px              0.8       4.2       0.0       0.1       0.1       0.0
 3 C  py              0.2       0.1       0.1       0.0       0.1       0.4
 3 C  dz2             0.7       0.7       0.1       0.0       5.5      12.9
 3 C  dxz             2.3       1.6       1.2       3.3       0.2       0.2
 3 C  dyz             7.6       0.0       6.2       1.7       0.7       0.8
 3 C  dx2y2           4.8       1.8       1.1       0.0      17.1       4.6
 3 C  dxy             2.7       1.5       0.0       4.5       1.7       0.4
 4 O  s               2.0       0.2       0.9       0.1       1.8       0.0
 4 O  pz              0.7       0.0       0.4       0.1       0.5       0.8
 4 O  px              0.0       0.2       0.0       0.0       0.0       0.0
 4 O  py              1.3       0.0       0.5       0.1       0.7       0.6
 4 O  dz2             1.9       4.3       9.5       0.3       9.0      54.8
 4 O  dxz             0.0       7.2      10.5      36.3       0.0       0.6
 4 O  dyz             0.7       6.5       0.6       0.5      16.7       3.4
 4 O  dx2y2          14.4       5.1       5.5       4.3      16.7      16.4
 4 O  dxy             0.1       2.6      12.1      24.4       0.6       1.3
 5 C  s               0.3       0.3       0.0       0.0       0.2       0.0
 5 C  pz              0.1       0.0       0.0       0.0       0.1       0.0
 5 C  px              0.2       0.4       0.0       0.0       0.1       0.0
 5 C  py              0.2       0.0       0.0       0.0       0.2       0.0
 5 C  dz2             0.1       0.1       0.1       1.4       0.0       0.0
 5 C  dxz             2.8       0.4       0.0       0.6       1.3       0.2
 5 C  dyz             0.9       0.0       0.0       0.1       1.5       0.0
 5 C  dx2y2           2.5       0.0       2.4       0.0       2.2       0.0
 5 C  dxy             1.7       0.8       0.1       0.0       1.3       0.1
 6 H  s               0.0       0.1       0.2       0.0       0.0       0.0
 7 H  s               0.2       0.0       0.0       0.0       0.0       0.0
 8 H  s               0.0       0.1       0.0       0.1       0.0       0.0
11 H  s               0.0       0.0       0.2       0.0       0.1       0.0
12 H  s               0.5       0.0       0.0       0.0       0.0       0.0
13 H  s               0.4       0.1       0.1       0.0       0.3       0.0

                    102       103   
                   3.27871   3.52122
                   0.00000   0.00000
                  --------  --------
 1 C  s               0.2       0.1
 1 C  px              0.4       0.0
 1 C  dz2             0.5       0.0
 1 C  dyz             0.2       0.0
 1 C  dx2y2           2.5       0.1
 1 C  dxy             0.0       0.1
 3 C  s               0.0       7.2
 3 C  pz              0.0       2.9
 3 C  px              0.6       0.2
 3 C  py              0.0       4.4
 3 C  dz2             0.1       0.1
 3 C  dxz            10.0       0.2
 3 C  dyz             0.6       3.4
 3 C  dx2y2           2.0       1.4
 3 C  dxy            15.1       0.3
 4 O  s               0.0       6.7
 4 O  pz              0.0       1.6
 4 O  px              1.6       0.1
 4 O  py              0.0       2.6
 4 O  dz2             0.2       0.4
 4 O  dxz            23.2       1.8
 4 O  dyz             1.0      46.2
 4 O  dx2y2           4.2      16.9
 4 O  dxy            33.3       2.9
 5 C  s               0.2       0.0
 5 C  px              0.5       0.0
 5 C  dz2             0.4       0.0
 5 C  dxz             0.3       0.0
 5 C  dx2y2           1.3       0.1
 5 C  dxy             0.9       0.0


                      *****************************
                      * MAYER POPULATION ANALYSIS *
                      *****************************

  NA   - Mulliken gross atomic population
  ZA   - Total nuclear charge
  QA   - Mulliken gross atomic charge
  VA   - Mayer's total valence
  BVA  - Mayer's bonded valence
  FA   - Mayer's free valence

  ATOM       NA         ZA         QA         VA         BVA        FA
  0 C      6.2546     6.0000    -0.2546     3.9614     3.9614    -0.0000
  1 C      6.1863     6.0000    -0.1863     3.9980     3.9980     0.0000
  2 C      6.2366     6.0000    -0.2366     3.9701     3.9701    -0.0000
  3 C      5.9899     6.0000     0.0101     4.2935     4.2935    -0.0000
  4 O      8.1590     8.0000    -0.1590     2.3328     2.3328     0.0000
  5 C      6.2531     6.0000    -0.2531     3.8426     3.8426    -0.0000
  6 H      0.8968     1.0000     0.1032     0.9571     0.9571    -0.0000
  7 H      0.8856     1.0000     0.1144     0.9670     0.9670    -0.0000
  8 H      0.8876     1.0000     0.1124     0.9543     0.9543    -0.0000
  9 H      0.9268     1.0000     0.0732     0.9497     0.9497     0.0000
 10 H      0.8850     1.0000     0.1150     0.9812     0.9812    -0.0000
 11 H      0.9030     1.0000     0.0970     0.9566     0.9566     0.0000
 12 H      0.8981     1.0000     0.1019     0.9531     0.9531     0.0000
 13 H      0.8841     1.0000     0.1159     0.9827     0.9827    -0.0000
 14 H      0.8722     1.0000     0.1278     0.9570     0.9570    -0.0000
 15 H      0.8815     1.0000     0.1185     0.9632     0.9632     0.0000

  Mayer bond orders larger than 0.100000
B(  0-C ,  1-C ) :   1.0858 B(  0-C ,  6-H ) :   0.9482 B(  0-C ,  7-H ) :   0.9474 
B(  0-C ,  8-H ) :   0.9483 B(  1-C ,  2-C ) :   1.1022 B(  1-C ,  3-C ) :   0.9129 
B(  1-C ,  9-H ) :   0.8999 B(  2-C , 10-H ) :   0.9398 B(  2-C , 11-H ) :   0.9503 
B(  2-C , 12-H ) :   0.9552 B(  3-C ,  4-O ) :   2.2000 B(  3-C ,  5-C ) :   1.0784 
B(  5-C , 13-H ) :   0.9349 B(  5-C , 14-H ) :   0.9228 B(  5-C , 15-H ) :   0.9261 


-------
TIMINGS
-------

Total SCF time: 0 days 0 hours 0 min 5 sec 

Total time                  ....       5.193 sec
Sum of individual times     ....       5.162 sec  ( 99.4%)

SCF preparation             ....       0.854 sec  ( 16.4%)
Fock matrix formation       ....       3.972 sec  ( 76.5%)
  Startup                   ....       0.287 sec  (  7.2% of F)
  Split-RI-J                ....       0.780 sec  ( 19.6% of F)
  XC integration            ....       1.150 sec  ( 28.9% of F)
    Basis function eval.    ....       0.487 sec  ( 42.3% of XC)
    Density eval.           ....       0.217 sec  ( 18.8% of XC)
    XC-Functional eval.     ....       0.101 sec  (  8.8% of XC)
    XC-Potential eval.      ....       0.237 sec  ( 20.7% of XC)
Diagonalization             ....       0.000 sec  (  0.0%)
Density matrix formation    ....       0.025 sec  (  0.5%)
Total Energy calculation    ....       0.001 sec  (  0.0%)
Population analysis         ....       0.026 sec  (  0.5%)
Orbital Transformation      ....       0.218 sec  (  4.2%)
Orbital Orthonormalization  ....       0.000 sec  (  0.0%)
DIIS solution               ....       0.052 sec  (  1.0%)
  MO trafo                  ....       0.000 sec  (  0.0 % of DIIS)
  Orb grad                  ....       0.000 sec  (  0.0 % of DIIS)
  Energy W gradient         ....       0.000 sec  (  0.0 % of DIIS)
  DIIS error                ....       0.001 sec  (  2.6 % of DIIS)
  DIIS work                 ....       0.045 sec  ( 87.0 % of DIIS)
  Form Q                    ....       0.000 sec  (  0.0 % of DIIS)
  Form QpQm                 ....       0.000 sec  (  0.0 % of DIIS)
  Exp/Cayley                ....       0.000 sec  (  0.0 % of DIIS)
  Orb update                ....       0.000 sec  (  0.0 % of DIIS)
  Wake-sleep                ....       0.001 sec  (  1.5 % of DIIS)
SOSCF solution              ....       0.013 sec  (  0.2%)
  MO trafo                  ....       0.008 sec  ( 59.7 % of SOSCF)
  Orb grad                  ....       0.000 sec  (  1.0 % of SOSCF)
  Rot update                ....       0.001 sec  ( 10.8 % of SOSCF)
  Step                      ....       0.004 sec  ( 28.1 % of SOSCF)
Finished LeanSCF after   5.2 sec

Maximum memory used throughout the entire LEANSCF-calculation: 10.3 MB


-------------------------------------------------------------------------------
                          DFT DISPERSION CORRECTION                            
                                                                               
                                DFTD4 V3.4.0                                   
-------------------------------------------------------------------------------
The PBE functional is recognized
Active option DFTDOPT                   ...         5   

-------------------------   ----------------
Dispersion correction           -0.011797221
-------------------------   ----------------

------------------   -----------------
gCP correction             0.065765791
------------------   -----------------

-------------------------   --------------------
FINAL SINGLE POINT ENERGY      -271.143617460720
-------------------------   --------------------


------------------------------------------------------------------------------
                              ORCA PROPERTY CALCULATIONS
------------------------------------------------------------------------------

GBWName                                 ... sp.gbw
Number of atoms                         ...     16
Number of basis functions               ...    104
Max core memory                         ...   1024 MB

Electric properties:
Dipole moment                           ... YES
Quadrupole moment                       ...  NO
Static polarizability (Dipole/Dipole)   ...  NO
Static polarizability (Dipole/Quad.)    ...  NO
Static polarizability (Quad./Quad.)     ...  NO
Static polarizability (Velocity)        ...  NO

Atomic electric properties:
Dipole moment                           ...  NO
Quadrupole moment                       ...  NO
Static polarizability                   ...  NO

Choice of electric origin               ... Center of mass
Position of electric origin             ...     0.000016    -0.000019     0.000012

General magnetic properties:
Magnetizability                         ...  NO

EPR properties:
g-Tensor (aka g-matrix)                 ...  NO
Zero-Field splitting spin-orbit         ...  NO
Zero-field splitting spin-spin          ...  NO
Hyperfine couplings                     ...  NO (   0 nuclei)
Quadrupole couplings                    ...  NO (   0 nuclei)
Contact density                         ...  NO (   0 nuclei)

NMR properties:
Chemical shifts                         ...  NO (   0 nuclei)
Spin-rotation constants                 ...  NO (   0 nuclei)
Spin-spin couplings                     ...  NO (   0 nuclei,    0 pairs)

Choice of magnetic origin               ... GIAO
Position of magnetic origin             ...     0.000000     0.000000     0.000000

Properties with geometric perturbations:
SCF Hessian                             ...  NO
IR spectrum                             ...  NO
VCD spectrum                            ...  NO
X-ray spectroscopy properties:
SCF XES/XAS/RIXS spectra                ...  NO


-------------
DIPOLE MOMENT
-------------

Method             : SCF
Type of density    : Electron Density
Multiplicity       :   1
Irrep              :   0
Energy             :  -271.1975860304935964 Eh
Relativity type    : 
Basis              : AO
                                X                 Y                 Z
Electronic contribution:     -3.267444832       3.099290952      -1.688333396
Nuclear contribution   :      3.461492386      -3.861739632       2.269788371
                        -----------------------------------------
Total Dipole Moment    :      0.194047553      -0.762448680       0.581454975
                        -----------------------------------------
Magnitude (a.u.)       :      0.978300736
Magnitude (Debye)      :      2.486642854



--------------------
Rotational spectrum 
--------------------
 
Rotational constants in cm-1:             0.159641             0.092970             0.077872 
Rotational constants in MHz :          4785.912274          2787.167344          2334.543911 

Dipole components along the rotational axes: 
x,y,z [a.u.] :     0.194036    -0.762441     0.581470 
x,y,z [Debye]:     0.493199    -1.937970     1.477978 

 

Dipole moment calculation done in   0.2 sec 

Maximum memory used throughout the entire PROP-calculation: 6.7 MB

--------------------------------
SUGGESTED CITATIONS FOR THIS RUN
--------------------------------

Below you find a list of papers that are relevant to this ORCA run
We neither can nor want to force you to cite these papers, but we appreciate if you do
You receive ORCA, which is the product of decades of hard work by many enthusiastic individuals, for free
The only thing we kindly ask in return is that you cite our papers,
We deeply appreciate it, if you show your appreciation for ORCA by not just citing the generic ORCA reference.

Please note that relegating all ORCA citations to the supporting information does *not* help us.
SI sections are not indexed - citations you put there will not count into any citation statistics
But we need these citations in order to attract the funding resources that allow us to do what we are doing

Therefore, if you are a happy ORCA user, please consider citing a few of the papers listed below in the main body of your paper

In addition to the list printed below, the program has created the file sp.bibtex that contains the list in bibtex format
You can import this file easily into all common literature databanks and citation aid programs


List of essential papers. We consider these as the minimum necessary citations

  1. Neese,F.
     Software update: the ORCA program system, version 5.0
     WIRES Comput. Molec. Sci., 2022 12(1)e1606
     doi.org/10.1002/wcms.1606

List of papers to cite with high priority. The work reported in these papers was absolutely
necessary for this run to complete.
Our perspective: the developers of density functionals and basis sets usually get cited in chemistry papers
Good! But without the algorithms to do something with them, the functionals or basis sets would not do anything.
Hence, in our opinion, the algorithm design and method developments papers are equally worthy of getting cited

  1. Neese,F.
     An improvement of the resolution of the identity approximation for the formation of the Coulomb matrix
     J. Comp. Chem., 2003 24(14)1740-1747
     doi.org/10.1002/jcc.10318
  2. Neese,F.
     The SHARK Integral Generation and Digestion System
     J. Comp. Chem., 2022  1-16
     doi.org/10.1002/jcc.26942
  3. Caldeweyher,E.; Bannwarth,C.; Grimme,S.
     Extension of the D3 dispersion coefficient model
     J. Chem. Phys., 2017 147 034112
     doi.org/10.1063/1.4993215
  4. Caldeweyher,E.; Ehlert,S.; Hansen,A.; Neugebauer,H.; Spicher,S.; Bannwarth,C.; Grimme,S.
     A generally applicable atomic-charge dependent London dispersion correction
     J. Chem. Phys., 2019 150 154122
     doi.org/10.1063/1.5090222
  5. Caldeweyher,E.; Mewes,J.; Ehlert,S.; Grimme,S.
     Extension and evaluation of the D4 London-dispersion model for periodic systems
     Phys. Chem. Chem. Phys., 2020 22(16)8499-8512
     doi.org/10.1039/D0CP00502A
  6. Wittmann,L.; Gordiy,I.; Friede,M.; Helmich-Paris,B.; Grimme,S.; Hansen,A.; Bursch,M.
     Extension of the D3 and D4 London Dispersion Corrections to the full Actinides Series
     Phys. Chem. Chem. Phys., 2024 26(32)21379-21394
     doi.org/https://doi.org/10.1039/D4CP01514B 

List of suggested additional citations. These are papers that are important in the 'surrounding' of 
of this run, or papers that preceded the highly important papers. If you like your results we are grateful for a citation.

  1. Neese,F.
     The ORCA program system
     WIRES Comput. Molec. Sci., 2012 2(1)73-78
     doi.org/10.1002/wcms.81
  2. Neese,F.
     Software update: the ORCA program system, version 4.0
     WIRES Comput. Molec. Sci., 2018 8(1)1-6
     doi.org/10.1002/wcms.1327
  3. Neese,F.; Wennmohs,F.; Becker,U.; Riplinger,C.
     The ORCA quantum chemistry program package
     J. Chem. Phys., 2020 152 Art. No. L224108
     doi.org/10.1063/5.0004608

List of optional additional citations

  1. Neese,F.
     Approximate second-order SCF convergence for spin unrestricted wavefunctions
     Chem. Phys. Lett., 2000 325(1-3)93-98
     doi.org/10.1016/s0009-2614(00)00662-x

Timings for individual modules:

Sum of individual times          ...        6.532 sec (=   0.109 min)
Startup calculation              ...        0.624 sec (=   0.010 min)   9.6 %
SCF iterations                   ...        5.614 sec (=   0.094 min)  86.0 %
Property calculations            ...        0.293 sec (=   0.005 min)   4.5 %
                             ****ORCA TERMINATED NORMALLY****
TOTAL RUN TIME: 0 days 0 hours 0 minutes 7 seconds 47 msec
