19
 energy: -386.001973114074 gnorm: 0.018430429986 xtb: 6.7.1 (edcfbbe)
C           -2.97038751571626        0.64567444678612       -0.75205312753325
C           -2.26939318720563        0.35107449735557        0.57555510365504
C           -0.85224997257765       -0.08430962703736        0.33349760284778
C           -0.54718974964247       -1.42637583603206        0.13733062316085
C            0.75199398603323       -1.81654610970496       -0.12776600795662
C            1.76443925578187       -0.87678799698853       -0.20355516149020
C            1.46947271595116        0.46678858500685       -0.01120755890497
C            0.16205914327181        0.85591991497928        0.25545515051320
O            2.42729642097560        1.43400135403544       -0.07381017243271
H           -2.98076911642086       -0.24282436730760       -1.37931686111121
H           -2.44765651228462        1.43515069043595       -1.28698440527030
H           -3.99662984917101        0.96200854602629       -0.57961868645684
H           -2.81317457554659       -0.43514035999282        1.10310562038882
H           -2.27983930721026        1.24987105325385        1.19484800912947
H           -1.33102761808981       -2.16712212256031        0.19598708868685
H            0.98341061713578       -2.86107790776782       -0.27672475042262
H            2.78201939073279       -1.18247238912398       -0.40992300538165
H           -0.04258269051887        1.90514854884422        0.40277766587848
H            3.28329037865491        1.03118439815695       -0.26233585451625
19
 energy: -386.002664866709 gnorm: 0.005827493247 xtb: 6.7.1 (edcfbbe)
C           -2.98195459826893        0.65010143271321       -0.75546224822114
C           -2.27042181673748        0.35340660435801        0.57096100474233
C           -0.84912427168980       -0.08582312974490        0.34456572272138
C           -0.54649930133717       -1.43385212407043        0.14373731802415
C            0.75722459498247       -1.82433272613034       -0.12980913436725
C            1.77503202550908       -0.88214244277918       -0.20693106775387
C            1.47588121349720        0.46489150481402       -0.01195894563716
C            0.16871697425302        0.85895588412751        0.26217507262401
O            2.42910712587326        1.44114150543780       -0.07295489569625
H           -2.99248001714765       -0.23976493593013       -1.38969048348258
H           -2.45930638644112        1.44133536886118       -1.29843506450685
H           -4.01404447667410        0.96824745809432       -0.58773245277942
H           -2.81277406068312       -0.43065560114710        1.10859351800957
H           -2.28265489413243        1.24867862085777        1.20030224933703
H           -1.33515895481647       -2.17638337553156        0.20320987622291
H            0.98930037006484       -2.87286059761317       -0.27878229562664
H            2.79616179771574       -1.18914926616884       -0.41438910944603
H           -0.03774844738217        1.91361752824358        0.41065069592990
H            3.28382479727647        1.03875357798550       -0.26278828690721
19
 energy: -386.002726375447 gnorm: 0.001759876575 xtb: 6.7.1 (edcfbbe)
C           -2.98638136197437        0.65192361579986       -0.75651973004039
C           -2.27189963260531        0.35441115494250        0.56912403097808
C           -0.84921869524039       -0.08576794401173        0.34113141513811
C           -0.54551295152954       -1.43644682181774        0.14439844292795
C            0.76053788872845       -1.82725617844894       -0.12796562826259
C            1.78055500562843       -0.88477245235229       -0.20738111712932
C            1.47925174589951        0.46272824729367       -0.00962497606494
C            0.17172112044449        0.85923458629152        0.26299148083397
O            2.43023311541841        1.44434483984730       -0.07127755507527
H           -3.00025075661377       -0.23744047884297       -1.39448255632851
H           -2.46696808971197        1.44481286505656       -1.30391425065908
H           -4.01954279960159        0.97027724484818       -0.58579823210535
H           -2.81447320218661       -0.42864237506329        1.11067079235954
H           -2.28464987928571        1.24887276242329        1.20199339279058
H           -1.33515416786644       -2.17970090105433        0.20618946233653
H            0.99275430482430       -2.87706584676079       -0.27800072169330
H            2.80223398451068       -1.19262960549779       -0.41686614581947
H           -0.03474492319963        1.91516283448694        0.41320369850824
H            3.28459091687408        1.04211970450269       -0.26261045463572
19
 energy: -386.002733018524 gnorm: 0.000628417061 xtb: 6.7.1 (edcfbbe)
C           -2.98981407795404        0.65299385869311       -0.75622341652304
C           -2.27198440918639        0.35450356610444        0.56698657395057
C           -0.84867271301363       -0.08613354995955        0.33999893499668
C           -0.54425429903659       -1.43687287861039        0.14368469849566
C            0.76199094310064       -1.82752907315866       -0.12757428882783
C            1.78284685356329       -0.88559074904365       -0.20690673625154
C            1.48031106042255        0.46164538579013       -0.01051425814390
C            0.17287584256834        0.85837382427781        0.26198636570855
O            2.43131109250306        1.44515321094273       -0.06981817703670
H           -3.00602993139771       -0.23563993749403       -1.39507389946317
H           -2.47248897408193        1.44658213687040       -1.30452403651140
H           -4.02249802333370        0.97123969816908       -0.58232343710839
H           -2.81469894899815       -0.42825021203579        1.10894386447605
H           -2.28423815740401        1.24901722194193        1.19995571371790
H           -1.33334275636946       -2.18035173975075        0.20614046145387
H            0.99462150617794       -2.87756523288976       -0.27549748427668
H            2.80419962596325       -1.19419203327873       -0.41616795309573
H           -0.03294980009660        1.91408953018362        0.41266975959223
H            3.28589678307233        1.04269217261937       -0.26048162208519
19
 energy: -386.002735389214 gnorm: 0.000453311520 xtb: 6.7.1 (edcfbbe)
C           -2.99186088367584        0.65358505531444       -0.75586931157901
C           -2.27170868532881        0.35445910130807        0.56568303066044
C           -0.84857906866632       -0.08605850388536        0.33704691109031
C           -0.54348785343355       -1.43682164219491        0.14239266585224
C            0.76286383210508       -1.82743479836491       -0.12688409663365
C            1.78380564962354       -0.88571706666056       -0.20581133807311
C            1.48082206664976        0.46104189639141       -0.00984326157909
C            0.17318086842280        0.85795934938180        0.26005764797279
O            2.43192027852537        1.44503349839362       -0.06879176812317
H           -3.01039476315994       -0.23436808220006       -1.39530429173822
H           -2.47662229762792        1.44783928207437       -1.30476163203837
H           -4.02388861344832        0.97155672156200       -0.57822791107474
H           -2.81340095485700       -0.42857330268270        1.10811074344181
H           -2.28262351827328        1.24873439351069        1.19882770314437
H           -1.33214653268914       -2.18061847520423        0.20458934814368
H            0.99571176123083       -2.87747701613363       -0.27366814504132
H            2.80500668039321       -1.19486127517255       -0.41398385760319
H           -0.03209604872252        1.91360421017300        0.41028393101325
H            3.28657969484409        1.04228180412543       -0.25858568693470
19
 energy: -386.002735389214 gnorm: 0.000453311520 xtb: 6.7.1 (edcfbbe)
C           -2.99186088367584        0.65358505531444       -0.75586931157901
C           -2.27170868532881        0.35445910130807        0.56568303066044
C           -0.84857906866632       -0.08605850388536        0.33704691109031
C           -0.54348785343355       -1.43682164219491        0.14239266585224
C            0.76286383210508       -1.82743479836491       -0.12688409663365
C            1.78380564962354       -0.88571706666056       -0.20581133807311
C            1.48082206664976        0.46104189639141       -0.00984326157909
C            0.17318086842280        0.85795934938180        0.26005764797279
O            2.43192027852537        1.44503349839362       -0.06879176812317
H           -3.01039476315994       -0.23436808220006       -1.39530429173822
H           -2.47662229762792        1.44783928207437       -1.30476163203837
H           -4.02388861344832        0.97155672156200       -0.57822791107474
H           -2.81340095485700       -0.42857330268270        1.10811074344181
H           -2.28262351827328        1.24873439351069        1.19882770314437
H           -1.33214653268914       -2.18061847520423        0.20458934814368
H            0.99571176123083       -2.87747701613363       -0.27366814504132
H            2.80500668039321       -1.19486127517255       -0.41398385760319
H           -0.03209604872252        1.91360421017300        0.41028393101325
H            3.28657969484409        1.04228180412543       -0.25858568693470
