      -----------------------------------------------------------      
     |                   =====================                   |     
     |                           x T B                           |     
     |                   =====================                   |     
     |                         S. Grimme                         |     
     |          Mulliken Center for Theoretical Chemistry        |     
     |                    University of Bonn                     |     
      -----------------------------------------------------------      

   * xtb version 6.7.1 (edcfbbe) compiled by 'albert@albert-system' on 2024-07-22

   xtb is free software: you can redistribute it and/or modify it under
   the terms of the GNU Lesser General Public License as published by
   the Free Software Foundation, either version 3 of the License, or
   (at your option) any later version.
   
   xtb is distributed in the hope that it will be useful,
   but WITHOUT ANY WARRANTY; without even the implied warranty of
   MERCHANTABILITY or FITNESS FOR A PARTICULAR PURPOSE.  See the
   GNU Lesser General Public License for more details.
   
   Cite this work as:
   * C. Bannwarth, E. Caldeweyher, S. Ehlert, A. Hansen, P. Pracht,
     J. Seibert, S. Spicher, S. Grimme, WIREs Comput. Mol. Sci., 2020, 11,
     e01493. DOI: 10.1002/wcms.1493
   
   for GFN2-xTB:
   * C. Bannwarth, S. Ehlert and S. Grimme., J. Chem. Theory Comput., 2019,
     15, 1652-1671. DOI: 10.1021/acs.jctc.8b01176
   for GFN1-xTB:
   * S. Grimme, C. Bannwarth, P. Shushkov, J. Chem. Theory Comput., 2017,
     13, 1989-2009. DOI: 10.1021/acs.jctc.7b00118
   for GFN0-xTB:
   * P. Pracht, E. Caldeweyher, S. Ehlert, S. Grimme, ChemRxiv, 2019, preprint.
     DOI: 10.26434/chemrxiv.8326202.v1
   for GFN-FF:
   * S. Spicher and S. Grimme, Angew. Chem. Int. Ed., 2020, 59, 15665-15673.
     DOI: 10.1002/anie.202004239
   
   for ALPB and GBSA implicit solvation:
   * S. Ehlert, M. Stahn, S. Spicher, S. Grimme, J. Chem. Theory Comput.,
     2021, 17, 4250-4261. DOI: 10.1021/acs.jctc.1c00471
   
   for ddCOSMO and CPCM-X implicit solvation:
   * M. Stahn, S. Ehlert, S. Grimme, J. Phys. Chem. A,
     2023, XX, XXXX-XXXX. DOI: 10.1021/acs.jpca.3c04382
   
   for DFT-D4:
   * E. Caldeweyher, C. Bannwarth and S. Grimme, J. Chem. Phys., 2017,
     147, 034112. DOI: 10.1063/1.4993215
   * E. Caldeweyher, S. Ehlert, A. Hansen, H. Neugebauer, S. Spicher,
     C. Bannwarth and S. Grimme, J. Chem. Phys., 2019, 150, 154122.
     DOI: 10.1063/1.5090222
   * E. Caldeweyher, J.-M. Mewes, S. Ehlert and S. Grimme, Phys. Chem. Chem. Phys.
     2020, 22, 8499-8512. DOI: 10.1039/D0CP00502A
   
   for sTDA-xTB:
   * S. Grimme and C. Bannwarth, J. Chem. Phys., 2016, 145, 054103.
     DOI: 10.1063/1.4959605
   
   in the mass-spec context:
   * V. Asgeirsson, C. Bauer and S. Grimme, Chem. Sci., 2017, 8, 4879.
     DOI: 10.1039/c7sc00601b
   * J. Koopman and S. Grimme, ACS Omega 2019, 4, 12, 15120-15133.
     DOI: 10.1021/acsomega.9b02011
   
   for metadynamics refer to:
   * S. Grimme, J. Chem. Theory Comput., 2019, 155, 2847-2862
     DOI: 10.1021/acs.jctc.9b00143
   
   for SPH calculations refer to:
   * S. Spicher and S. Grimme, J. Chem. Theory Comput., 2021, 17, 1701-1714
     DOI: 10.1021/acs.jctc.0c01306
   
   for ONIOM refer to:
   * C. Plett, A. Katbashev, S. Ehlert, S. Grimme, M. Bursch,
     Phys. Chem. Chem. Phys., 2023, 25, 17860-17868. DOI: 10.1039/D3CP02178E
   
   for DIPRO refer to:
   * J. Kohn, N. Gildemeister, S. Grimme, D. Fazzi, A. Hansen,
     J. Chem. Phys., 2023, just accepted.
   
   for PTB refer to:
   * S. Grimme, M. Mueller, A. Hansen, J. Chem. Phys., 2023, 158, 124111.
     DOI: 10.1063/5.0137838
   
   with help from (in alphabetical order)
   P. Atkinson, C. Bannwarth, F. Bohle, G. Brandenburg, E. Caldeweyher
   M. Checinski, S. Dohm, S. Ehlert, S. Ehrlich, I. Gerasimov, C. Hölzer
   A. Katbashev, J. Kohn, J. Koopman, C. Lavigne, S. Lehtola, F. März, M. Müller,
   F. Musil, H. Neugebauer, J. Pisarek, C. Plett, P. Pracht, F. Pultar,
   J. Seibert, P. Shushkov, S. Spicher, M. Stahn, M. Steiner, T. Strunk,
   J. Stückrath, T. Rose, and J. Unsleber
   
 * started run on 2025/04/16 at 09:47:35.217     
   ID    Z sym.   atoms
    1    6 C      1-6, 8-13
    2   17 Cl     7, 14-17
    3    1 H      18-22

           -------------------------------------------------
          |                Calculation Setup                |
           -------------------------------------------------

          program call               : /software/projects/pawsey0265/mwang1/xtb/bin/xtb xtb_opt.coord --opt normal --orca -I xtb_opt-xcontrol-inp
          hostname                   : nid002546
          coordinate file            : xtb_opt.coord
          omp threads                :                     6

           -------------------------------------------------
          |                   Orca driver                   |
           -------------------------------------------------
orca executable           : /software/projects/pawsey0265/mwang1/orca_avx2/orca
orca input file           : xtb_opt.inp
orca input line           : 
orca parallel             : true
orca number of threads    : 6
                         * ORCA takes the control...
  ------------------------------------------------------------------------

                                 *****************
                                 * O   R   C   A *
                                 *****************

                                            #,                                       
                                            ###                                      
                                            ####                                     
                                            #####                                    
                                            ######                                   
                                           ########,                                 
                                     ,,################,,,,,                         
                               ,,#################################,,                 
                          ,,##########################################,,             
                       ,#########################################, ''#####,          
                    ,#############################################,,   '####,        
                  ,##################################################,,,,####,       
                ,###########''''           ''''###############################       
              ,#####''   ,,,,##########,,,,          '''####'''          '####       
            ,##' ,,,,###########################,,,                        '##       
           ' ,,###''''                  '''############,,,                           
         ,,##''                                '''############,,,,        ,,,,,,###''
      ,#''                                            '''#######################'''  
     '                                                          ''''####''''         
             ,#######,   #######,   ,#######,      ##                                
            ,#'     '#,  ##    ##  ,#'     '#,    #''#        ,####,   ,####,        
            ##       ##  ##   ,#'  ##            #'  '#       #'       #'  '#        
            ##       ##  #######   ##           ,######,      #####,   #    #        
            '#,     ,#'  ##    ##  '#,     ,#' ,#      #,     #,   #   #,  ,#        
             '#######'   ##     ##  '#######'  #'      '#     '####' # '####'        



                #########################################################
                #                        -***-                          #
                #          Department of theory and spectroscopy        #
                #                                                       #
                #                      Frank Neese                      #
                #                                                       #
                #     Directorship, Architecture, Infrastructure        #
                #                    SHARK, DRIVERS                     #
                #        Core code/Algorithms in most modules           #
                #                                                       #
                #        Max Planck Institute fuer Kohlenforschung      #
                #                Kaiser Wilhelm Platz 1                 #
                #                 D-45470 Muelheim/Ruhr                 #
                #                      Germany                          #
                #                                                       #
                #                  All rights reserved                  #
                #                        -***-                          #
                #########################################################


                         Program Version 6.0.1  -  RELEASE   -


 With contributions from (in alphabetic order):
[Max-Planck-Institut fuer Kohlenforschung]                               
  Daniel Aravena         : Magnetic Suceptibility                        
  Michael Atanasov       : Ab Initio Ligand Field Theory (pilot matlab implementation)
  Alexander A. Auer      : GIAO ZORA, VPT2 properties, NMR spectrum      
  Ute Becker             : All parallelization in ORCA, NUMFREQ, NUMCALC 
  Giovanni Bistoni       : ED, misc. LED, open-shell LED, HFLD           
  Martin Brehm           : Molecular dynamics                            
  Dmytro Bykov           : pre 5.0 version of the SCF Hessian            
  Marcos Casanova-Páez   : Triplet and SCS-CIS(D). UHF-(DLPNO)-IP/EA/STEOM-CCSD. UHF-CVS-IP/STEOM-CCSD   
  Vijay G. Chilkuri      : MRCI spin determinant printing, contributions to CSF-ICE 
  Pauline Colinet        : FMM embedding                                 
  Dipayan Datta          : RHF DLPNO-CCSD density                        
  Achintya Kumar Dutta   : EOM-CC, STEOM-CC                              
  Nicolas Foglia         : Exact transition moments, OPA infrastructure, MCD improvements    
  Dmitry Ganyushin       : Spin-Orbit,Spin-Spin,Magnetic field MRCI      
  Miquel Garcia-Rates    : C-PCM and meta-GGA Hessian, CCSD/C-PCM, Gaussian charge scheme 
  Tiago L. C. Gouveia    : GS-ROHF, GS-ROCIS                             
  Yang Guo               : DLPNO-NEVPT2, F12-NEVPT2, CIM, IAO-localization        
  Andreas Hansen         : Spin unrestricted coupled pair/coupled cluster methods 
  Ingolf Harden          : AUTO-CI MPn and infrastructure                
  Benjamin Helmich-Paris : MC-RPA, TRAH-(SCF,CASSCF), AVAS, COSX integrals, SCF dyn. polar. 
  Lee Huntington         : MR-EOM, pCC                                   
  Robert Izsak           : Overlap fitted RIJCOSX, COSX-SCS-MP3, EOM     
  Riya Kayal             : Wick's Theorem for AUTO-CI, AUTO-CI UHF-CCSDT 
  Emily Kempfer          : AUTO-CI, RHF CISDT and CCSDT                  
  Christian Kollmar      : KDIIS, OOCD, Brueckner-CCSD(T), CCSD density, CASPT2, CASPT2-K, improved NEVPT2 
  Axel Koslowski         : Symmetry handling                             
  Simone Kossmann        : meta-GGA functionals, TD-DFT gradient, OOMP2, (MP2 Hessian; deprecated post 5.0) 
  Lucas Lang             : DCDCAS                                        
  Marvin Lechner         : AUTO-CI (C++ implementation), FIC-MRCC        
  Spencer Leger          : CASSCF response                               
  Dagmar Lenk            : GEPOL surface, SMD, ORCA-2-JSON               
  Dimitrios Liakos       : Extrapolation schemes; Compound Job, initial MDCI parallelization 
  Dimitrios Manganas     : Further ROCIS development; embedding schemes. LFT, Crystal Embedding 
  Dimitrios Pantazis     : SARC Basis sets                               
  Anastasios Papadopoulos: AUTO-CI, single reference methods and gradients 
  Taras Petrenko         : pre 6.0 DFT Hessian and TD-DFT gradient, (ASA, deprecated), ECA, 1-Electron XAS/XES, NRVS 
  Peter Pinski           : DLPNO-MP2, DLPNO-MP2 Gradient                 
  Christoph Reimann      : Effective Core Potentials                     
  Marius Retegan         : Local ZFS, SOC                                
  Christoph Riplinger    : Optimizer, TS searches, QM/MM, DLPNO-CCSD(T), (RO)-DLPNO pert. Triples 
  Michael Roemelt        : Original ROCIS implementation                 
  Masaaki Saitow         : Open-shell DLPNO-CCSD energy and density      
  Barbara Sandhoefer     : DKH picture change effects                    
  Kantharuban Sivalingam : CASSCF convergence/infrastructure, NEVPT2 and variants, FIC-MRCI 
  Bernardo de Souza      : ESD, SOC TD-DFT                               
  Georgi L. Stoychev     : AutoAux, RI-MP2 NMR, DLPNO-MP2 response, X2C  
  Van Anh Tran           : RI-MP2 g-tensors                              
  Willem Van den Heuvel  : Paramagnetic NMR                              
  Zikuan Wang            : NOTCH, Electric field optimization            
  Frank Wennmohs         : Technical directorship and infrastructure     
  Hang Xu                : AUTO-CI-Response properties                   
                                                                         
[FACCTs GmbH]                                                            
  Markus Bursch, Miquel Garcia-Rates, Christoph Riplinger, Bernardo de Souza, Georgi L. Stoychev 
                                                                 
  APM, Basis sets (HGBS, AHGBS, def-TZVP (Ac-Lr), def2-XVPD (La-Lu)), CI-OPT, improved COSX, DLPNO-Multilevel,           
  DOCKER, DRACO, updates on ESD, GOAT, IRC, LR-CPCM, MBIS, meta-GGA TD-DFT gradient, ML-optimized integration grids, 
  MM, NACMEs, nearIR, NEB, NEB-TS, NL-DFT gradient (VV10), 2- and 3-layer-ONIOM, interface openCOSMO-RS, QMMM,   
  Crystal-QMMM, SF, symmetry and pop. for TD-DFT, r2SCAN hybrids, SOLVATOR                                   
                                                                         
[Other institutions]                                                     
  V. Asgeirsson          : NEB                                           
  Christoph Bannwarth    : sTDA-DFT, sTD-DFT, PBEh-3c, B97-3c, D3        
  Sebastian Ehlert       : rSCAN, r2SCAN, r2SCAN-3c, D4, dhf basis sets  
  Marvin Friede          : D4 for Fr, Ra, Ac-Lr                          
  Lars Goerigk           : TD-DFT with DH, B97 family of functionals     
  Stefan Grimme          : VdW corrections, initial TS optimization, DFT functionals, gCP, sTDA/sTD-DF 
  Waldemar Hujo          : DFT-NL                                        
  H. Jonsson             : NEB                                           
  Holger Kruse           : gCP                                           
  Marcel Mueller         : wB97X-3c, vDZP basis set                      
  Hagen Neugebauer       : wr2SCAN                                       
  Tobias Risthaus        : range-separated hybrid DFT                    
  Lukas Wittmann         : regularized MP2, r2SCAN double-hybrids, wr2SCAN        
                                                                         
We gratefully acknowledge several colleagues who have allowed us to      
interface, adapt or use parts of their codes:                            
  Ed Valeev, F. Pavosevic, A. Kumar             : LibInt (2-el integral package), F12 methods 
  Garnet Chan, S. Sharma, J. Yang, R. Olivares  : DMRG                   
  Ulf Ekstrom                                   : XCFun DFT Library      
  Mihaly Kallay                                 : mrcc  (arbitrary order and MRCC methods)
  Frank Weinhold                                : gennbo (NPA and NBO analysis)           
  Simon Mueller                                 : openCOSMO-RS                            
  Christopher J. Cramer and Donald G. Truhlar   : smd solvation model                     
  S Lehtola, MJT Oliveira, MAL Marques          : LibXC Library                           
  Liviu Ungur et al                             : ANISO software                          


 Your calculation uses the libint2 library for the computation of 2-el integrals
 For citations please refer to: http://libint.valeyev.net

 Your ORCA version has been built with support for libXC version: 6.2.2
 For citations please refer to: https://libxc.gitlab.io

 This ORCA versions uses:
   CBLAS   interface :  Fast vector & matrix operations
   LAPACKE interface :  Fast linear algebra routines
   SCALAPACK package :  Parallel linear algebra routines
   Shared memory     :  Shared parallel matrices
   BLAS/LAPACK       :  OpenBLAS 0.3.27  USE64BITINT DYNAMIC_ARCH NO_AFFINITY Zen SINGLE_THREADED
        Core in use  :  Zen
   Copyright (c) 2011-2014, The OpenBLAS Project




***************************************
The coordinates will be read from file: xtb_opt.xyz
***************************************


Your calculation utilizes the geometrical counterpoise correction gCP
Please cite in your paper:
H.Kruse, S. Grimme J.Chem.Phys., 136, (2012), 154101 
   

Your calculation utilizes the atom-pairwise dispersion correction
based on EEQ partial charges (D4)


================================================================================

----- Orbital basis set information -----
Your calculation utilizes the basis: def2-mTZVPP
   Stefan Grimme, Andreas Hansen, Sebastian Ehlert, and Jan-Michael Mewes 
   J. Chem. Phys. 154, 064103 (2021). DOI: 10.1063/5.0040021

----- AuxJ basis set information -----
Your calculation utilizes the auxiliary basis: def2/J
   F. Weigend, Phys. Chem. Chem. Phys. 8, 1057 (2006).

================================================================================
                                        WARNINGS
                       Please study these warnings very carefully!
================================================================================



WARNING: SCAN, rSCAN, or r2SCAN functional requested.
  ===> : libXC variant has now been activated.



================================================================================
                                       INPUT FILE
================================================================================
NAME = xtb_opt.inp
|  1> ! r2scan-3c def2/J RI DEFGRID2 scfconv7 ENGRAD tightSCF miniprint
|  2> * xyzfile 0 1 xtb_opt.xyz
|  3> 
|  4>                          ****END OF INPUT****
================================================================================

                     *******************************
                     * Energy+Gradient Calculation *
                     *******************************

---------------------------------
CARTESIAN COORDINATES (ANGSTROEM)
---------------------------------
  C     -4.380345    0.505178   -0.164263
  C     -3.564754    1.494641   -0.680151
  C     -2.185534    1.358452   -0.634005
  C     -1.595782    0.225113   -0.071434
  C     -2.426754   -0.771546    0.431784
  C     -3.803020   -0.628561    0.388215
  Cl    -4.806734   -1.876310    1.028580
  C     -0.133648    0.048547   -0.005627
  C      0.442446   -1.117852   -0.497916
  C      1.814198   -1.296597   -0.440863
  C      2.635636   -0.318361    0.117443
  C      2.049070    0.842258    0.620563
  C      0.678137    1.026129    0.559407
  Cl     3.037716    2.057922    1.326718
  Cl     4.336156   -0.540182    0.187653
  Cl     2.510417   -2.739526   -1.064673
  Cl    -1.207285    2.595633   -1.338611
  H     -5.452875    0.609588   -0.194528
  H     -3.996979    2.377211   -1.124130
  H     -1.987991   -1.652342    0.873505
  H     -0.173843   -1.881824   -0.944347
  H      0.248164    1.926399    0.967525

----------------------------
CARTESIAN COORDINATES (A.U.)
----------------------------
  NO LB      ZA    FRAG     MASS         X           Y           Z
   0 C     6.0000    0    12.011   -8.277653    0.954647   -0.310412
   1 C     6.0000    0    12.011   -6.736409    2.824463   -1.285299
   2 C     6.0000    0    12.011   -4.130061    2.567103   -1.198095
   3 C     6.0000    0    12.011   -3.015590    0.425402   -0.134990
   4 C     6.0000    0    12.011   -4.585901   -1.458011    0.815953
   5 C     6.0000    0    12.011   -7.186666   -1.187807    0.733619
   6 Cl   17.0000    0    35.453   -9.083410   -3.545712    1.943734
   7 C     6.0000    0    12.011   -0.252558    0.091741   -0.010633
   8 C     6.0000    0    12.011    0.836101   -2.112434   -0.940925
   9 C     6.0000    0    12.011    3.428337   -2.450214   -0.833111
  10 C     6.0000    0    12.011    4.980629   -0.601614    0.221934
  11 C     6.0000    0    12.011    3.872181    1.591637    1.172694
  12 C     6.0000    0    12.011    1.281493    1.939103    1.057126
  13 Cl   17.0000    0    35.453    5.740451    3.888910    2.507133
  14 Cl   17.0000    0    35.453    8.194147   -1.020796    0.354613
  15 Cl   17.0000    0    35.453    4.744000   -5.176953   -2.011940
  16 Cl   17.0000    0    35.453   -2.281437    4.905035   -2.529608
  17 H     1.0000    0     1.008  -10.304440    1.151954   -0.367605
  18 H     1.0000    0     1.008   -7.553196    4.492277   -2.124298
  19 H     1.0000    0     1.008   -3.756758   -3.122474    1.650685
  20 H     1.0000    0     1.008   -0.328515   -3.556132   -1.784558
  21 H     1.0000    0     1.008    0.468963    3.640367    1.828357

------------------------------------------------------------------------------
                   ___                                                        
                  /   \      - P O W E R E D   B Y -                         
                 /     \                                                     
                 |  |  |   _    _      __       _____    __    __             
                 |  |  |  | |  | |    /  \     |  _  \  |  |  /  |          
                  \  \/   | |  | |   /    \    | | | |  |  | /  /          
                 / \  \   | |__| |  /  /\  \   | |_| |  |  |/  /          
                |  |  |   |  __  | /  /__\  \  |    /   |      \           
                |  |  |   | |  | | |   __   |  |    \   |  |\   \          
                \     /   | |  | | |  |  |  |  | |\  \  |  | \   \       
                 \___/    |_|  |_| |__|  |__|  |_| \__\ |__|  \__/        
                                                                              
                      - O R C A' S   B I G   F R I E N D -                    
                                      &                                       
                       - I N T E G R A L  F E E D E R -                       
                                                                              
 v1 FN, 2020, v2 2021, v3 2022-2024                                           
------------------------------------------------------------------------------


----------------------
SHARK INTEGRAL PACKAGE
----------------------

Number of atoms                             ...     22
Number of basis functions                   ...    388
Number of shells                            ...    178
Maximum angular momentum                    ...      2
Integral batch strategy                     ... SHARK/LIBINT Hybrid
RI-J (if used) integral strategy            ... SPLIT-RIJ (Revised 2003 algorithm where possible)
Printlevel                                  ...      1
Contraction scheme used                     ... SEGMENTED contraction
Prescreening option                         ... SCHWARTZ
   Thresh                                   ... 3.000e-11
   Tcut                                     ... 1.000e-12
   Tpresel                                  ... 1.000e-12 
Coulomb Range Separation                    ... NOT USED
Exchange Range Separation                   ... NOT USED
Multipole approximations                    ... NOT USED
Finite Nucleus Model                        ... NOT USED
CABS basis                                  ... NOT available
Auxiliary Coulomb fitting basis             ... AVAILABLE
   # of basis functions in Aux-J            ...    898
   # of shells in Aux-J                     ...    290
   Maximum angular momentum in Aux-J        ...      4
Auxiliary J/K fitting basis                 ... NOT available
Auxiliary Correlation fitting basis         ... NOT available
Auxiliary 'external' fitting basis          ... NOT available

Checking pre-screening integrals            ... done (  0.0 sec) Dimension = 178
Check shell pair data                       ... done (  0.0 sec)
Shell pair information
Shell pair cut-off parameter TPreSel        ...   1.0e-12
Total number of shell pairs                 ...     15931
Shell pairs after pre-screening             ...     11911
Total number of primitive shell pairs       ...     67640
Primitive shell pairs kept                  ...     31137
          la=0 lb=0:   3171 shell pairs
          la=1 lb=0:   4483 shell pairs
          la=1 lb=1:   1569 shell pairs
          la=2 lb=0:   1461 shell pairs
          la=2 lb=1:   1043 shell pairs
          la=2 lb=2:    184 shell pairs

Calculating one electron integrals          ... done (  0.1 sec)
Calculating RI/J V-Matrix + Cholesky decomp.... done (  0.0 sec)
Calculating Nuclear repulsion               ... done (  0.0 sec) ENN=   1699.847544378111 Eh

Diagonalization of the overlap matrix:
Smallest eigenvalue                        ... 1.605e-05
Time for diagonalization                   ...    0.016 sec
Threshold for overlap eigenvalues          ... 1.000e-07
Number of eigenvalues below threshold      ... 0
Time for construction of square roots      ...    0.010 sec
Total time needed                          ...    0.027 sec

-------------------
DFT GRID GENERATION
-------------------

General Integration Accuracy     IntAcc      ... 4.388
Radial Grid Type                 RadialGrid  ... OptM3 with GC (2021)
Angular Grid (max. ang.)         AngularGrid ... 4 (Lebedev-302)
Angular grid pruning method      GridPruning ... 4 (adaptive)
Weight generation scheme         WeightScheme... mBecke (2022)
Basis function cutoff            BFCut       ... 1.0000e-11
Integration weight cutoff        WCut        ... 1.0000e-14
Partially contracted basis set               ... off
Rotationally invariant grid construction     ... off
Angular grids for H and He will be reduced by one unit

Total number of grid points                  ...   124200
Total number of batches                      ...     1953
Average number of points per batch           ...       63
Average number of grid points per atom       ...     5645
Initializing property integral containers    ... done (  0.0 sec)

SHARK setup successfully completed in   1.8 seconds

Maximum memory used throughout the entire STARTUP-calculation: 65.7 MB
Occupation numbers will be reassigned to an Aufbau configuration
             **** ENERGY FILE WAS UPDATED (xtb_opt.en.tmp) ****
Finished Guess after   0.1 sec
Maximum memory used throughout the entire GUESS-calculation: 35.2 MB
----------------------------------------D-I-I-S--------------------------------------------
Iteration    Energy (Eh)           Delta-E    RMSDP     MaxDP     DIISErr   Damp  Time(sec)
-------------------------------------------------------------------------------------------
               ***  Starting incremental Fock matrix formation  ***
                              *** Initializing SOSCF ***
---------------------------------------S-O-S-C-F--------------------------------------
Iteration    Energy (Eh)           Delta-E    RMSDP     MaxDP     MaxGrad    Time(sec)
--------------------------------------------------------------------------------------
    1    -2761.0673015046158980     0.00e+00  7.24e-06  2.58e-04  2.75e-05     4.9
               *** Restarting incremental Fock matrix formation ***
    2    -2761.0673014841186159     2.05e-08  1.14e-05  5.66e-04  4.32e-05     4.9
    3    -2761.0673007621207944     7.22e-07  8.46e-06  4.70e-04  1.41e-04     3.3
    4    -2761.0673016058171925    -8.44e-07  3.98e-06  2.74e-04  1.42e-05     3.3
                  *** Gradient check signals convergence ***

               *****************************************************
               *                     SUCCESS                       *
               *           SCF CONVERGED AFTER   4 CYCLES          *
               *****************************************************

             **** ENERGY FILE WAS UPDATED (xtb_opt.en.tmp) ****

----------------
TOTAL SCF ENERGY
----------------

Total Energy       :      -2761.06730160581719 Eh          -75132.46094 eV

Components:
Nuclear Repulsion  :       1699.84754437811148 Eh           46255.20325 eV
Electronic Energy  :      -4460.91484598392890 Eh         -121387.66419 eV
One Electron Energy:      -7182.15605400187269 Eh         -195436.40202 eV
Two Electron Energy:       2721.24120801794334 Eh           74048.73784 eV

Virial components:
Potential Energy   :      -5515.16070781153394 Eh         -150075.15253 eV
Kinetic Energy     :       2754.09340620571720 Eh           74942.69160 eV
Virial Ratio       :          2.00253219276601

DFT components:
N(Alpha)           :       81.000026266306 electrons
N(Beta)            :       81.000026266306 electrons
N(Total)           :      162.000052532612 electrons
E(X)               :     -202.117925137892 Eh       
E(C)               :       -5.875956903647 Eh       
E(XC)              :     -207.993882041539 Eh       

---------------
SCF CONVERGENCE
---------------

  Last Energy change         ...    8.4370e-07  Tolerance :   1.0000e-07
  Last MAX-Density change    ...    2.7362e-04  Tolerance :   1.0000e-07
  Last RMS-Density change    ...    3.9837e-06  Tolerance :   5.0000e-09
  Last DIIS Error            ...    1.0572e-04  Tolerance :   1.0000e-07
  Last Orbital Gradient      ...    1.4210e-05  Tolerance :   1.0000e-04
  Last Orbital Rotation      ...    6.3758e-05  Tolerance :   1.0000e-04


----------------
ORBITAL ENERGIES
----------------

  NO   OCC          E(Eh)            E(eV) 
   0   2.0000    -101.238347     -2754.8355 
   1   2.0000    -101.238077     -2754.8281 
   2   2.0000    -101.237296     -2754.8069 
   3   2.0000    -101.236590     -2754.7877 
   4   2.0000    -101.235670     -2754.7626 
   5   2.0000     -10.129515      -275.6381 
   6   2.0000     -10.128494      -275.6103 
   7   2.0000     -10.128038      -275.5979 
   8   2.0000     -10.122363      -275.4435 
   9   2.0000     -10.120722      -275.3988 
  10   2.0000     -10.087135      -274.4849 
  11   2.0000     -10.083812      -274.3945 
  12   2.0000     -10.072470      -274.0859 
  13   2.0000     -10.072401      -274.0840 
  14   2.0000     -10.071390      -274.0565 
  15   2.0000     -10.071251      -274.0527 
  16   2.0000     -10.070301      -274.0268 
  17   2.0000      -9.394113      -255.6268 
  18   2.0000      -9.393985      -255.6233 
  19   2.0000      -9.393218      -255.6024 
  20   2.0000      -9.392701      -255.5884 
  21   2.0000      -9.391695      -255.5610 
  22   2.0000      -7.140748      -194.3096 
  23   2.0000      -7.140456      -194.3017 
  24   2.0000      -7.139686      -194.2807 
  25   2.0000      -7.138971      -194.2613 
  26   2.0000      -7.137935      -194.2331 
  27   2.0000      -7.130455      -194.0296 
  28   2.0000      -7.130270      -194.0245 
  29   2.0000      -7.129507      -194.0038 
  30   2.0000      -7.129478      -194.0030 
  31   2.0000      -7.129386      -194.0005 
  32   2.0000      -7.129019      -193.9905 
  33   2.0000      -7.128706      -193.9820 
  34   2.0000      -7.128319      -193.9714 
  35   2.0000      -7.127952      -193.9614 
  36   2.0000      -7.127442      -193.9476 
  37   2.0000      -0.915781       -24.9197 
  38   2.0000      -0.897342       -24.4179 
  39   2.0000      -0.864268       -23.5179 
  40   2.0000      -0.863104       -23.4863 
  41   2.0000      -0.839292       -22.8383 
  42   2.0000      -0.820558       -22.3285 
  43   2.0000      -0.804496       -21.8915 
  44   2.0000      -0.766570       -20.8594 
  45   2.0000      -0.724087       -19.7034 
  46   2.0000      -0.719615       -19.5817 
  47   2.0000      -0.701320       -19.0839 
  48   2.0000      -0.632070       -17.1995 
  49   2.0000      -0.609368       -16.5817 
  50   2.0000      -0.596183       -16.2230 
  51   2.0000      -0.570376       -15.5207 
  52   2.0000      -0.517458       -14.0807 
  53   2.0000      -0.500362       -13.6156 
  54   2.0000      -0.496722       -13.5165 
  55   2.0000      -0.475861       -12.9488 
  56   2.0000      -0.467222       -12.7138 
  57   2.0000      -0.449831       -12.2405 
  58   2.0000      -0.433986       -11.8094 
  59   2.0000      -0.432222       -11.7614 
  60   2.0000      -0.429320       -11.6824 
  61   2.0000      -0.421319       -11.4647 
  62   2.0000      -0.404997       -11.0205 
  63   2.0000      -0.394692       -10.7401 
  64   2.0000      -0.377715       -10.2781 
  65   2.0000      -0.369597       -10.0572 
  66   2.0000      -0.365116        -9.9353 
  67   2.0000      -0.360147        -9.8001 
  68   2.0000      -0.358087        -9.7440 
  69   2.0000      -0.335919        -9.1408 
  70   2.0000      -0.317385        -8.6365 
  71   2.0000      -0.316161        -8.6032 
  72   2.0000      -0.307914        -8.3788 
  73   2.0000      -0.305414        -8.3107 
  74   2.0000      -0.300968        -8.1898 
  75   2.0000      -0.299278        -8.1438 
  76   2.0000      -0.283270        -7.7082 
  77   2.0000      -0.274084        -7.4582 
  78   2.0000      -0.245571        -6.6823 
  79   2.0000      -0.244311        -6.6480 
  80   2.0000      -0.232560        -6.3283 
  81   0.0000      -0.086503        -2.3539 
  82   0.0000      -0.068996        -1.8775 
  83   0.0000      -0.064901        -1.7661 
  84   0.0000      -0.045706        -1.2437 
  85   0.0000      -0.042818        -1.1651 
  86   0.0000      -0.008862        -0.2411 
  87   0.0000       0.008143         0.2216 
  88   0.0000       0.022940         0.6242 
  89   0.0000       0.041747         1.1360 
  90   0.0000       0.068667         1.8685 
  91   0.0000       0.070535         1.9193 
*Only the first 10 virtual orbitals were printed.
Total SCF time: 0 days 0 hours 0 min 16 sec 
Finished LeanSCF after  16.9 sec

Maximum memory used throughout the entire LEANSCF-calculation: 47.7 MB


-------------------------------------------------------------------------------
                          DFT DISPERSION CORRECTION                            
                                                                               
                                DFTD4 V3.4.0                                   
-------------------------------------------------------------------------------
-------------------------   ----------------
Dispersion correction           -0.013326068
-------------------------   ----------------

------------------   -----------------
gCP correction             0.010967636
------------------   -----------------

-------------------------   --------------------
FINAL SINGLE POINT ENERGY     -2761.069660037901
-------------------------   --------------------

------------------------------------------------------------------------------
                         ORCA SCF GRADIENT CALCULATION
------------------------------------------------------------------------------

Nuc. rep. gradient        (SHARK) ... done (  0.0 sec)
HCore & Overlap gradient  (SHARK) ... done (  0.7 sec)
Split-RIJ-J gradient      (SHARK) ... done (  5.5 sec)
XC gradient                       ... done ( 12.1 sec)
Dispersion correction             ... done (  0.0 sec)

-------------------
DISPERSION GRADIENT
-------------------

   1   C   :   -0.000122018    0.000010753   -0.000002201
   2   C   :   -0.000098498    0.000080510   -0.000043258
   3   C   :   -0.000071511    0.000094846   -0.000050492
   4   C   :   -0.000063852    0.000016973   -0.000006819
   5   C   :   -0.000095468   -0.000076537    0.000043999
   6   C   :   -0.000120122   -0.000051412    0.000033960
   7   Cl  :   -0.000142742   -0.000134074    0.000076381
   8   C   :    0.000012800   -0.000004030    0.000002835
   9   C   :    0.000039274   -0.000113786   -0.000041413
  10   C   :    0.000085029   -0.000100827   -0.000036750
  11   C   :    0.000107933   -0.000022374    0.000009502
  12   C   :    0.000107678    0.000055948    0.000058757
  13   C   :    0.000051659    0.000081428    0.000055973
  14   Cl  :    0.000145874    0.000154769    0.000114226
  15   Cl  :    0.000197915   -0.000028480    0.000009551
  16   Cl  :    0.000090311   -0.000191917   -0.000087542
  17   Cl  :   -0.000042620    0.000244916   -0.000149140
  18   H   :   -0.000046269    0.000005416   -0.000001592
  19   H   :   -0.000029982    0.000039006   -0.000020855
  20   H   :   -0.000028958   -0.000052602    0.000033354
  21   H   :    0.000008745   -0.000062894   -0.000032622
  22   H   :    0.000014822    0.000054370    0.000034148

Difference to translation invariance:
           :   -0.0000000000   -0.0000000000    0.0000000000

Difference to rotation invariance:
           :    0.0000000000    0.0000000000   -0.0000000000

Norm of the Dispersion gradient    ...    0.0006824033
RMS gradient                       ...    0.0000839980
MAX gradient                       ...    0.0002449165
gCP correction                   ... done

------------------
CARTESIAN GRADIENT
------------------

   1   C   :    0.001510678    0.001208726   -0.000659865
   2   C   :   -0.000497791   -0.001889389    0.000320421
   3   C   :    0.004099229    0.003815105   -0.002457632
   4   C   :   -0.004747168   -0.000834544   -0.000026788
   5   C   :    0.001554047    0.001320222   -0.000601926
   6   C   :   -0.004360184   -0.004775485    0.003210409
   7   Cl  :    0.006592927    0.007935710   -0.004174056
   8   C   :   -0.000047494    0.001430542    0.000093376
   9   C   :    0.001090474    0.000194668    0.000110448
  10   C   :    0.001259887   -0.003129867   -0.002187705
  11   C   :   -0.001733650    0.000960691    0.000395166
  12   C   :    0.004025041    0.002468945    0.001537058
  13   C   :   -0.001039986   -0.000245057   -0.001908692
  14   Cl  :   -0.003296361   -0.008362463   -0.004593405
  15   Cl  :   -0.006562380    0.000828910   -0.000207960
  16   Cl  :   -0.001302487    0.008889895    0.004273555
  17   Cl  :   -0.003220442   -0.009477374    0.006454499
  18   H   :    0.003905243   -0.000540877    0.000176722
  19   H   :    0.001770928   -0.002977577    0.001753313
  20   H   :   -0.001565179    0.002989035   -0.002030585
  21   H   :    0.001896146    0.002758051    0.002034958
  22   H   :    0.000668523   -0.002567868   -0.001511312

Difference to translation invariance:
           :    0.0000000000    0.0000000000    0.0000000000

Difference to rotation invariance:
           :   -0.0000811183    0.0003352601    0.0001019528

Norm of the Cartesian gradient     ...    0.0275607264
RMS gradient                       ...    0.0033924909
MAX gradient                       ...    0.0094773736

-------
TIMINGS
-------

Total SCF gradient time     ....       18.404 sec

Densities                   ....       0.003 sec  (  0.0%)
One electron gradient       ....       0.718 sec  (  3.9%)
RI-J Coulomb gradient       ....       5.528 sec  ( 30.0%)
XC gradient                 ....      12.118 sec  ( 65.8%)

Maximum memory used throughout the entire SCFGRAD-calculation: 55.8 MB

------------------------------------------------------------------------------
                              ORCA PROPERTY CALCULATIONS
------------------------------------------------------------------------------

GBWName                                 ... xtb_opt.gbw
Number of atoms                         ...     22
Number of basis functions               ...    388
Max core memory                         ...   1024 MB

Electric properties:
Dipole moment                           ... YES
Quadrupole moment                       ...  NO
Static polarizability (Dipole/Dipole)   ...  NO
Static polarizability (Dipole/Quad.)    ...  NO
Static polarizability (Quad./Quad.)     ...  NO
Static polarizability (Velocity)        ...  NO

Atomic electric properties:
Dipole moment                           ...  NO
Quadrupole moment                       ...  NO
Static polarizability                   ...  NO

Choice of electric origin               ... Center of mass
Position of electric origin             ...    -0.000007     0.000001    -0.000000

General magnetic properties:
Magnetizability                         ...  NO

EPR properties:
g-Tensor (aka g-matrix)                 ...  NO
Zero-Field splitting spin-orbit         ...  NO
Zero-field splitting spin-spin          ...  NO
Hyperfine couplings                     ...  NO (   0 nuclei)
Quadrupole couplings                    ...  NO (   0 nuclei)
Contact density                         ...  NO (   0 nuclei)

NMR properties:
Chemical shifts                         ...  NO (   0 nuclei)
Spin-rotation constants                 ...  NO (   0 nuclei)
Spin-spin couplings                     ...  NO (   0 nuclei,    0 pairs)

Choice of magnetic origin               ... GIAO
Position of magnetic origin             ...     0.000000     0.000000     0.000000

Properties with geometric perturbations:
SCF Hessian                             ...  NO
IR spectrum                             ...  NO
VCD spectrum                            ...  NO
X-ray spectroscopy properties:
SCF XES/XAS/RIXS spectra                ...  NO


-------------
DIPOLE MOMENT
-------------

Method             : SCF
Type of density    : Electron Density
Multiplicity       :   1
Irrep              :   0
Energy             : -2761.0673016058171925 Eh
Relativity type    : 
Basis              : AO
                                X                 Y                 Z
Electronic contribution:     14.940346551      -1.764509244       0.525014090
Nuclear contribution   :    -15.855701782       1.968184607      -0.583350421
                        -----------------------------------------
Total Dipole Moment    :     -0.915355231       0.203675363      -0.058336331
                        -----------------------------------------
Magnitude (a.u.)       :      0.939554139
Magnitude (Debye)      :      2.388156831



--------------------
Rotational spectrum 
--------------------
 
Rotational constants in cm-1:             0.014457             0.005151             0.004253 
Rotational constants in MHz :           433.418740           154.427632           127.502986 

Dipole components along the rotational axes: 
x,y,z [a.u.] :     0.915355     0.203675    -0.058336 
x,y,z [Debye]:     2.326648     0.517701    -0.148279 

 

Dipole moment calculation done in   0.2 sec 

Maximum memory used throughout the entire PROP-calculation: 33.2 MB

--------------------------------
SUGGESTED CITATIONS FOR THIS RUN
--------------------------------

Below you find a list of papers that are relevant to this ORCA run
We neither can nor want to force you to cite these papers, but we appreciate if you do
You receive ORCA, which is the product of decades of hard work by many enthusiastic individuals, for free
The only thing we kindly ask in return is that you cite our papers,
We deeply appreciate it, if you show your appreciation for ORCA by not just citing the generic ORCA reference.

Please note that relegating all ORCA citations to the supporting information does *not* help us.
SI sections are not indexed - citations you put there will not count into any citation statistics
But we need these citations in order to attract the funding resources that allow us to do what we are doing

Therefore, if you are a happy ORCA user, please consider citing a few of the papers listed below in the main body of your paper

In addition to the list printed below, the program has created the file xtb_opt.bibtex that contains the list in bibtex format
You can import this file easily into all common literature databanks and citation aid programs


List of essential papers. We consider these as the minimum necessary citations

  1. Neese,F.
     Software update: the ORCA program system, version 5.0
     WIRES Comput. Molec. Sci., 2022 12(1)e1606
     doi.org/10.1002/wcms.1606
  2. Grimme,S.; Hansen,A.; Ehlert,S.; Mewes,J.
     r2SCAN-3c: A 'Swiss army knife' composite electronic-structure method
     J. Chem. Phys., 2021 154 064103
     doi.org/10.1063/5.0040021

List of papers to cite with high priority. The work reported in these papers was absolutely
necessary for this run to complete.
Our perspective: the developers of density functionals and basis sets usually get cited in chemistry papers
Good! But without the algorithms to do something with them, the functionals or basis sets would not do anything.
Hence, in our opinion, the algorithm design and method developments papers are equally worthy of getting cited

  1. Neese,F.
     An improvement of the resolution of the identity approximation for the formation of the Coulomb matrix
     J. Comp. Chem., 2003 24(14)1740-1747
     doi.org/10.1002/jcc.10318
  2. Neese,F.
     The SHARK Integral Generation and Digestion System
     J. Comp. Chem., 2022  1-16
     doi.org/10.1002/jcc.26942
  3. Lehtola,S.; Steigemann,C.; Oliveira,M.; Marques,M.
     Recent developments in Libxc - A comprehensive library of functionals for density functional theory
     Software X, 2018 7 
     doi.org/10.1016/j.softx.2017.11.002
  4. Caldeweyher,E.; Bannwarth,C.; Grimme,S.
     Extension of the D3 dispersion coefficient model
     J. Chem. Phys., 2017 147 034112
     doi.org/10.1063/1.4993215
  5. Caldeweyher,E.; Ehlert,S.; Hansen,A.; Neugebauer,H.; Spicher,S.; Bannwarth,C.; Grimme,S.
     A generally applicable atomic-charge dependent London dispersion correction
     J. Chem. Phys., 2019 150 154122
     doi.org/10.1063/1.5090222
  6. Caldeweyher,E.; Mewes,J.; Ehlert,S.; Grimme,S.
     Extension and evaluation of the D4 London-dispersion model for periodic systems
     Phys. Chem. Chem. Phys., 2020 22(16)8499-8512
     doi.org/10.1039/D0CP00502A
  7. Wittmann,L.; Gordiy,I.; Friede,M.; Helmich-Paris,B.; Grimme,S.; Hansen,A.; Bursch,M.
     Extension of the D3 and D4 London Dispersion Corrections to the full Actinides Series
     Phys. Chem. Chem. Phys., 2024 26(32)21379-21394
     doi.org/https://doi.org/10.1039/D4CP01514B 

List of suggested additional citations. These are papers that are important in the 'surrounding' of 
of this run, or papers that preceded the highly important papers. If you like your results we are grateful for a citation.

  1. Neese,F.
     The ORCA program system
     WIRES Comput. Molec. Sci., 2012 2(1)73-78
     doi.org/10.1002/wcms.81
  2. Neese,F.
     Software update: the ORCA program system, version 4.0
     WIRES Comput. Molec. Sci., 2018 8(1)1-6
     doi.org/10.1002/wcms.1327
  3. Neese,F.; Wennmohs,F.; Becker,U.; Riplinger,C.
     The ORCA quantum chemistry program package
     J. Chem. Phys., 2020 152 Art. No. L224108
     doi.org/10.1063/5.0004608

List of optional additional citations

  1. Neese,F.
     Approximate second-order SCF convergence for spin unrestricted wavefunctions
     Chem. Phys. Lett., 2000 325(1-3)93-98
     doi.org/10.1016/s0009-2614(00)00662-x

Timings for individual modules:

Sum of individual times          ...       37.873 sec (=   0.631 min)
Startup calculation              ...        1.850 sec (=   0.031 min)   4.9 %
SCF iterations                   ...       17.102 sec (=   0.285 min)  45.2 %
Property calculations            ...        0.264 sec (=   0.004 min)   0.7 %
SCF Gradient evaluation          ...       18.656 sec (=   0.311 min)  49.3 %
                             ****ORCA TERMINATED NORMALLY****
TOTAL RUN TIME: 0 days 0 hours 0 minutes 38 seconds 465 msec
  ------------------------------------------------------------------------
          * successful ORCA run, taking over control again...

         :::::::::::::::::::::::::::::::::::::::::::::::::::::
         ::                  ORCA SUMMARY                   ::
         :::::::::::::::::::::::::::::::::::::::::::::::::::::
         :: total energy           -2761.069660037901 Eh    ::
         :: gradient norm              0.027560726361 Eh/a0 ::
         :: HOMO-LUMO gap              0.000000000000 eV    ::
         :::::::::::::::::::::::::::::::::::::::::::::::::::::

      ----------------------------------------------------------- 
     |                       L-ANC optimizer                     |
      ----------------------------------------------------------- 
          low memory version by Sebastian Ehlert

          ...................................................
          :                      SETUP                      :
          :.................................................:
          :   energy convergence        0.5000000E-05 Eh    :
          :   grad. convergence         0.1000000E-02 Eh/a0 :
          :   optimization log               true           :
          :   writing optlog all                1     steps :
          :   Hessian reset                    20     steps :
          :   maximium step len.        1.0000000     a0    :
          :   LBFGS images                     20           :
          ...................................................
 * calculating model hessian...
Using Lindh-Hessian (1995)
 Shifting diagonal of input Hessian by   1.000000000000000E-002
 Lowest  eigenvalues of input Hessian
    0.000000    0.000000    0.000000    0.000000    0.000000    0.000000
    0.011765    0.011971    0.012613    0.018044    0.019907    0.022325
    0.023645    0.028082    0.030021    0.031624    0.034181    0.038263
 Highest eigenvalues
    1.848222    1.873230    1.964682    1.999035    2.037999    2.080151
 

........................................................................
.............................. CYCLE    1 ..............................
........................................................................
                         * ORCA takes the control...
  ------------------------------------------------------------------------

                                 *****************
                                 * O   R   C   A *
                                 *****************

                                            #,                                       
                                            ###                                      
                                            ####                                     
                                            #####                                    
                                            ######                                   
                                           ########,                                 
                                     ,,################,,,,,                         
                               ,,#################################,,                 
                          ,,##########################################,,             
                       ,#########################################, ''#####,          
                    ,#############################################,,   '####,        
                  ,##################################################,,,,####,       
                ,###########''''           ''''###############################       
              ,#####''   ,,,,##########,,,,          '''####'''          '####       
            ,##' ,,,,###########################,,,                        '##       
           ' ,,###''''                  '''############,,,                           
         ,,##''                                '''############,,,,        ,,,,,,###''
      ,#''                                            '''#######################'''  
     '                                                          ''''####''''         
             ,#######,   #######,   ,#######,      ##                                
            ,#'     '#,  ##    ##  ,#'     '#,    #''#        ,####,   ,####,        
            ##       ##  ##   ,#'  ##            #'  '#       #'       #'  '#        
            ##       ##  #######   ##           ,######,      #####,   #    #        
            '#,     ,#'  ##    ##  '#,     ,#' ,#      #,     #,   #   #,  ,#        
             '#######'   ##     ##  '#######'  #'      '#     '####' # '####'        



                #########################################################
                #                        -***-                          #
                #          Department of theory and spectroscopy        #
                #                                                       #
                #                      Frank Neese                      #
                #                                                       #
                #     Directorship, Architecture, Infrastructure        #
                #                    SHARK, DRIVERS                     #
                #        Core code/Algorithms in most modules           #
                #                                                       #
                #        Max Planck Institute fuer Kohlenforschung      #
                #                Kaiser Wilhelm Platz 1                 #
                #                 D-45470 Muelheim/Ruhr                 #
                #                      Germany                          #
                #                                                       #
                #                  All rights reserved                  #
                #                        -***-                          #
                #########################################################


                         Program Version 6.0.1  -  RELEASE   -


 With contributions from (in alphabetic order):
[Max-Planck-Institut fuer Kohlenforschung]                               
  Daniel Aravena         : Magnetic Suceptibility                        
  Michael Atanasov       : Ab Initio Ligand Field Theory (pilot matlab implementation)
  Alexander A. Auer      : GIAO ZORA, VPT2 properties, NMR spectrum      
  Ute Becker             : All parallelization in ORCA, NUMFREQ, NUMCALC 
  Giovanni Bistoni       : ED, misc. LED, open-shell LED, HFLD           
  Martin Brehm           : Molecular dynamics                            
  Dmytro Bykov           : pre 5.0 version of the SCF Hessian            
  Marcos Casanova-Páez   : Triplet and SCS-CIS(D). UHF-(DLPNO)-IP/EA/STEOM-CCSD. UHF-CVS-IP/STEOM-CCSD   
  Vijay G. Chilkuri      : MRCI spin determinant printing, contributions to CSF-ICE 
  Pauline Colinet        : FMM embedding                                 
  Dipayan Datta          : RHF DLPNO-CCSD density                        
  Achintya Kumar Dutta   : EOM-CC, STEOM-CC                              
  Nicolas Foglia         : Exact transition moments, OPA infrastructure, MCD improvements    
  Dmitry Ganyushin       : Spin-Orbit,Spin-Spin,Magnetic field MRCI      
  Miquel Garcia-Rates    : C-PCM and meta-GGA Hessian, CCSD/C-PCM, Gaussian charge scheme 
  Tiago L. C. Gouveia    : GS-ROHF, GS-ROCIS                             
  Yang Guo               : DLPNO-NEVPT2, F12-NEVPT2, CIM, IAO-localization        
  Andreas Hansen         : Spin unrestricted coupled pair/coupled cluster methods 
  Ingolf Harden          : AUTO-CI MPn and infrastructure                
  Benjamin Helmich-Paris : MC-RPA, TRAH-(SCF,CASSCF), AVAS, COSX integrals, SCF dyn. polar. 
  Lee Huntington         : MR-EOM, pCC                                   
  Robert Izsak           : Overlap fitted RIJCOSX, COSX-SCS-MP3, EOM     
  Riya Kayal             : Wick's Theorem for AUTO-CI, AUTO-CI UHF-CCSDT 
  Emily Kempfer          : AUTO-CI, RHF CISDT and CCSDT                  
  Christian Kollmar      : KDIIS, OOCD, Brueckner-CCSD(T), CCSD density, CASPT2, CASPT2-K, improved NEVPT2 
  Axel Koslowski         : Symmetry handling                             
  Simone Kossmann        : meta-GGA functionals, TD-DFT gradient, OOMP2, (MP2 Hessian; deprecated post 5.0) 
  Lucas Lang             : DCDCAS                                        
  Marvin Lechner         : AUTO-CI (C++ implementation), FIC-MRCC        
  Spencer Leger          : CASSCF response                               
  Dagmar Lenk            : GEPOL surface, SMD, ORCA-2-JSON               
  Dimitrios Liakos       : Extrapolation schemes; Compound Job, initial MDCI parallelization 
  Dimitrios Manganas     : Further ROCIS development; embedding schemes. LFT, Crystal Embedding 
  Dimitrios Pantazis     : SARC Basis sets                               
  Anastasios Papadopoulos: AUTO-CI, single reference methods and gradients 
  Taras Petrenko         : pre 6.0 DFT Hessian and TD-DFT gradient, (ASA, deprecated), ECA, 1-Electron XAS/XES, NRVS 
  Peter Pinski           : DLPNO-MP2, DLPNO-MP2 Gradient                 
  Christoph Reimann      : Effective Core Potentials                     
  Marius Retegan         : Local ZFS, SOC                                
  Christoph Riplinger    : Optimizer, TS searches, QM/MM, DLPNO-CCSD(T), (RO)-DLPNO pert. Triples 
  Michael Roemelt        : Original ROCIS implementation                 
  Masaaki Saitow         : Open-shell DLPNO-CCSD energy and density      
  Barbara Sandhoefer     : DKH picture change effects                    
  Kantharuban Sivalingam : CASSCF convergence/infrastructure, NEVPT2 and variants, FIC-MRCI 
  Bernardo de Souza      : ESD, SOC TD-DFT                               
  Georgi L. Stoychev     : AutoAux, RI-MP2 NMR, DLPNO-MP2 response, X2C  
  Van Anh Tran           : RI-MP2 g-tensors                              
  Willem Van den Heuvel  : Paramagnetic NMR                              
  Zikuan Wang            : NOTCH, Electric field optimization            
  Frank Wennmohs         : Technical directorship and infrastructure     
  Hang Xu                : AUTO-CI-Response properties                   
                                                                         
[FACCTs GmbH]                                                            
  Markus Bursch, Miquel Garcia-Rates, Christoph Riplinger, Bernardo de Souza, Georgi L. Stoychev 
                                                                 
  APM, Basis sets (HGBS, AHGBS, def-TZVP (Ac-Lr), def2-XVPD (La-Lu)), CI-OPT, improved COSX, DLPNO-Multilevel,           
  DOCKER, DRACO, updates on ESD, GOAT, IRC, LR-CPCM, MBIS, meta-GGA TD-DFT gradient, ML-optimized integration grids, 
  MM, NACMEs, nearIR, NEB, NEB-TS, NL-DFT gradient (VV10), 2- and 3-layer-ONIOM, interface openCOSMO-RS, QMMM,   
  Crystal-QMMM, SF, symmetry and pop. for TD-DFT, r2SCAN hybrids, SOLVATOR                                   
                                                                         
[Other institutions]                                                     
  V. Asgeirsson          : NEB                                           
  Christoph Bannwarth    : sTDA-DFT, sTD-DFT, PBEh-3c, B97-3c, D3        
  Sebastian Ehlert       : rSCAN, r2SCAN, r2SCAN-3c, D4, dhf basis sets  
  Marvin Friede          : D4 for Fr, Ra, Ac-Lr                          
  Lars Goerigk           : TD-DFT with DH, B97 family of functionals     
  Stefan Grimme          : VdW corrections, initial TS optimization, DFT functionals, gCP, sTDA/sTD-DF 
  Waldemar Hujo          : DFT-NL                                        
  H. Jonsson             : NEB                                           
  Holger Kruse           : gCP                                           
  Marcel Mueller         : wB97X-3c, vDZP basis set                      
  Hagen Neugebauer       : wr2SCAN                                       
  Tobias Risthaus        : range-separated hybrid DFT                    
  Lukas Wittmann         : regularized MP2, r2SCAN double-hybrids, wr2SCAN        
                                                                         
We gratefully acknowledge several colleagues who have allowed us to      
interface, adapt or use parts of their codes:                            
  Ed Valeev, F. Pavosevic, A. Kumar             : LibInt (2-el integral package), F12 methods 
  Garnet Chan, S. Sharma, J. Yang, R. Olivares  : DMRG                   
  Ulf Ekstrom                                   : XCFun DFT Library      
  Mihaly Kallay                                 : mrcc  (arbitrary order and MRCC methods)
  Frank Weinhold                                : gennbo (NPA and NBO analysis)           
  Simon Mueller                                 : openCOSMO-RS                            
  Christopher J. Cramer and Donald G. Truhlar   : smd solvation model                     
  S Lehtola, MJT Oliveira, MAL Marques          : LibXC Library                           
  Liviu Ungur et al                             : ANISO software                          


 Your calculation uses the libint2 library for the computation of 2-el integrals
 For citations please refer to: http://libint.valeyev.net

 Your ORCA version has been built with support for libXC version: 6.2.2
 For citations please refer to: https://libxc.gitlab.io

 This ORCA versions uses:
   CBLAS   interface :  Fast vector & matrix operations
   LAPACKE interface :  Fast linear algebra routines
   SCALAPACK package :  Parallel linear algebra routines
   Shared memory     :  Shared parallel matrices
   BLAS/LAPACK       :  OpenBLAS 0.3.27  USE64BITINT DYNAMIC_ARCH NO_AFFINITY Zen SINGLE_THREADED
        Core in use  :  Zen
   Copyright (c) 2011-2014, The OpenBLAS Project




***************************************
The coordinates will be read from file: xtb_opt.xyz
***************************************


Your calculation utilizes the geometrical counterpoise correction gCP
Please cite in your paper:
H.Kruse, S. Grimme J.Chem.Phys., 136, (2012), 154101 
   

Your calculation utilizes the atom-pairwise dispersion correction
based on EEQ partial charges (D4)


================================================================================

----- Orbital basis set information -----
Your calculation utilizes the basis: def2-mTZVPP
   Stefan Grimme, Andreas Hansen, Sebastian Ehlert, and Jan-Michael Mewes 
   J. Chem. Phys. 154, 064103 (2021). DOI: 10.1063/5.0040021

----- AuxJ basis set information -----
Your calculation utilizes the auxiliary basis: def2/J
   F. Weigend, Phys. Chem. Chem. Phys. 8, 1057 (2006).

================================================================================
                                        WARNINGS
                       Please study these warnings very carefully!
================================================================================

WARNING: Old DensityContainer found on disk!
         Will remove this file - 
         If you want to keep old densities, please start your calculation with a different basename. 



WARNING: SCAN, rSCAN, or r2SCAN functional requested.
  ===> : libXC variant has now been activated.



================================================================================
                                       INPUT FILE
================================================================================
NAME = xtb_opt.inp
|  1> ! r2scan-3c def2/J RI DEFGRID2 scfconv7 ENGRAD tightSCF miniprint
|  2> * xyzfile 0 1 xtb_opt.xyz
|  3> 
|  4>                          ****END OF INPUT****
================================================================================

                     *******************************
                     * Energy+Gradient Calculation *
                     *******************************

---------------------------------
CARTESIAN COORDINATES (ANGSTROEM)
---------------------------------
  C     -4.388361    0.503816   -0.163191
  C     -3.574731    1.499368   -0.680577
  C     -2.191572    1.368675   -0.641208
  C     -1.590862    0.234680   -0.074535
  C     -2.423632   -0.766913    0.431956
  C     -3.803676   -0.630796    0.386396
  Cl    -4.809442   -1.887301    1.035383
  C     -0.126479    0.049109   -0.003573
  C      0.447642   -1.119809   -0.498434
  C      1.822019   -1.305955   -0.437162
  C      2.652611   -0.326675    0.122596
  C      2.061154    0.837284    0.632446
  C      0.688185    1.020062    0.574760
  Cl     3.032819    2.075959    1.345205
  Cl     4.359668   -0.548026    0.186363
  Cl     2.493657   -2.763283   -1.080039
  Cl    -1.239792    2.621289   -1.382422
  H     -5.465477    0.605673   -0.192312
  H     -4.013452    2.380882   -1.130496
  H     -1.981045   -1.647312    0.881741
  H     -0.171756   -1.881304   -0.955606
  H      0.258919    1.924552    0.983555

----------------------------
CARTESIAN COORDINATES (A.U.)
----------------------------
  NO LB      ZA    FRAG     MASS         X           Y           Z
   0 C     6.0000    0    12.011   -8.292801    0.952075   -0.308386
   1 C     6.0000    0    12.011   -6.755262    2.833395   -1.286105
   2 C     6.0000    0    12.011   -4.141471    2.586422   -1.211707
   3 C     6.0000    0    12.011   -3.006293    0.443480   -0.140851
   4 C     6.0000    0    12.011   -4.580000   -1.449255    0.816278
   5 C     6.0000    0    12.011   -7.187905   -1.192033    0.730182
   6 Cl   17.0000    0    35.453   -9.088529   -3.566482    1.956590
   7 C     6.0000    0    12.011   -0.239010    0.092803   -0.006752
   8 C     6.0000    0    12.011    0.845921   -2.116132   -0.941904
   9 C     6.0000    0    12.011    3.443117   -2.467898   -0.826116
  10 C     6.0000    0    12.011    5.012708   -0.617327    0.231673
  11 C     6.0000    0    12.011    3.895016    1.582238    1.195150
  12 C     6.0000    0    12.011    1.300480    1.927639    1.086139
  13 Cl   17.0000    0    35.453    5.731198    3.922995    2.542069
  14 Cl   17.0000    0    35.453    8.238579   -1.035618    0.352174
  15 Cl   17.0000    0    35.453    4.712329   -5.221849   -2.040979
  16 Cl   17.0000    0    35.453   -2.342867    4.953518   -2.612399
  17 H     1.0000    0     1.008  -10.328254    1.144557   -0.363417
  18 H     1.0000    0     1.008   -7.584325    4.499215   -2.136327
  19 H     1.0000    0     1.008   -3.743632   -3.112969    1.666248
  20 H     1.0000    0     1.008   -0.324571   -3.555149   -1.805833
  21 H     1.0000    0     1.008    0.489285    3.636877    1.858650

------------------------------------------------------------------------------
                   ___                                                        
                  /   \      - P O W E R E D   B Y -                         
                 /     \                                                     
                 |  |  |   _    _      __       _____    __    __             
                 |  |  |  | |  | |    /  \     |  _  \  |  |  /  |          
                  \  \/   | |  | |   /    \    | | | |  |  | /  /          
                 / \  \   | |__| |  /  /\  \   | |_| |  |  |/  /          
                |  |  |   |  __  | /  /__\  \  |    /   |      \           
                |  |  |   | |  | | |   __   |  |    \   |  |\   \          
                \     /   | |  | | |  |  |  |  | |\  \  |  | \   \       
                 \___/    |_|  |_| |__|  |__|  |_| \__\ |__|  \__/        
                                                                              
                      - O R C A' S   B I G   F R I E N D -                    
                                      &                                       
                       - I N T E G R A L  F E E D E R -                       
                                                                              
 v1 FN, 2020, v2 2021, v3 2022-2024                                           
------------------------------------------------------------------------------


----------------------
SHARK INTEGRAL PACKAGE
----------------------

Number of atoms                             ...     22
Number of basis functions                   ...    388
Number of shells                            ...    178
Maximum angular momentum                    ...      2
Integral batch strategy                     ... SHARK/LIBINT Hybrid
RI-J (if used) integral strategy            ... SPLIT-RIJ (Revised 2003 algorithm where possible)
Printlevel                                  ...      1
Contraction scheme used                     ... SEGMENTED contraction
Prescreening option                         ... SCHWARTZ
   Thresh                                   ... 3.000e-11
   Tcut                                     ... 1.000e-12
   Tpresel                                  ... 1.000e-12 
Coulomb Range Separation                    ... NOT USED
Exchange Range Separation                   ... NOT USED
Multipole approximations                    ... NOT USED
Finite Nucleus Model                        ... NOT USED
CABS basis                                  ... NOT available
Auxiliary Coulomb fitting basis             ... AVAILABLE
   # of basis functions in Aux-J            ...    898
   # of shells in Aux-J                     ...    290
   Maximum angular momentum in Aux-J        ...      4
Auxiliary J/K fitting basis                 ... NOT available
Auxiliary Correlation fitting basis         ... NOT available
Auxiliary 'external' fitting basis          ... NOT available

Checking pre-screening integrals            ... done (  0.0 sec) Dimension = 178
Check shell pair data                       ... done (  0.0 sec)
Shell pair information
Shell pair cut-off parameter TPreSel        ...   1.0e-12
Total number of shell pairs                 ...     15931
Shell pairs after pre-screening             ...     11891
Total number of primitive shell pairs       ...     67640
Primitive shell pairs kept                  ...     31097
          la=0 lb=0:   3167 shell pairs
          la=1 lb=0:   4478 shell pairs
          la=1 lb=1:   1569 shell pairs
          la=2 lb=0:   1457 shell pairs
          la=2 lb=1:   1038 shell pairs
          la=2 lb=2:    182 shell pairs

Calculating one electron integrals          ... done (  0.1 sec)
Calculating RI/J V-Matrix + Cholesky decomp.... done (  0.0 sec)
Calculating Nuclear repulsion               ... done (  0.0 sec) ENN=   1691.280814635065 Eh

Diagonalization of the overlap matrix:
Smallest eigenvalue                        ... 1.665e-05
Time for diagonalization                   ...    0.016 sec
Threshold for overlap eigenvalues          ... 1.000e-07
Number of eigenvalues below threshold      ... 0
Time for construction of square roots      ...    0.010 sec
Total time needed                          ...    0.027 sec

-------------------
DFT GRID GENERATION
-------------------

General Integration Accuracy     IntAcc      ... 4.388
Radial Grid Type                 RadialGrid  ... OptM3 with GC (2021)
Angular Grid (max. ang.)         AngularGrid ... 4 (Lebedev-302)
Angular grid pruning method      GridPruning ... 4 (adaptive)
Weight generation scheme         WeightScheme... mBecke (2022)
Basis function cutoff            BFCut       ... 1.0000e-11
Integration weight cutoff        WCut        ... 1.0000e-14
Partially contracted basis set               ... off
Rotationally invariant grid construction     ... off
Angular grids for H and He will be reduced by one unit

Total number of grid points                  ...   124220
Total number of batches                      ...     1951
Average number of points per batch           ...       63
Average number of grid points per atom       ...     5646
Initializing property integral containers    ... done (  0.0 sec)

SHARK setup successfully completed in   1.6 seconds

Maximum memory used throughout the entire STARTUP-calculation: 65.6 MB
Occupation numbers will be reassigned to an Aufbau configuration
             **** ENERGY FILE WAS UPDATED (xtb_opt.en.tmp) ****
Finished Guess after   0.1 sec
Maximum memory used throughout the entire GUESS-calculation: 35.1 MB
----------------------------------------D-I-I-S--------------------------------------------
Iteration    Energy (Eh)           Delta-E    RMSDP     MaxDP     DIISErr   Damp  Time(sec)
-------------------------------------------------------------------------------------------
               ***  Starting incremental Fock matrix formation  ***
    1    -2761.0678591351716022     0.00e+00  1.59e-04  8.64e-03  5.41e-03  0.700   5.0
    2    -2761.0681047101652439    -2.46e-04  1.43e-04  7.82e-03  3.92e-03  0.700   3.6
                               ***Turning on AO-DIIS***
                              *** Initializing SOSCF ***
---------------------------------------S-O-S-C-F--------------------------------------
Iteration    Energy (Eh)           Delta-E    RMSDP     MaxDP     MaxGrad    Time(sec)
--------------------------------------------------------------------------------------
    3    -2761.0682881405282387    -1.83e-04  3.38e-04  1.60e-02  2.83e-03     3.6
               *** Restarting incremental Fock matrix formation ***
    4    -2761.0687054603522483    -4.17e-04  1.27e-04  9.23e-03  6.36e-04     5.7
    5    -2761.0686631656708414     4.23e-05  8.12e-05  4.66e-03  1.43e-03     3.6
    6    -2761.0687180733330024    -5.49e-05  2.91e-05  1.80e-03  1.16e-04     3.8
    7    -2761.0687160108764147     2.06e-06  2.09e-05  1.33e-03  2.79e-04     3.4
    8    -2761.0687185642800614    -2.55e-06  5.37e-06  1.99e-04  3.02e-05     3.4
    9    -2761.0687184056141632     1.59e-07  3.74e-06  1.48e-04  7.45e-05     3.2
   10    -2761.0687185914821384    -1.86e-07  1.46e-06  5.83e-05  2.91e-06     3.1
                  *** Gradient check signals convergence ***

               *****************************************************
               *                     SUCCESS                       *
               *           SCF CONVERGED AFTER  10 CYCLES          *
               *****************************************************

             **** ENERGY FILE WAS UPDATED (xtb_opt.en.tmp) ****

----------------
TOTAL SCF ENERGY
----------------

Total Energy       :      -2761.06871859148214 Eh          -75132.49950 eV

Components:
Nuclear Repulsion  :       1691.28081463506464 Eh           46022.09068 eV
Electronic Energy  :      -4452.34953322654655 Eh         -121154.59018 eV
One Electron Energy:      -7165.02470855134561 Eh         -194970.23441 eV
Two Electron Energy:       2712.67517532479906 Eh           73815.64424 eV

Virial components:
Potential Energy   :      -5514.89568100145516 Eh         -150067.94079 eV
Kinetic Energy     :       2753.82696240997257 Eh           74935.44129 eV
Virial Ratio       :          2.00262970632518

DFT components:
N(Alpha)           :       81.000015388016 electrons
N(Beta)            :       81.000015388016 electrons
N(Total)           :      162.000030776033 electrons
E(X)               :     -202.059113937047 Eh       
E(C)               :       -5.871333043826 Eh       
E(XC)              :     -207.930446980873 Eh       

---------------
SCF CONVERGENCE
---------------

  Last Energy change         ...    1.8587e-07  Tolerance :   1.0000e-07
  Last MAX-Density change    ...    5.8307e-05  Tolerance :   1.0000e-07
  Last RMS-Density change    ...    1.4568e-06  Tolerance :   5.0000e-09
  Last DIIS Error            ...    2.8322e-03  Tolerance :   1.0000e-07
  Last Orbital Gradient      ...    2.9085e-06  Tolerance :   1.0000e-04
  Last Orbital Rotation      ...    1.1353e-05  Tolerance :   1.0000e-04


----------------
ORBITAL ENERGIES
----------------

  NO   OCC          E(Eh)            E(eV) 
   0   2.0000    -101.239616     -2754.8700 
   1   2.0000    -101.238901     -2754.8505 
   2   2.0000    -101.238021     -2754.8266 
   3   2.0000    -101.237056     -2754.8004 
   4   2.0000    -101.235909     -2754.7691 
   5   2.0000     -10.133081      -275.7352 
   6   2.0000     -10.131366      -275.6885 
   7   2.0000     -10.130685      -275.6699 
   8   2.0000     -10.125123      -275.5186 
   9   2.0000     -10.122727      -275.4534 
  10   2.0000     -10.090294      -274.5709 
  11   2.0000     -10.085876      -274.4506 
  12   2.0000     -10.074810      -274.1495 
  13   2.0000     -10.074389      -274.1381 
  14   2.0000     -10.073526      -274.1146 
  15   2.0000     -10.073301      -274.1085 
  16   2.0000     -10.072074      -274.0751 
  17   2.0000      -9.395144      -255.6549 
  18   2.0000      -9.394553      -255.6388 
  19   2.0000      -9.393688      -255.6152 
  20   2.0000      -9.392831      -255.5919 
  21   2.0000      -9.391682      -255.5607 
  22   2.0000      -7.141839      -194.3393 
  23   2.0000      -7.141085      -194.3188 
  24   2.0000      -7.140216      -194.2952 
  25   2.0000      -7.139174      -194.2668 
  26   2.0000      -7.137975      -194.2342 
  27   2.0000      -7.131465      -194.0570 
  28   2.0000      -7.130824      -194.0396 
  29   2.0000      -7.130439      -194.0291 
  30   2.0000      -7.130066      -194.0190 
  31   2.0000      -7.129963      -194.0162 
  32   2.0000      -7.129196      -193.9953 
  33   2.0000      -7.129136      -193.9937 
  34   2.0000      -7.128475      -193.9757 
  35   2.0000      -7.127935      -193.9610 
  36   2.0000      -7.127445      -193.9476 
  37   2.0000      -0.913130       -24.8475 
  38   2.0000      -0.894688       -24.3457 
  39   2.0000      -0.861579       -23.4448 
  40   2.0000      -0.860694       -23.4207 
  41   2.0000      -0.838828       -22.8257 
  42   2.0000      -0.820004       -22.3134 
  43   2.0000      -0.802915       -21.8484 
  44   2.0000      -0.765828       -20.8392 
  45   2.0000      -0.724014       -19.7014 
  46   2.0000      -0.719540       -19.5797 
  47   2.0000      -0.701540       -19.0899 
  48   2.0000      -0.631560       -17.1856 
  49   2.0000      -0.608958       -16.5706 
  50   2.0000      -0.595768       -16.2117 
  51   2.0000      -0.570408       -15.5216 
  52   2.0000      -0.516587       -14.0570 
  53   2.0000      -0.499107       -13.5814 
  54   2.0000      -0.495839       -13.4925 
  55   2.0000      -0.475100       -12.9281 
  56   2.0000      -0.467246       -12.7144 
  57   2.0000      -0.449109       -12.2209 
  58   2.0000      -0.433328       -11.7914 
  59   2.0000      -0.432126       -11.7587 
  60   2.0000      -0.428608       -11.6630 
  61   2.0000      -0.419708       -11.4208 
  62   2.0000      -0.403553       -10.9812 
  63   2.0000      -0.394637       -10.7386 
  64   2.0000      -0.377381       -10.2690 
  65   2.0000      -0.369169       -10.0456 
  66   2.0000      -0.364767        -9.9258 
  67   2.0000      -0.358856        -9.7650 
  68   2.0000      -0.357206        -9.7201 
  69   2.0000      -0.335973        -9.1423 
  70   2.0000      -0.317434        -8.6378 
  71   2.0000      -0.315490        -8.5849 
  72   2.0000      -0.308016        -8.3815 
  73   2.0000      -0.305131        -8.3030 
  74   2.0000      -0.301090        -8.1931 
  75   2.0000      -0.299846        -8.1592 
  76   2.0000      -0.285595        -7.7714 
  77   2.0000      -0.274123        -7.4593 
  78   2.0000      -0.246441        -6.7060 
  79   2.0000      -0.245125        -6.6702 
  80   2.0000      -0.233615        -6.3570 
  81   0.0000      -0.087962        -2.3936 
  82   0.0000      -0.070681        -1.9233 
  83   0.0000      -0.066110        -1.7989 
  84   0.0000      -0.047975        -1.3055 
  85   0.0000      -0.046310        -1.2602 
  86   0.0000      -0.012769        -0.3475 
  87   0.0000       0.003310         0.0901 
  88   0.0000       0.019297         0.5251 
  89   0.0000       0.036144         0.9835 
  90   0.0000       0.067311         1.8316 
[...]
  47   2.0000      -0.702724       -19.1221 
  48   2.0000      -0.632279       -17.2052 
  49   2.0000      -0.609367       -16.5817 
  50   2.0000      -0.596629       -16.2351 
  51   2.0000      -0.570644       -15.5280 
  52   2.0000      -0.516467       -14.0538 
  53   2.0000      -0.498898       -13.5757 
  54   2.0000      -0.496295       -13.5049 
  55   2.0000      -0.475591       -12.9415 
  56   2.0000      -0.466957       -12.7066 
  57   2.0000      -0.448295       -12.1987 
  58   2.0000      -0.432764       -11.7761 
  59   2.0000      -0.432609       -11.7719 
  60   2.0000      -0.428136       -11.6502 
  61   2.0000      -0.419438       -11.4135 
  62   2.0000      -0.403271       -10.9736 
  63   2.0000      -0.395417       -10.7598 
  64   2.0000      -0.377042       -10.2598 
  65   2.0000      -0.368638       -10.0311 
  66   2.0000      -0.365150        -9.9362 
  67   2.0000      -0.357394        -9.7252 
  68   2.0000      -0.356033        -9.6881 
  69   2.0000      -0.335932        -9.1412 
  70   2.0000      -0.317056        -8.6275 
  71   2.0000      -0.315762        -8.5923 
  72   2.0000      -0.307802        -8.3757 
  73   2.0000      -0.304907        -8.2969 
  74   2.0000      -0.301222        -8.1967 
  75   2.0000      -0.300109        -8.1664 
  76   2.0000      -0.285866        -7.7788 
  77   2.0000      -0.274713        -7.4753 
  78   2.0000      -0.247538        -6.7358 
  79   2.0000      -0.246231        -6.7003 
  80   2.0000      -0.235311        -6.4031 
  81   0.0000      -0.088496        -2.4081 
  82   0.0000      -0.072012        -1.9595 
  83   0.0000      -0.066380        -1.8063 
  84   0.0000      -0.050446        -1.3727 
  85   0.0000      -0.049540        -1.3481 
  86   0.0000      -0.016809        -0.4574 
  87   0.0000      -0.001652        -0.0450 
  88   0.0000       0.015808         0.4302 
  89   0.0000       0.033243         0.9046 
  90   0.0000       0.066875         1.8198 
  91   0.0000       0.068824         1.8728 
*Only the first 10 virtual orbitals were printed.
Total SCF time: 0 days 0 hours 0 min 10 sec 
Finished LeanSCF after  13.7 sec

Maximum memory used throughout the entire LEANSCF-calculation: 47.7 MB


-------------------------------------------------------------------------------
                          DFT DISPERSION CORRECTION                            
                                                                               
                                DFTD4 V3.4.0                                   
-------------------------------------------------------------------------------
-------------------------   ----------------
Dispersion correction           -0.013202163
-------------------------   ----------------

------------------   -----------------
gCP correction             0.010630382
------------------   -----------------

-------------------------   --------------------
FINAL SINGLE POINT ENERGY     -2761.071601098629
-------------------------   --------------------

------------------------------------------------------------------------------
                         ORCA SCF GRADIENT CALCULATION
------------------------------------------------------------------------------

Nuc. rep. gradient        (SHARK) ... done (  0.0 sec)
HCore & Overlap gradient  (SHARK) ... done (  0.7 sec)
Split-RIJ-J gradient      (SHARK) ... done (  5.4 sec)
XC gradient                       ... done ( 12.0 sec)
Dispersion correction             ... done (  0.0 sec)

-------------------
DISPERSION GRADIENT
-------------------

   1   C   :   -0.000121497    0.000009290   -0.000000914
   2   C   :   -0.000098522    0.000079392   -0.000043295
   3   C   :   -0.000071178    0.000094523   -0.000052155
   4   C   :   -0.000062066    0.000018591   -0.000008345
   5   C   :   -0.000094460   -0.000075279    0.000045581
   6   C   :   -0.000119276   -0.000051792    0.000035950
   7   Cl  :   -0.000138927   -0.000134172    0.000079985
   8   C   :    0.000013922   -0.000002025    0.000000454
   9   C   :    0.000039058   -0.000110709   -0.000045214
  10   C   :    0.000083616   -0.000099103   -0.000038283
  11   C   :    0.000106367   -0.000022070    0.000010072
  12   C   :    0.000106633    0.000055682    0.000059976
  13   C   :    0.000053534    0.000081373    0.000057297
  14   Cl  :    0.000140284    0.000151825    0.000116658
  15   Cl  :    0.000195907   -0.000031480    0.000013323
  16   Cl  :    0.000086901   -0.000190780   -0.000089872
  17   Cl  :   -0.000040450    0.000242588   -0.000154114
  18   H   :   -0.000046137    0.000004860   -0.000001238
  19   H   :   -0.000030086    0.000037906   -0.000020737
  20   H   :   -0.000028679   -0.000051555    0.000034468
  21   H   :    0.000008948   -0.000061184   -0.000034800
  22   H   :    0.000016107    0.000054118    0.000035204

Difference to translation invariance:
           :   -0.0000000000    0.0000000000   -0.0000000000

Difference to rotation invariance:
           :   -0.0000000000   -0.0000000000    0.0000000000

Norm of the Dispersion gradient    ...    0.0006786315
RMS gradient                       ...    0.0000835338
MAX gradient                       ...    0.0002425883
gCP correction                   ... done

------------------
CARTESIAN GRADIENT
------------------

   1   C   :    0.000024622   -0.000074705    0.000022640
   2   C   :   -0.000035832    0.000009609   -0.000011026
   3   C   :    0.000057548    0.000076154    0.000017195
   4   C   :    0.000047981    0.000049382   -0.000024835
   5   C   :    0.000023662   -0.000087410    0.000008373
   6   C   :   -0.000099039    0.000004870   -0.000011216
   7   Cl  :    0.000073569    0.000059893   -0.000027553
   8   C   :   -0.000030684    0.000052820    0.000006403
   9   C   :    0.000042146   -0.000023650    0.000002480
  10   C   :    0.000016838   -0.000260377   -0.000048710
  11   C   :    0.000269936    0.000009460    0.000015180
  12   C   :    0.000066074    0.000112351    0.000030702
  13   C   :    0.000010596    0.000009126    0.000032228
  14   Cl  :   -0.000088221   -0.000082144   -0.000070553
  15   Cl  :   -0.000217624    0.000017189    0.000011654
  16   Cl  :   -0.000125995    0.000165558    0.000054520
  17   Cl  :   -0.000036344   -0.000006150    0.000028339
  18   H   :    0.000046913   -0.000045224    0.000007106
  19   H   :    0.000017048    0.000009835   -0.000009098
  20   H   :    0.000019505   -0.000019177    0.000000430
  21   H   :   -0.000077550    0.000005206   -0.000000416
  22   H   :   -0.000005149    0.000017385   -0.000033842

Difference to translation invariance:
           :    0.0000000001    0.0000000000    0.0000000000

Difference to rotation invariance:
           :   -0.0000424261    0.0002003178   -0.0000217033

Norm of the Cartesian gradient     ...    0.0005904363
RMS gradient                       ...    0.0000726777
MAX gradient                       ...    0.0002699357

-------
TIMINGS
-------

Total SCF gradient time     ....       18.114 sec

Densities                   ....       0.002 sec  (  0.0%)
One electron gradient       ....       0.718 sec  (  4.0%)
RI-J Coulomb gradient       ....       5.383 sec  ( 29.7%)
XC gradient                 ....      11.978 sec  ( 66.1%)

Maximum memory used throughout the entire SCFGRAD-calculation: 55.6 MB

------------------------------------------------------------------------------
                              ORCA PROPERTY CALCULATIONS
------------------------------------------------------------------------------

GBWName                                 ... xtb_opt.gbw
Number of atoms                         ...     22
Number of basis functions               ...    388
Max core memory                         ...   1024 MB

Electric properties:
Dipole moment                           ... YES
Quadrupole moment                       ...  NO
Static polarizability (Dipole/Dipole)   ...  NO
Static polarizability (Dipole/Quad.)    ...  NO
Static polarizability (Quad./Quad.)     ...  NO
Static polarizability (Velocity)        ...  NO

Atomic electric properties:
Dipole moment                           ...  NO
Quadrupole moment                       ...  NO
Static polarizability                   ...  NO

Choice of electric origin               ... Center of mass
Position of electric origin             ...    -0.003890    -0.015163     0.015235

General magnetic properties:
Magnetizability                         ...  NO

EPR properties:
g-Tensor (aka g-matrix)                 ...  NO
Zero-Field splitting spin-orbit         ...  NO
Zero-field splitting spin-spin          ...  NO
Hyperfine couplings                     ...  NO (   0 nuclei)
Quadrupole couplings                    ...  NO (   0 nuclei)
Contact density                         ...  NO (   0 nuclei)

NMR properties:
Chemical shifts                         ...  NO (   0 nuclei)
Spin-rotation constants                 ...  NO (   0 nuclei)
Spin-spin couplings                     ...  NO (   0 nuclei,    0 pairs)

Choice of magnetic origin               ... GIAO
Position of magnetic origin             ...     0.000000     0.000000     0.000000

Properties with geometric perturbations:
SCF Hessian                             ...  NO
IR spectrum                             ...  NO
VCD spectrum                            ...  NO
X-ray spectroscopy properties:
SCF XES/XAS/RIXS spectra                ...  NO


-------------
DIPOLE MOMENT
-------------

Method             : SCF
Type of density    : Electron Density
Multiplicity       :   1
Irrep              :   0
Energy             : -2761.0690293174775434 Eh
Relativity type    : 
Basis              : AO
                                X                 Y                 Z
Electronic contribution:     14.902304528      -1.904725022       0.663552985
Nuclear contribution   :    -15.824175096       2.114146687      -0.731361386
                        -----------------------------------------
Total Dipole Moment    :     -0.921870567       0.209421665      -0.067808402
                        -----------------------------------------
Magnitude (a.u.)       :      0.947787295
Magnitude (Debye)      :      2.409083850



--------------------
Rotational spectrum 
--------------------
 
Rotational constants in cm-1:             0.013950             0.005101             0.004232 
Rotational constants in MHz :           418.212157           152.921934           126.875139 

Dipole components along the rotational axes: 
x,y,z [a.u.] :     0.924392     0.200583    -0.059722 
x,y,z [Debye]:     2.349618     0.509841    -0.151801 

 

Dipole moment calculation done in   0.7 sec 

Maximum memory used throughout the entire PROP-calculation: 33.1 MB

--------------------------------
SUGGESTED CITATIONS FOR THIS RUN
--------------------------------

Below you find a list of papers that are relevant to this ORCA run
We neither can nor want to force you to cite these papers, but we appreciate if you do
You receive ORCA, which is the product of decades of hard work by many enthusiastic individuals, for free
The only thing we kindly ask in return is that you cite our papers,
We deeply appreciate it, if you show your appreciation for ORCA by not just citing the generic ORCA reference.

Please note that relegating all ORCA citations to the supporting information does *not* help us.
SI sections are not indexed - citations you put there will not count into any citation statistics
But we need these citations in order to attract the funding resources that allow us to do what we are doing

Therefore, if you are a happy ORCA user, please consider citing a few of the papers listed below in the main body of your paper

In addition to the list printed below, the program has created the file xtb_opt.bibtex that contains the list in bibtex format
You can import this file easily into all common literature databanks and citation aid programs


List of essential papers. We consider these as the minimum necessary citations

  1. Neese,F.
     Software update: the ORCA program system, version 5.0
     WIRES Comput. Molec. Sci., 2022 12(1)e1606
     doi.org/10.1002/wcms.1606
  2. Grimme,S.; Hansen,A.; Ehlert,S.; Mewes,J.
     r2SCAN-3c: A 'Swiss army knife' composite electronic-structure method
     J. Chem. Phys., 2021 154 064103
     doi.org/10.1063/5.0040021

List of papers to cite with high priority. The work reported in these papers was absolutely
necessary for this run to complete.
Our perspective: the developers of density functionals and basis sets usually get cited in chemistry papers
Good! But without the algorithms to do something with them, the functionals or basis sets would not do anything.
Hence, in our opinion, the algorithm design and method developments papers are equally worthy of getting cited

  1. Neese,F.
     An improvement of the resolution of the identity approximation for the formation of the Coulomb matrix
     J. Comp. Chem., 2003 24(14)1740-1747
     doi.org/10.1002/jcc.10318
  2. Neese,F.
     The SHARK Integral Generation and Digestion System
     J. Comp. Chem., 2022  1-16
     doi.org/10.1002/jcc.26942
  3. Lehtola,S.; Steigemann,C.; Oliveira,M.; Marques,M.
     Recent developments in Libxc - A comprehensive library of functionals for density functional theory
     Software X, 2018 7 
     doi.org/10.1016/j.softx.2017.11.002
  4. Caldeweyher,E.; Bannwarth,C.; Grimme,S.
     Extension of the D3 dispersion coefficient model
     J. Chem. Phys., 2017 147 034112
     doi.org/10.1063/1.4993215
  5. Caldeweyher,E.; Ehlert,S.; Hansen,A.; Neugebauer,H.; Spicher,S.; Bannwarth,C.; Grimme,S.
     A generally applicable atomic-charge dependent London dispersion correction
     J. Chem. Phys., 2019 150 154122
     doi.org/10.1063/1.5090222
  6. Caldeweyher,E.; Mewes,J.; Ehlert,S.; Grimme,S.
     Extension and evaluation of the D4 London-dispersion model for periodic systems
     Phys. Chem. Chem. Phys., 2020 22(16)8499-8512
     doi.org/10.1039/D0CP00502A
  7. Wittmann,L.; Gordiy,I.; Friede,M.; Helmich-Paris,B.; Grimme,S.; Hansen,A.; Bursch,M.
     Extension of the D3 and D4 London Dispersion Corrections to the full Actinides Series
     Phys. Chem. Chem. Phys., 2024 26(32)21379-21394
     doi.org/https://doi.org/10.1039/D4CP01514B 

List of suggested additional citations. These are papers that are important in the 'surrounding' of 
of this run, or papers that preceded the highly important papers. If you like your results we are grateful for a citation.

  1. Neese,F.
     The ORCA program system
     WIRES Comput. Molec. Sci., 2012 2(1)73-78
     doi.org/10.1002/wcms.81
  2. Neese,F.
     Software update: the ORCA program system, version 4.0
     WIRES Comput. Molec. Sci., 2018 8(1)1-6
     doi.org/10.1002/wcms.1327
  3. Neese,F.; Wennmohs,F.; Becker,U.; Riplinger,C.
     The ORCA quantum chemistry program package
     J. Chem. Phys., 2020 152 Art. No. L224108
     doi.org/10.1063/5.0004608

List of optional additional citations

  1. Neese,F.
     Approximate second-order SCF convergence for spin unrestricted wavefunctions
     Chem. Phys. Lett., 2000 325(1-3)93-98
     doi.org/10.1016/s0009-2614(00)00662-x

Timings for individual modules:

Sum of individual times          ...       35.288 sec (=   0.588 min)
Startup calculation              ...        1.636 sec (=   0.027 min)   4.6 %
SCF iterations                   ...       13.889 sec (=   0.231 min)  39.4 %
Property calculations            ...        0.837 sec (=   0.014 min)   2.4 %
SCF Gradient evaluation          ...       18.925 sec (=   0.315 min)  53.6 %
                             ****ORCA TERMINATED NORMALLY****
TOTAL RUN TIME: 0 days 0 hours 0 minutes 39 seconds 140 msec
  ------------------------------------------------------------------------
          * successful ORCA run, taking over control again...

         :::::::::::::::::::::::::::::::::::::::::::::::::::::
         ::                  ORCA SUMMARY                   ::
         :::::::::::::::::::::::::::::::::::::::::::::::::::::
         :: total energy           -2761.071601098629 Eh    ::
         :: gradient norm              0.000590436326 Eh/a0 ::
         :: HOMO-LUMO gap              0.000000000000 eV    ::
         :::::::::::::::::::::::::::::::::::::::::::::::::::::

           -------------------------------------------------
          |                Property Printout                |
           -------------------------------------------------
           -------------------------------------------------
          |                Geometry Summary                 |
           -------------------------------------------------

      molecular mass/u    :      326.4332224
   center of mass at/Å    :       -0.0020490      -0.0080252       0.0080624
  moments of inertia/u·Å² :        0.1208422E+04   0.3304793E+04   0.3983251E+04
rotational constants/cm⁻¹ :        0.1395012E-01   0.5100965E-02   0.4232129E-02

 * 22 selected distances

     #   Z          #   Z                                           value/Å
     1   6 C        2   6 C                                       1.3881808
     2   6 C        3   6 C                                       1.3907731
     3   6 C        4   6 C                                       1.4011255
     4   6 C        5   6 C                                       1.4003106
     1   6 C        6   6 C                                       1.3893636
     5   6 C        6   6 C                                       1.3865855
     6   6 C        7  17 Cl                                      1.7492276
     8   6 C        9   6 C                                       1.3943180
     9   6 C       10   6 C                                       1.3887736
    10   6 C       11   6 C                                       1.3999125
    11   6 C       12   6 C                                       1.4017912
     8   6 C       13   6 C                                       1.3945681
    12   6 C       13   6 C                                       1.3872669
    12   6 C       14  17 Cl                                      1.7386316
    11   6 C       15  17 Cl                                      1.7260052
    10   6 C       16  17 Cl                                      1.7384524
     3   6 C       17  17 Cl                                      1.7513795 (max)
     1   6 C       18   1 H                                       1.0833202
     2   6 C       19   1 H                                       1.0836441
     5   6 C       20   1 H                                       1.0840463
     9   6 C       21   1 H                                       1.0836935
    13   6 C       22   1 H                                       1.0825831 (min)

 * 3 distinct bonds (by element types)

   Z      Z             #   av. dist./Å        max./Å        min./Å
   1 H    6 C           5     1.0834575     1.0840463     1.0825831
   6 C    6 C          12     1.3935808     1.4017912     1.3865855
   6 C   17 Cl          5     1.7407392     1.7513795     1.7260052


optimized geometry written to: xtbopt.coord


           -------------------------------------------------
          | TOTAL ENERGY            -2761.071601098629 Eh   |
          | GRADIENT NORM               0.000590436326 Eh/α |
           -------------------------------------------------

------------------------------------------------------------------------
 * finished run on 2025/04/16 at 09:56:18.476     
------------------------------------------------------------------------
 total:
 * wall-time:     0 d,  0 h,  8 min, 43.258 sec
 *  cpu-time:     0 d,  0 h,  0 min,  1.944 sec
 * ratio c/w:     0.004 speedup
 SCF:
 * wall-time:     0 d,  0 h,  0 min, 38.493 sec
 *  cpu-time:     0 d,  0 h,  0 min,  0.952 sec
 * ratio c/w:     0.025 speedup
 ANC optimizer:
 * wall-time:     0 d,  0 h,  8 min,  4.757 sec
 *  cpu-time:     0 d,  0 h,  0 min,  0.980 sec
 * ratio c/w:     0.002 speedup

