13
 energy: -1226.558447595925 gnorm: 0.021395903192 xtb: 6.7.1 (edcfbbe)
C           -1.82023117970659       -1.34792129419730       -0.00000089310000
C           -0.48788777691620       -1.70393585415506        0.00000053810000
C            0.50160757852228       -0.73063271582376        0.00000272700000
C            0.14194693236290        0.61224898407130        0.00000430140000
C           -1.19550539432976        0.97516110733212        0.00000183740000
C           -2.18381559906771       -0.00259863810115       -0.00000091520000
O           -3.50043959035114        0.30840322443666       -0.00000020270000
Cl           1.34891572959774        1.84059024741561       -0.00000079660000
Cl           2.16349538635870       -1.19114885502783       -0.00000111350000
H           -2.59551021485014       -2.09607572842883       -0.00000031300000
H           -0.20302085888996       -2.74369624861580        0.00000049490000
H           -1.45849407034630        2.02304581029647       -0.00000016210000
H           -3.61922260010377        1.26637708336117       -0.00002013290001
13
 energy: -1226.559142050515 gnorm: 0.010561383544 xtb: 6.7.1 (edcfbbe)
C           -1.82502269713723       -1.34772546137766       -0.00000016202417
C           -0.48778908714444       -1.70282253148300        0.00000121944261
C            0.51066480498617       -0.73206460847522        0.00000101228848
C            0.14839041796199        0.61717661461175        0.00000023370433
C           -1.19383077226243        0.98066140590711        0.00000045114294
C           -2.18262324833038       -0.00012985583572       -0.00000052592055
O           -3.50681546687381        0.30388693939861       -0.00000092920346
Cl           1.34401550083063        1.86894315519119        0.00000100563724
Cl           2.17358247122632       -1.22282046998622        0.00000062278862
H           -2.60276431172677       -2.10100539322939       -0.00000101173193
H           -0.20353670012707       -2.74744074117771        0.00000106722068
H           -1.45770935419405        2.03267448278030        0.00000052697173
H           -3.62472319614815        1.26048366795228       -0.00001816641868
13
 energy: -1226.559237602663 gnorm: 0.004323332205 xtb: 6.7.1 (edcfbbe)
C           -1.82807305083102       -1.34788263084269       -0.00000021553376
C           -0.48901240773029       -1.70234865474174        0.00000088814883
C            0.51171861602841       -0.73190347610800        0.00000065511639
C            0.14917993508829        0.61703503810793        0.00000010480185
C           -1.19421086153426        0.98311428377315       -0.00000055778181
C           -2.18232367170567        0.00083613558334       -0.00000140975420
O           -3.51129491349895        0.30119718485759       -0.00000199910237
Cl           1.34990319301254        1.87216209008110        0.00000115782849
Cl           2.17949775380612       -1.22532387347192        0.00000155694427
H           -2.60571915728412       -2.10334998433954       -0.00000092268134
H           -0.20370808273770       -2.74830456940868        0.00000145638449
H           -1.45626205044335        2.03686822389067        0.00000023673592
H           -3.62785693730470        1.25771743059547       -0.00001561951167
13
 energy: -1226.559251085527 gnorm: 0.001411067381 xtb: 6.7.1 (edcfbbe)
C           -1.82840704853977       -1.34785474438023       -0.00000057869275
C           -0.48944232474281       -1.70265281622250        0.00000089503176
C            0.51058590555774       -0.73175018674806        0.00000093865573
C            0.14816679565703        0.61613850490348        0.00000009763579
C           -1.19479578722374        0.98392312648755       -0.00000094716554
C           -2.18188499296386        0.00109104416644       -0.00000180506673
O           -3.51253630645088        0.30038600104623       -0.00000294001939
Cl           1.35213210565280        1.87194224359744        0.00000110150188
Cl           2.18069143167954       -1.22457490583428        0.00000202835068
H           -2.60558070711875       -2.10344129489636       -0.00000106787523
H           -0.20346570290876       -2.74841776949951        0.00000160030250
H           -1.45538408587340        2.03784242956397       -0.00000054053644
H           -3.62824091850807        1.25718555816338       -0.00001345306692
13
 energy: -1226.559252844551 gnorm: 0.000568219064 xtb: 6.7.1 (edcfbbe)
C           -1.82789538059835       -1.34776175020417       -0.00000086702907
C           -0.48942490502988       -1.70318243467129        0.00000088312818
C            0.50941317886588       -0.73165863230193        0.00000117884977
C            0.14706166344285        0.61528131508878        0.00000022996719
C           -1.19522135899872        0.98412770910824       -0.00000133388776
C           -2.18152684638337        0.00111632450590       -0.00000225700251
O           -3.51266346523431        0.30022640190515       -0.00000379106547
Cl           1.35256945859103        1.87152953497940        0.00000101019309
Cl           2.18050833247129       -1.22367689906015        0.00000260931456
H           -2.60506382075354       -2.10278650149485       -0.00000137869749
H           -0.20320117882801       -2.74849430773673        0.00000172437972
H           -1.45485785230977        2.03786118816129       -0.00000158963817
H           -3.62785946299179        1.25723523724687       -0.00001108904972
13
 energy: -1226.559252844551 gnorm: 0.000568219064 xtb: 6.7.1 (edcfbbe)
C           -1.82789538059835       -1.34776175020417       -0.00000086702907
C           -0.48942490502988       -1.70318243467129        0.00000088312818
C            0.50941317886588       -0.73165863230193        0.00000117884977
C            0.14706166344285        0.61528131508878        0.00000022996719
C           -1.19522135899872        0.98412770910824       -0.00000133388776
C           -2.18152684638337        0.00111632450590       -0.00000225700251
O           -3.51266346523431        0.30022640190515       -0.00000379106547
Cl           1.35256945859103        1.87152953497940        0.00000101019309
Cl           2.18050833247129       -1.22367689906015        0.00000260931456
H           -2.60506382075354       -2.10278650149485       -0.00000137869749
H           -0.20320117882801       -2.74849430773673        0.00000172437972
H           -1.45485785230977        2.03786118816129       -0.00000158963817
H           -3.62785946299179        1.25723523724687       -0.00001108904972
