      -----------------------------------------------------------      
     |                   =====================                   |     
     |                           x T B                           |     
     |                   =====================                   |     
     |                         S. Grimme                         |     
     |          Mulliken Center for Theoretical Chemistry        |     
     |                    University of Bonn                     |     
      -----------------------------------------------------------      

   * xtb version 6.7.1 (edcfbbe) compiled by 'albert@albert-system' on 2024-07-22

   xtb is free software: you can redistribute it and/or modify it under
   the terms of the GNU Lesser General Public License as published by
   the Free Software Foundation, either version 3 of the License, or
   (at your option) any later version.
   
   xtb is distributed in the hope that it will be useful,
   but WITHOUT ANY WARRANTY; without even the implied warranty of
   MERCHANTABILITY or FITNESS FOR A PARTICULAR PURPOSE.  See the
   GNU Lesser General Public License for more details.
   
   Cite this work as:
   * C. Bannwarth, E. Caldeweyher, S. Ehlert, A. Hansen, P. Pracht,
     J. Seibert, S. Spicher, S. Grimme, WIREs Comput. Mol. Sci., 2020, 11,
     e01493. DOI: 10.1002/wcms.1493
   
   for GFN2-xTB:
   * C. Bannwarth, S. Ehlert and S. Grimme., J. Chem. Theory Comput., 2019,
     15, 1652-1671. DOI: 10.1021/acs.jctc.8b01176
   for GFN1-xTB:
   * S. Grimme, C. Bannwarth, P. Shushkov, J. Chem. Theory Comput., 2017,
     13, 1989-2009. DOI: 10.1021/acs.jctc.7b00118
   for GFN0-xTB:
   * P. Pracht, E. Caldeweyher, S. Ehlert, S. Grimme, ChemRxiv, 2019, preprint.
     DOI: 10.26434/chemrxiv.8326202.v1
   for GFN-FF:
   * S. Spicher and S. Grimme, Angew. Chem. Int. Ed., 2020, 59, 15665-15673.
     DOI: 10.1002/anie.202004239
   
   for ALPB and GBSA implicit solvation:
   * S. Ehlert, M. Stahn, S. Spicher, S. Grimme, J. Chem. Theory Comput.,
     2021, 17, 4250-4261. DOI: 10.1021/acs.jctc.1c00471
   
   for ddCOSMO and CPCM-X implicit solvation:
   * M. Stahn, S. Ehlert, S. Grimme, J. Phys. Chem. A,
     2023, XX, XXXX-XXXX. DOI: 10.1021/acs.jpca.3c04382
   
   for DFT-D4:
   * E. Caldeweyher, C. Bannwarth and S. Grimme, J. Chem. Phys., 2017,
     147, 034112. DOI: 10.1063/1.4993215
   * E. Caldeweyher, S. Ehlert, A. Hansen, H. Neugebauer, S. Spicher,
     C. Bannwarth and S. Grimme, J. Chem. Phys., 2019, 150, 154122.
     DOI: 10.1063/1.5090222
   * E. Caldeweyher, J.-M. Mewes, S. Ehlert and S. Grimme, Phys. Chem. Chem. Phys.
     2020, 22, 8499-8512. DOI: 10.1039/D0CP00502A
   
   for sTDA-xTB:
   * S. Grimme and C. Bannwarth, J. Chem. Phys., 2016, 145, 054103.
     DOI: 10.1063/1.4959605
   
   in the mass-spec context:
   * V. Asgeirsson, C. Bauer and S. Grimme, Chem. Sci., 2017, 8, 4879.
     DOI: 10.1039/c7sc00601b
   * J. Koopman and S. Grimme, ACS Omega 2019, 4, 12, 15120-15133.
     DOI: 10.1021/acsomega.9b02011
   
   for metadynamics refer to:
   * S. Grimme, J. Chem. Theory Comput., 2019, 155, 2847-2862
     DOI: 10.1021/acs.jctc.9b00143
   
   for SPH calculations refer to:
   * S. Spicher and S. Grimme, J. Chem. Theory Comput., 2021, 17, 1701-1714
     DOI: 10.1021/acs.jctc.0c01306
   
   for ONIOM refer to:
   * C. Plett, A. Katbashev, S. Ehlert, S. Grimme, M. Bursch,
     Phys. Chem. Chem. Phys., 2023, 25, 17860-17868. DOI: 10.1039/D3CP02178E
   
   for DIPRO refer to:
   * J. Kohn, N. Gildemeister, S. Grimme, D. Fazzi, A. Hansen,
     J. Chem. Phys., 2023, just accepted.
   
   for PTB refer to:
   * S. Grimme, M. Mueller, A. Hansen, J. Chem. Phys., 2023, 158, 124111.
     DOI: 10.1063/5.0137838
   
   with help from (in alphabetical order)
   P. Atkinson, C. Bannwarth, F. Bohle, G. Brandenburg, E. Caldeweyher
   M. Checinski, S. Dohm, S. Ehlert, S. Ehrlich, I. Gerasimov, C. Hölzer
   A. Katbashev, J. Kohn, J. Koopman, C. Lavigne, S. Lehtola, F. März, M. Müller,
   F. Musil, H. Neugebauer, J. Pisarek, C. Plett, P. Pracht, F. Pultar,
   J. Seibert, P. Shushkov, S. Spicher, M. Stahn, M. Steiner, T. Strunk,
   J. Stückrath, T. Rose, and J. Unsleber
   
 * started run on 2025/04/15 at 20:33:57.916     
   ID    Z sym.   atoms
    1    6 C      1-12
    2   17 Cl     13, 14
    3    1 H      15-22

           -------------------------------------------------
          |                Calculation Setup                |
           -------------------------------------------------

          program call               : /software/projects/pawsey0265/mwang1/xtb/bin/xtb xtb_rrho.coord --gfn2 --ohess vtight --chrg 0 --enso --norestart -I rrho-xcontrol-inp --parallel 1
          hostname                   : nid002800
          coordinate file            : xtb_rrho.coord
          omp threads                :                     1


           -------------------------------------------------
          |                 G F N 2 - x T B                 |
           -------------------------------------------------

        Reference                      10.1021/acs.jctc.8b01176
      * Hamiltonian:
        H0-scaling (s, p, d)           1.850000    2.230000    2.230000
        zeta-weighting                 0.500000
      * Dispersion:
        s8                             2.700000
        a1                             0.520000
        a2                             5.000000
        s9                             5.000000
      * Repulsion:
        kExp                           1.500000    1.000000
        rExp                           1.000000
      * Coulomb:
        alpha                          2.000000
        third order                    shell-resolved
        anisotropic                    true
        a3                             3.000000
        a5                             4.000000
        cn-shift                       1.200000
        cn-exp                         4.000000
        max-rad                        5.000000


          ...................................................
          :                      SETUP                      :
          :.................................................:
          :  # basis functions                  76          :
          :  # atomic orbitals                  74          :
          :  # shells                           38          :
          :  # electrons                        70          :
          :  max. iterations                   250          :
          :  Hamiltonian                  GFN2-xTB          :
          :  restarted?                      false          :
          :  GBSA solvation                  false          :
          :  PC potential                    false          :
          :  electronic temp.          300.0000000     K    :
          :  accuracy                    1.0000000          :
          :  -> integral cutoff          0.2500000E+02      :
          :  -> integral neglect         0.1000000E-07      :
          :  -> SCF convergence          0.1000000E-05 Eh   :
          :  -> wf. convergence          0.1000000E-03 e    :
          :  Broyden damping             0.4000000          :
          :  net charge                          0          :
          :  unpaired electrons                  0          :
          ...................................................

 iter      E             dE          RMSdq      gap      omega  full diag
   1    -39.3936125 -0.393936E+02  0.460E+00    3.78       0.0  T
   2    -39.4273563 -0.337439E-01  0.271E+00    3.67       1.0  T
   3    -39.4203550  0.700134E-02  0.101E+00    3.47       1.0  T
   4    -39.4303255 -0.997047E-02  0.281E-01    3.66       1.0  T
   5    -39.4315427 -0.121723E-02  0.949E-02    3.63       1.0  T
   6    -39.4316700 -0.127343E-03  0.566E-02    3.63       1.0  T
   7    -39.4316945 -0.245027E-04  0.360E-02    3.63       1.0  T
   8    -39.4317022 -0.760223E-05  0.238E-02    3.63       1.0  T
   9    -39.4317049 -0.279620E-05  0.167E-02    3.63       1.3  T
  10    -39.4317082 -0.324649E-05  0.469E-03    3.63       4.5  T
  11    -39.4317083 -0.925658E-07  0.252E-03    3.63       8.5  T
  12    -39.4317083 -0.639343E-07  0.895E-04    3.63      23.8  T
  13    -39.4317084 -0.310885E-08  0.709E-04    3.63      30.1  T

   *** convergence criteria satisfied after 13 iterations ***

         #    Occupation            Energy/Eh            Energy/eV
      -------------------------------------------------------------
         1        2.0000           -1.0600632             -28.8458
       ...           ...                  ...                  ...
        29        2.0000           -0.4325747             -11.7710
        30        2.0000           -0.4272170             -11.6252
        31        2.0000           -0.4240565             -11.5392
        32        2.0000           -0.4209499             -11.4546
        33        2.0000           -0.4113108             -11.1923
        34        2.0000           -0.4077692             -11.0960
        35        2.0000           -0.3962399             -10.7822 (HOMO)
        36                         -0.2628809              -7.1534 (LUMO)
        37                         -0.2523474              -6.8667
        38                         -0.2323116              -6.3215
        39                         -0.2236116              -6.0848
        40                         -0.1553049              -4.2261
       ...                                ...                  ...
        74                          0.6483964              17.6438
      -------------------------------------------------------------
                  HL-Gap            0.1333590 Eh            3.6289 eV
             Fermi-level           -0.3295604 Eh           -8.9678 eV

 SCC (total)                   0 d,  0 h,  0 min,  0.053 sec
 SCC setup                      ...        0 min,  0.000 sec (  0.575%)
 Dispersion                     ...        0 min,  0.000 sec (  0.396%)
 classical contributions        ...        0 min,  0.000 sec (  0.098%)
 integral evaluation            ...        0 min,  0.032 sec ( 59.898%)
 iterations                     ...        0 min,  0.012 sec ( 23.134%)
 molecular gradient             ...        0 min,  0.008 sec ( 15.549%)
 printout                       ...        0 min,  0.000 sec (  0.307%)

         :::::::::::::::::::::::::::::::::::::::::::::::::::::
         ::                     SUMMARY                     ::
         :::::::::::::::::::::::::::::::::::::::::::::::::::::
         :: total energy             -38.868139199132 Eh    ::
         :: gradient norm              0.021074235201 Eh/a0 ::
         :: HOMO-LUMO gap              3.628883024770 eV    ::
         ::.................................................::
         :: SCC energy               -39.431641064689 Eh    ::
         :: -> isotropic ES            0.009189920742 Eh    ::
         :: -> anisotropic ES         -0.001683756357 Eh    ::
         :: -> anisotropic XC          0.020076540929 Eh    ::
         :: -> dispersion             -0.025481219253 Eh    ::
         :: repulsion energy           0.563501865557 Eh    ::
         :: add. restraining           0.000000000000 Eh    ::
         :: total charge               0.000000000000 e     ::
         :::::::::::::::::::::::::::::::::::::::::::::::::::::

      ----------------------------------------------------------- 
     |                   =====================                   |
     |                        A N C O P T                        |
     |                   =====================                   |
     |               Approximate Normal Coordinate               |
     |                Rational Function Optimizer                |
      ----------------------------------------------------------- 
      ----------------------------------------------------------- 
     |                   =====================                   |
     |                        A N C O P T                        |
     |                   =====================                   |
     |               Approximate Normal Coordinate               |
     |                Rational Function Optimizer                |
      ----------------------------------------------------------- 

          ...................................................
          :                      SETUP                      :
          :.................................................:
          :   optimization level         verytight          :
          :   max. optcycles                   440          :
          :   ANC micro-cycles                  20          :
          :   degrees of freedom                60          :
          :.................................................:
          :   RF solver                   davidson          :
          :   write xtbopt.log                true          :
          :   linear?                        false          :
          :   energy convergence         0.1000000E-06 Eh   :
          :   grad. convergence          0.2000000E-03 Eh/α :
          :   maxmium RF displ.          1.0000000          :
          :   Hlow (freq-cutoff)         0.1000000E-01      :
          :   Hmax (freq-cutoff)         5.0000000          :
          :   S6 in model hess.         20.0000000          :
          ...................................................

generating ANC from exact Hessian ...
Using Lindh-Hessian (1995)
 Shifting diagonal of input Hessian by   8.260663451989834E-003
 Lowest  eigenvalues of input Hessian
    0.000000    0.000000    0.000000    0.000000    0.000000    0.000000
    0.010000    0.010220    0.010823    0.015540    0.019138    0.022684
    0.023265    0.025639    0.031279    0.031957    0.033785    0.037924
 Highest eigenvalues
    1.828433    1.859892    1.925455    1.947431    1.975813    2.026014
 

........................................................................
.............................. CYCLE    1 ..............................
........................................................................

 iter      E             dE          RMSdq      gap      omega  full diag
   1    -39.4317084 -0.394317E+02  0.417E-04    3.63       0.0  T
   2    -39.4317084 -0.763592E-09  0.325E-04    3.63      65.5  T
   3    -39.4317084 -0.338396E-09  0.273E-04    3.63      78.1  T
     SCC iter.                  ...        0 min,  0.003 sec
     gradient                   ...        0 min,  0.008 sec
 * total energy  :   -38.8681392 Eh     change       -0.4030163E-08 Eh
   gradient norm :     0.0210732 Eh/α   predicted     0.0000000E+00 (-100.00%)
   displ. norm   :     0.1392527 α      lambda       -0.1677696E-02
   maximum displ.:     0.0933152 α      in ANC's #10, #32, #3, ...

........................................................................
.............................. CYCLE    2 ..............................
........................................................................

 iter      E             dE          RMSdq      gap      omega  full diag
   1    -39.4522900 -0.394523E+02  0.932E-02    3.66       0.0  T
   2    -39.4522981 -0.818791E-05  0.596E-02    3.66       1.0  T
   3    -39.4522936  0.458353E-05  0.293E-02    3.66       1.0  T
   4    -39.4523041 -0.105751E-04  0.113E-02    3.66       1.9  T
   5    -39.4523044 -0.270978E-06  0.901E-03    3.66       2.4  T
   6    -39.4523055 -0.108076E-05  0.292E-03    3.66       7.3  T
   7    -39.4523056 -0.720587E-07  0.137E-03    3.66      15.6  T
   8    -39.4523056 -0.109507E-07  0.601E-04    3.66      35.5  T
   9    -39.4523056 -0.592473E-08  0.246E-04    3.66      86.8  T
     SCC iter.                  ...        0 min,  0.007 sec
     gradient                   ...        0 min,  0.008 sec
 * total energy  :   -38.8692193 Eh     change       -0.1080053E-02 Eh
   gradient norm :     0.0113944 Eh/α   predicted    -0.8551206E-03 ( -20.83%)
   displ. norm   :     0.0927802 α      lambda       -0.3298839E-03
   maximum displ.:     0.0544479 α      in ANC's #10, #3, #1, ...

........................................................................
.............................. CYCLE    3 ..............................
........................................................................

 iter      E             dE          RMSdq      gap      omega  full diag
   1    -39.4592913 -0.394593E+02  0.558E-02    3.66       0.0  T
   2    -39.4592966 -0.533716E-05  0.370E-02    3.67       1.0  T
   3    -39.4592964  0.222729E-06  0.195E-02    3.66       1.1  T
   4    -39.4592998 -0.336122E-05  0.874E-03    3.67       2.4  T
   5    -39.4593001 -0.288306E-06  0.670E-03    3.67       3.2  T
   6    -39.4593004 -0.301719E-06  0.404E-03    3.67       5.3  T
   7    -39.4593006 -0.225549E-06  0.140E-03    3.67      15.2  T
   8    -39.4593006 -0.135317E-07  0.513E-04    3.67      41.6  T
   9    -39.4593006 -0.354261E-08  0.227E-04    3.67      94.0  T
     SCC iter.                  ...        0 min,  0.007 sec
     gradient                   ...        0 min,  0.008 sec
 * total energy  :   -38.8694188 Eh     change       -0.1995429E-03 Eh
   gradient norm :     0.0061986 Eh/α   predicted    -0.1664101E-03 ( -16.60%)
   displ. norm   :     0.0600242 α      lambda       -0.7096774E-04
   maximum displ.:     0.0485647 α      in ANC's #3, #1, #2, ...

........................................................................
.............................. CYCLE    4 ..............................
........................................................................

 iter      E             dE          RMSdq      gap      omega  full diag
   1    -39.4590940 -0.394591E+02  0.327E-02    3.65       0.0  T
   2    -39.4590955 -0.156836E-05  0.208E-02    3.66       1.0  T
   3    -39.4590952  0.333985E-06  0.948E-03    3.66       2.2  T
   4    -39.4590961 -0.950045E-06  0.410E-03    3.66       5.2  T
   5    -39.4590962 -0.738638E-07  0.311E-03    3.66       6.9  T
   6    -39.4590963 -0.477462E-07  0.207E-03    3.66      10.3  T
   7    -39.4590963 -0.525674E-07  0.904E-04    3.66      23.6  T
   8    -39.4590963 -0.779186E-08  0.271E-04    3.66      78.8  T
     SCC iter.                  ...        0 min,  0.007 sec
     gradient                   ...        0 min,  0.008 sec
 * total energy  :   -38.8694681 Eh     change       -0.4932614E-04 Eh
   gradient norm :     0.0025108 Eh/α   predicted    -0.3561287E-04 ( -27.80%)
   displ. norm   :     0.0575225 α      lambda       -0.3255942E-04
   maximum displ.:     0.0459947 α      in ANC's #3, #2, #1, ...

........................................................................
.............................. CYCLE    5 ..............................
........................................................................

 iter      E             dE          RMSdq      gap      omega  full diag
   1    -39.4575540 -0.394576E+02  0.301E-02    3.65       0.0  T
   2    -39.4575546 -0.579843E-06  0.181E-02    3.65       1.2  T
   3    -39.4575542  0.431293E-06  0.580E-03    3.65       3.7  T
   4    -39.4575548 -0.585924E-06  0.210E-03    3.65      10.1  T
   5    -39.4575548 -0.330417E-07  0.149E-03    3.65      14.3  T
   6    -39.4575548 -0.988722E-08  0.110E-03    3.65      19.4  T
   7    -39.4575548 -0.115684E-07  0.584E-04    3.65      36.5  T
   8    -39.4575548 -0.314783E-08  0.223E-04    3.65      95.7  T
     SCC iter.                  ...        0 min,  0.006 sec
     gradient                   ...        0 min,  0.008 sec
 * total energy  :   -38.8694890 Eh     change       -0.2090863E-04 Eh
   gradient norm :     0.0009420 Eh/α   predicted    -0.1634942E-04 ( -21.81%)
   displ. norm   :     0.0524217 α      lambda       -0.8328245E-05
   maximum displ.:     0.0390145 α      in ANC's #3, #2, #1, ...

........................................................................
.............................. CYCLE    6 ..............................
........................................................................

 iter      E             dE          RMSdq      gap      omega  full diag
   1    -39.4565699 -0.394566E+02  0.266E-02    3.65       0.0  T
   2    -39.4565700 -0.586161E-07  0.156E-02    3.65       1.4  T
   3    -39.4565698  0.168036E-06  0.266E-03    3.65       8.0  T
   4    -39.4565700 -0.196017E-06  0.520E-04    3.65      41.0  T
   5    -39.4565700 -0.246513E-08  0.328E-04    3.65      65.0  T
     SCC iter.                  ...        0 min,  0.004 sec
     gradient                   ...        0 min,  0.008 sec
 * total energy  :   -38.8694972 Eh     change       -0.8166532E-05 Eh
   gradient norm :     0.0014914 Eh/α   predicted    -0.4169576E-05 ( -48.94%)
   displ. norm   :     0.0338509 α      lambda       -0.4495497E-05
   maximum displ.:     0.0235141 α      in ANC's #3, #2, #1, ...

........................................................................
.............................. CYCLE    7 ..............................
........................................................................

 iter      E             dE          RMSdq      gap      omega  full diag
   1    -39.4568483 -0.394568E+02  0.170E-02    3.65       0.0  T
   2    -39.4568483 -0.471694E-07  0.100E-02    3.65       2.1  T
   3    -39.4568483  0.343294E-07  0.180E-03    3.65      11.8  T
   4    -39.4568483 -0.550422E-07  0.767E-04    3.65      27.8  T
   5    -39.4568483 -0.246023E-08  0.587E-04    3.65      36.3  T
     SCC iter.                  ...        0 min,  0.004 sec
     gradient                   ...        0 min,  0.008 sec
 * total energy  :   -38.8695023 Eh     change       -0.5098364E-05 Eh
   gradient norm :     0.0008011 Eh/α   predicted    -0.2265350E-05 ( -55.57%)
   displ. norm   :     0.0361996 α      lambda       -0.2806893E-05
   maximum displ.:     0.0246626 α      in ANC's #3, #1, #2, ...

........................................................................
.............................. CYCLE    8 ..............................
........................................................................

 iter      E             dE          RMSdq      gap      omega  full diag
   1    -39.4571903 -0.394572E+02  0.176E-02    3.65       0.0  T
   2    -39.4571904 -0.326285E-07  0.103E-02    3.65       2.1  T
   3    -39.4571903  0.217379E-07  0.135E-03    3.65      15.8  T
   4    -39.4571904 -0.331270E-07  0.555E-04    3.65      38.4  T
   5    -39.4571904 -0.157661E-08  0.411E-04    3.65      51.8  T
     SCC iter.                  ...        0 min,  0.004 sec
     gradient                   ...        0 min,  0.008 sec
 * total energy  :   -38.8695049 Eh     change       -0.2609095E-05 Eh
   gradient norm :     0.0001865 Eh/α   predicted    -0.1409727E-05 ( -45.97%)
   displ. norm   :     0.0170177 α      lambda       -0.5098798E-06
   maximum displ.:     0.0114171 α      in ANC's #3, #1, #2, ...

........................................................................
.............................. CYCLE    9 ..............................
........................................................................

 iter      E             dE          RMSdq      gap      omega  full diag
   1    -39.4572694 -0.394573E+02  0.863E-03    3.65       0.0  T
   2    -39.4572694 -0.275294E-08  0.506E-03    3.65       4.2  T
   3    -39.4572694  0.368544E-08  0.524E-04    3.65      40.7  T
   4    -39.4572694 -0.592140E-08  0.229E-04    3.65      93.2  T
     SCC iter.                  ...        0 min,  0.003 sec
     gradient                   ...        0 min,  0.008 sec
 * total energy  :   -38.8695052 Eh     change       -0.3094309E-06 Eh
   gradient norm :     0.0001166 Eh/α   predicted    -0.2554733E-06 ( -17.44%)
   displ. norm   :     0.0029184 α      lambda       -0.8967645E-07
   maximum displ.:     0.0019714 α      in ANC's #1, #3, #14, ...

........................................................................
.............................. CYCLE   10 ..............................
........................................................................

 iter      E             dE          RMSdq      gap      omega  full diag
   1    -39.4572435 -0.394572E+02  0.196E-03    3.65       0.0  T
   2    -39.4572435 -0.275008E-09  0.116E-03    3.65      18.4  T
   3    -39.4572435  0.194971E-08  0.278E-04    3.65      76.7  T
   4    -39.4572435 -0.229424E-08  0.718E-05    3.65     296.9  T
     SCC iter.                  ...        0 min,  0.003 sec
     gradient                   ...        0 min,  0.008 sec
 * total energy  :   -38.8695053 Eh     change       -0.7122802E-07 Eh
   gradient norm :     0.0000393 Eh/α   predicted    -0.4629222E-07 ( -35.01%)
   displ. norm   :     0.0012262 α      lambda       -0.8404299E-08
   maximum displ.:     0.0008443 α      in ANC's #1, #2, #3, ...

   *** GEOMETRY OPTIMIZATION CONVERGED AFTER 10 ITERATIONS ***

------------------------------------------------------------------------
 total energy gain   :        -0.0013661 Eh       -0.8572 kcal/mol
 total RMSD          :         0.0882999 a0        0.0467 Å
 total power (kW/mol):        -0.3586668 (step)  -20.6198 (real)
------------------------------------------------------------------------

 ANCopt (total)                0 d,  0 h,  0 min,  0.174 sec
 optimizer setup                ...        0 min,  0.000 sec (  0.262%)
 model hessian                  ...        0 min,  0.003 sec (  1.520%)
 ANC generation                 ...        0 min,  0.001 sec (  0.295%)
 coordinate transformation      ...        0 min,  0.000 sec (  0.039%)
 single point calculation       ...        0 min,  0.167 sec ( 96.285%)
 optimization log               ...        0 min,  0.002 sec (  1.049%)
 hessian update                 ...        0 min,  0.000 sec (  0.043%)
 rational function              ...        0 min,  0.000 sec (  0.278%)

================
 final structure:
================
$coord
       -7.38311539295322       -2.85317850686439        0.12777350935022      C
       -5.65142257990209       -3.71738466800255       -1.63364216400518      C
       -3.21997052195095       -2.76063695195617       -1.66066746249280      C
       -2.50074896031484       -0.91016982038695        0.06379962916801      C
       -4.24661002209149       -0.05846777919512        1.83542532676784      C
       -6.67212634844084       -1.03060672187680        1.86569730273835      C
        0.09903376550195        0.09011691027858        0.01879338816570      C
        2.12752292721735       -1.57934749766290        0.14378263878958      C
        4.58600213464593       -0.68964612931880        0.11571154723276      C
        5.08387598567708        1.87697664534561       -0.04917844044821      C
        3.08491630268120        3.55234415463552       -0.20018511225428      C
        0.61973405386988        2.66838024220604       -0.16588642961177      C
       -1.81614457994446        4.82841430900253       -0.45678110281681      Cl
        7.06320510037932       -2.80817285023936        0.28940965624193      Cl
       -9.28161941472532       -3.60132975897156        0.14833869349340      H
       -6.19663129026017       -5.14063582866665       -2.99125288527849      H
       -1.87127451786657       -3.41834041991450       -3.04511209943466      H
       -3.69001419956979        1.34348386380715        3.20940671898454      H
       -8.01261486597225       -0.36209268122015        3.25192223586111      H
        1.76444814167272       -3.58057601107556        0.28960166524402      H
        7.00512814154701        2.55421518479500       -0.06873948894128      H
        3.43423951471596        5.55449596382674       -0.35243981151246      H
$end
 
 Bond Distances (Angstroems)
 ---------------------------
C1-C2=1.3848         C1-C6=1.3848         C1-H15=1.0799        C2-C1=1.3848         C2-C3=1.3828         C2-H16=1.0801        
C3-C2=1.3828         C3-C4=1.3916         C3-H17=1.0804        C4-C3=1.3916         C4-C5=1.3913         C4-C7=1.4743         
C5-C4=1.3913         C5-C6=1.3829         C5-H18=1.0797        C6-C1=1.3848         C6-C5=1.3829         C6-H19=1.0800        
C7-C4=1.4743         C7-C8=1.3918         C7-C12=1.3953        C8-C7=1.3918         C8-C9=1.3836         C8-H20=1.0791        
C9-C8=1.3836         C9-C10=1.3863        C9-Cl14=1.7273       C10-C9=1.3863        C10-C11=1.3825       C10-H21=1.0780       
C11-C10=1.3825       C11-C12=1.3860       C11-H22=1.0785       C12-C7=1.3953        C12-C11=1.3860       C12-Cl13=1.7297      
Cl13-C12=1.7297      Cl14-C9=1.7273       H15-C1=1.0799        H16-C2=1.0801        H17-C3=1.0804        H18-C5=1.0797        
H19-C6=1.0800        H20-C8=1.0791        H21-C10=1.0780       H22-C11=1.0785       
 C  H  Rav=1.0795 sigma=0.0008  Rmin=1.0780  Rmax=1.0804     8
 C  C  Rav=1.3937 sigma=0.0236  Rmin=1.3825  Rmax=1.4743    13
 Cl C  Rav=1.7285 sigma=0.0012  Rmin=1.7273  Rmax=1.7297     2
 
 selected bond angles (degree)
 --------------------
C6-C1-C2=119.82                H15-C1-C2=120.09               H15-C1-C6=120.09               C3-C2-C1=120.12                
H16-C2-C1=120.08               H16-C2-C3=119.80               C4-C3-C2=120.36                H17-C3-C2=120.25               
H17-C3-C4=119.39               C5-C4-C3=119.22                C7-C4-C3=119.82                C7-C4-C5=120.95                
C6-C5-C4=120.24                H18-C5-C4=119.68               H18-C5-C6=120.07               C5-C6-C1=120.24                
H19-C6-C1=120.05               H19-C6-C5=119.71               C8-C7-C4=119.41                C12-C7-C4=122.44               
C12-C7-C8=118.14               C9-C8-C7=120.58                H20-C8-C7=119.28               H20-C8-C9=120.14               
C10-C9-C8=120.85               Cl14-C9-C8=119.48              Cl14-C9-C10=119.67             C11-C10-C9=119.11              
H21-C10-C9=120.37              H21-C10-C11=120.52             
 
 selected dihedral angles (degree)
 ---------------------------------
C3-C2-C1-C6=359.89            C3-C2-C1-H15=180.01           H16-C2-C1-C6=179.92           H16-C2-C1-H15=  0.04          
C4-C3-C2-C1=359.45            C4-C3-C2-H16=179.42           H17-C3-C2-C1=180.62           H17-C3-C2-H16=  0.59          
C5-C4-C3-C2=  0.83            C5-C4-C3-H17=179.67           C7-C4-C3-C2=179.86            C7-C4-C3-H17=358.70           
C6-C5-C4-C3=359.55            C6-C5-C4-C7=180.52            H18-C5-C4-C3=178.50           H18-C5-C4-C7=359.47           
C5-C6-C1-C2=  0.49            C5-C6-C1-H15=180.36           H19-C6-C1-C2=180.48           H19-C6-C1-H15=  0.35          
C1-C6-C5-C4=359.80            C1-C6-C5-H18=180.85           H19-C6-C5-C4=179.80           H19-C6-C5-H18=  0.86          
C8-C7-C4-C3=306.42            C8-C7-C4-C5=125.44            C12-C7-C4-C3=125.90           C12-C7-C4-C5=304.92           
C9-C8-C7-C4=180.27            C9-C8-C7-C12=  0.77           H20-C8-C7-C4=359.43           H20-C8-C7-C12=179.92          
C10-C9-C8-C7=359.69           C10-C9-C8-H20=180.55          Cl14-C9-C8-C7=179.68          Cl14-C9-C8-H20=  0.53         
C11-C10-C9-C8=359.65          C11-C10-C9-Cl14=179.67        H21-C10-C9-C8=179.96          H21-C10-C9-Cl14=  0.00        
           -------------------------------------------------
          |                Final Singlepoint                |
           -------------------------------------------------

          ...................................................
          :                      SETUP                      :
          :.................................................:
          :  # basis functions                  76          :
          :  # atomic orbitals                  74          :
          :  # shells                           38          :
          :  # electrons                        70          :
          :  max. iterations                   250          :
          :  Hamiltonian                  GFN2-xTB          :
          :  restarted?                      false          :
          :  GBSA solvation                  false          :
          :  PC potential                    false          :
          :  electronic temp.          300.0000000     K    :
          :  accuracy                    1.0000000          :
          :  -> integral cutoff          0.2500000E+02      :
          :  -> integral neglect         0.1000000E-07      :
          :  -> SCF convergence          0.1000000E-05 Eh   :
          :  -> wf. convergence          0.1000000E-03 e    :
          :  Broyden damping             0.4000000          :
          :  net charge                          0          :
          :  unpaired electrons                  0          :
          ...................................................

 iter      E             dE          RMSdq      gap      omega  full diag
   1    -39.4572435 -0.394572E+02  0.563E-05    3.65       0.0  T
   2    -39.4572435 -0.112124E-10  0.463E-05    3.65     460.2  T
   3    -39.4572435 -0.628120E-11  0.385E-05    3.65     553.8  T

   *** convergence criteria satisfied after 3 iterations ***

         #    Occupation            Energy/Eh            Energy/eV
      -------------------------------------------------------------
         1        2.0000           -1.0617231             -28.8910
       ...           ...                  ...                  ...
        29        2.0000           -0.4336491             -11.8002
        30        2.0000           -0.4275310             -11.6337
        31        2.0000           -0.4244453             -11.5497
        32        2.0000           -0.4204572             -11.4412
        33        2.0000           -0.4117684             -11.2048
        34        2.0000           -0.4080003             -11.1023
        35        2.0000           -0.3954029             -10.7595 (HOMO)
        36                         -0.2613139              -7.1107 (LUMO)
        37                         -0.2509438              -6.8285
        38                         -0.2303428              -6.2679
        39                         -0.2209540              -6.0125
        40                         -0.1473964              -4.0109
       ...                                ...                  ...
        74                          0.6701092              18.2346
      -------------------------------------------------------------
                  HL-Gap            0.1340890 Eh            3.6487 eV
             Fermi-level           -0.3283584 Eh           -8.9351 eV

 SCC (total)                   0 d,  0 h,  0 min,  0.015 sec
 SCC setup                      ...        0 min,  0.000 sec (  1.178%)
 Dispersion                     ...        0 min,  0.000 sec (  0.508%)
 classical contributions        ...        0 min,  0.000 sec (  0.165%)
 integral evaluation            ...        0 min,  0.003 sec ( 23.884%)
 iterations                     ...        0 min,  0.003 sec ( 17.702%)
 molecular gradient             ...        0 min,  0.008 sec ( 55.633%)
 printout                       ...        0 min,  0.000 sec (  0.774%)

         :::::::::::::::::::::::::::::::::::::::::::::::::::::
         ::                     SUMMARY                     ::
         :::::::::::::::::::::::::::::::::::::::::::::::::::::
         :: total energy             -38.869505288925 Eh    ::
         :: gradient norm              0.000039391663 Eh/a0 ::
         :: HOMO-LUMO gap              3.648747172176 eV    ::
         ::.................................................::
         :: SCC energy               -39.457179085615 Eh    ::
         :: -> isotropic ES            0.008708503568 Eh    ::
         :: -> anisotropic ES         -0.001146244031 Eh    ::
         :: -> anisotropic XC          0.019499513629 Eh    ::
         :: -> dispersion             -0.025748526746 Eh    ::
         :: repulsion energy           0.587673796690 Eh    ::
         :: add. restraining           0.000000000000 Eh    ::
         :: total charge               0.000000000000 e     ::
         :::::::::::::::::::::::::::::::::::::::::::::::::::::

           ------------------------------------------------- 
          |                Numerical Hessian                |
           ------------------------------------------------- 
step length          :   0.00500
SCC accuracy         :   0.30000
Hessian scale factor :   1.00000
frozen atoms in %    :   0.00000    0
RMS gradient         :   0.00004
estimated CPU  time      0.04 min
estimated wall time      0.04 min

writing file <hessian>.

 projected vibrational frequencies (cm⁻¹)
eigval :       -0.00    -0.00    -0.00     0.00     0.00     0.00
eigval :       48.55    67.79    81.79   100.64   179.84   220.99
eigval :      254.62   290.90   314.90   319.12   373.12   379.12
eigval :      435.11   489.90   558.45   562.86   589.04   593.75
eigval :      666.30   678.41   689.45   761.73   808.84   823.46
eigval :      876.12   881.81   906.95   908.83   931.11   933.62
eigval :      962.50  1008.50  1082.17  1100.25  1114.11  1120.62
eigval :     1151.46  1181.98  1197.69  1225.91  1273.51  1279.59
eigval :     1307.96  1317.23  1383.88  1429.59  1435.57  1484.59
eigval :     1549.50  1573.36  1583.43  1599.12  3075.42  3078.66
eigval :     3085.21  3091.37  3096.78  3102.12  3102.89  3113.93
           -------------------------------------------------
          |                Property Printout                |
           -------------------------------------------------

    * Orbital Energies and Occupations

         #    Occupation            Energy/Eh            Energy/eV
      -------------------------------------------------------------
         1        2.0000           -1.0617232             -28.8910
       ...           ...                  ...                  ...
        23        2.0000           -0.4839420             -13.1687
        24        2.0000           -0.4767022             -12.9717
        25        2.0000           -0.4666807             -12.6990
        26        2.0000           -0.4616332             -12.5617
        27        2.0000           -0.4403701             -11.9831
        28        2.0000           -0.4363647             -11.8741
        29        2.0000           -0.4336490             -11.8002
        30        2.0000           -0.4275310             -11.6337
        31        2.0000           -0.4244452             -11.5497
        32        2.0000           -0.4204571             -11.4412
        33        2.0000           -0.4117685             -11.2048
        34        2.0000           -0.4080002             -11.1023
        35        2.0000           -0.3954028             -10.7595 (HOMO)
        36                         -0.2613137              -7.1107 (LUMO)
        37                         -0.2509437              -6.8285
        38                         -0.2303429              -6.2679
        39                         -0.2209540              -6.0125
        40                         -0.1473962              -4.0109
        41                         -0.1418121              -3.8589
        42                         -0.1279280              -3.4811
        43                         -0.0953449              -2.5945
        44                          0.0075859               0.2064
        45                          0.0097155               0.2644
        46                          0.0138812               0.3777
       ...                                ...                  ...
        74                          0.6701092              18.2346
      -------------------------------------------------------------
                  HL-Gap            0.1340890 Eh            3.6487 eV
             Fermi-level           -0.3283582 Eh           -8.9351 eV

     #   Z          covCN         q      C6AA      α(0)
     1   6 C        2.920    -0.028    28.697     8.785
     2   6 C        2.919    -0.027    28.682     8.782
     3   6 C        2.925    -0.031    28.782     8.798
     4   6 C        2.979     0.017    27.631     8.622
     5   6 C        2.924    -0.026    28.663     8.780
     6   6 C        2.919    -0.027    28.669     8.780
     7   6 C        3.007     0.009    27.808     8.650
     8   6 C        2.965    -0.044    29.095     8.848
     9   6 C        2.886     0.096    25.870     8.339
    10   6 C        2.956    -0.040    28.999     8.833
    11   6 C        2.962    -0.038    28.951     8.826
    12   6 C        2.890     0.090    25.997     8.359
    13  17 Cl       0.966    -0.166   104.370    15.630
    14  17 Cl       0.968    -0.168   104.410    15.633
    15   1 H        0.926     0.035     2.517     2.481
    16   1 H        0.926     0.035     2.512     2.478
    17   1 H        0.926     0.035     2.520     2.482
    18   1 H        0.926     0.039     2.456     2.451
    19   1 H        0.926     0.036     2.502     2.474
    20   1 H        0.926     0.068     2.111     2.272
    21   1 H        0.926     0.068     2.110     2.271
    22   1 H        0.926     0.069     2.097     2.264

 Mol. C6AA /au·bohr⁶  :       9279.300660
 Mol. C8AA /au·bohr⁸  :     267129.002442
 Mol. α(0) /au        :        154.837674


Wiberg/Mayer (AO) data.
largest (>0.10) Wiberg bond orders for each atom

 ---------------------------------------------------------------------------
     #   Z sym  total        # sym  WBO       # sym  WBO       # sym  WBO
 ---------------------------------------------------------------------------
     1   6 C    3.989 --     6 C    1.437     2 C    1.436    15 H    0.971
                             4 C    0.107
     2   6 C    3.992 --     3 C    1.448     1 C    1.436    16 H    0.970
                             5 C    0.110
     3   6 C    3.991 --     2 C    1.448     4 C    1.394    17 H    0.970
                             6 C    0.110
     4   6 C    3.989 --     5 C    1.395     3 C    1.394     7 C    1.031
                             1 C    0.107
     5   6 C    3.991 --     6 C    1.447     4 C    1.395    18 H    0.970
                             2 C    0.110
     6   6 C    3.992 --     5 C    1.447     1 C    1.437    19 H    0.970
                             3 C    0.110
     7   6 C    3.986 --     8 C    1.393    12 C    1.357     4 C    1.031
                            10 C    0.101
     8   6 C    3.987 --     9 C    1.410     7 C    1.393    20 H    0.964
                            11 C    0.103
     9   6 C    3.920 --     8 C    1.410    10 C    1.394    14 Cl   0.979
    10   6 C    3.984 --    11 C    1.441     9 C    1.394    21 H    0.966
                             7 C    0.101
    11   6 C    3.987 --    10 C    1.441    12 C    1.406    22 H    0.965
                             8 C    0.103
    12   6 C    3.919 --    11 C    1.406     7 C    1.357    13 Cl   0.979
    13  17 Cl   1.118 --    12 C    0.979
    14  17 Cl   1.112 --     9 C    0.979
    15   1 H    0.998 --     1 C    0.971
    16   1 H    0.998 --     2 C    0.970
    17   1 H    0.999 --     3 C    0.970
    18   1 H    0.998 --     5 C    0.970
    19   1 H    0.998 --     6 C    0.970
    20   1 H    0.995 --     8 C    0.964
    21   1 H    0.995 --    10 C    0.966
    22   1 H    0.995 --    11 C    0.965
 ---------------------------------------------------------------------------

Topologies differ in total number of bonds
Writing topology from bond orders to xtbtopo.mol

molecular dipole:
                 x           y           z       tot (Debye)
 q only:       -0.304      -0.091       0.051
   full:       -0.286      -0.092       0.015       0.764
molecular quadrupole (traceless):
                xx          xy          yy          xz          yz          zz
 q only:       -1.175      10.361      -0.801      -1.437       1.572       1.976
  q+dip:        1.718      10.506      -0.148      -2.217       3.593      -1.570
   full:        0.189       8.380      -0.590      -1.392       1.952       0.400

           -------------------------------------------------
          |                Geometry Summary                 |
           -------------------------------------------------

      molecular mass/u    :      223.0982320
   center of mass at/Å    :        0.0000370      -0.0001842       0.0001268
  moments of inertia/u·Å² :        0.5887040E+03   0.1423177E+04   0.1900456E+04
rotational constants/cm⁻¹ :        0.2863516E-01   0.1184507E-01   0.8870308E-02

 * 22 selected distances

     #   Z          #   Z                                           value/Å
     1   6 C        2   6 C                                       1.3848072
     2   6 C        3   6 C                                       1.3827692
     3   6 C        4   6 C                                       1.3915747
     4   6 C        5   6 C                                       1.3912517
     1   6 C        6   6 C                                       1.3847521
     5   6 C        6   6 C                                       1.3828749
     7   6 C        8   6 C                                       1.3917968
     8   6 C        9   6 C                                       1.3836216
     9   6 C       10   6 C                                       1.3862646
    10   6 C       11   6 C                                       1.3825103
     7   6 C       12   6 C                                       1.3953309
    11   6 C       12   6 C                                       1.3859689
    12   6 C       13  17 Cl                                      1.7296790 (max)
     9   6 C       14  17 Cl                                      1.7273290
     1   6 C       15   1 H                                       1.0798939
     2   6 C       16   1 H                                       1.0800926
     3   6 C       17   1 H                                       1.0803827
     5   6 C       18   1 H                                       1.0797151
     6   6 C       19   1 H                                       1.0800196
     8   6 C       20   1 H                                       1.0790549
    10   6 C       21   1 H                                       1.0780478 (min)
    11   6 C       22   1 H                                       1.0785121

 * 3 distinct bonds (by element types)

   Z      Z             #   av. dist./Å        max./Å        min./Å
   1 H    6 C           8     1.0794648     1.0803827     1.0780478
   6 C    6 C          12     1.3869602     1.3953309     1.3825103
   6 C   17 Cl          2     1.7285040     1.7296790     1.7273290

           -------------------------------------------------
          |               Frequency Printout                |
           -------------------------------------------------
 projected vibrational frequencies (cm⁻¹)
eigval :       -0.00    -0.00    -0.00     0.00     0.00     0.00
eigval :       48.55    67.79    81.79   100.64   179.84   220.99
eigval :      254.62   290.90   314.90   319.12   373.12   379.12
eigval :      435.11   489.90   558.45   562.86   589.04   593.75
eigval :      666.30   678.41   689.45   761.73   808.84   823.46
eigval :      876.12   881.81   906.95   908.83   931.11   933.62
eigval :      962.50  1008.50  1082.17  1100.25  1114.11  1120.62
eigval :     1151.46  1181.98  1197.69  1225.91  1273.51  1279.59
eigval :     1307.96  1317.23  1383.88  1429.59  1435.57  1484.59
eigval :     1549.50  1573.36  1583.43  1599.12  3075.42  3078.66
eigval :     3085.21  3091.37  3096.78  3102.12  3102.89  3113.93
 reduced masses (amu)
   1: 21.48   2: 19.67   3: 17.63   4: 20.73   5: 18.95   6: 24.25   7: 14.50   8: 17.87
   9: 16.31  10: 19.61  11: 26.27  12: 14.83  13: 13.26  14: 22.62  15: 12.06  16: 23.56
  17:  8.96  18: 11.47  19: 10.05  20: 15.04  21: 16.22  22: 11.30  23: 11.37  24: 11.44
  25: 10.85  26: 10.15  27: 12.33  28:  4.83  29: 12.48  30:  3.95  31:  3.32  32:  3.24
  33:  3.54  34:  3.64  35:  4.06  36:  3.04  37: 11.50  38: 11.31  39:  7.91  40:  5.42
  41:  9.14  42:  4.18  43:  3.63  44:  1.31  45:  1.74  46:  3.10  47:  9.07  48:  3.62
  49: 11.85  50: 11.87  51:  9.87  52:  9.04  53:  9.06  54:  9.79  55: 11.61  56: 11.73
  57: 11.50  58: 11.48  59:  1.75  60:  1.78  61:  1.84  62:  1.87  63:  1.92  64:  1.83
  65:  1.80  66:  1.89
 IR intensities (km·mol⁻¹)
   1:  0.02   2:  0.02   3:  0.07   4:  0.02   5:  0.18   6:  0.01   7:  0.01   8:  0.02
   9:  0.71  10:  0.21  11:  0.59  12:  0.23  13:  0.02  14:  0.01  15:  0.08  16:  0.23
  17:  0.11  18:  0.26  19:  2.33  20:  0.90  21:  0.63  22:  1.48  23:  0.55  24:  0.98
  25:  1.46  26:  3.73  27:  0.38  28: 22.54  29:  5.57  30: 22.37  31:  1.36  32:  0.94
  33:  0.24  34:  0.19  35:  0.98  36:  0.19  37: 17.35  38: 37.65  39:  0.99  40: 22.84
  41:  9.48  42:  1.00  43:  4.15  44:  0.02  45:  0.71  46:  1.91  47:  3.70  48:  0.82
  49:  0.75  50:  0.75  51: 25.70  52:  9.22  53: 32.19  54:  3.56  55:  4.54  56: 12.22
  57:  0.07  58:  0.14  59:  3.95  60:  1.02  61: 45.39  62: 75.92  63: 30.86  64:  2.28
  65: 11.50  66:  3.94
 Raman intensities (Ä⁴*amu⁻¹)
   1:  0.00   2:  0.00   3:  0.00   4:  0.00   5:  0.00   6:  0.00   7:  0.00   8:  0.00
   9:  0.00  10:  0.00  11:  0.00  12:  0.00  13:  0.00  14:  0.00  15:  0.00  16:  0.00
  17:  0.00  18:  0.00  19:  0.00  20:  0.00  21:  0.00  22:  0.00  23:  0.00  24:  0.00
  25:  0.00  26:  0.00  27:  0.00  28:  0.00  29:  0.00  30:  0.00  31:  0.00  32:  0.00
  33:  0.00  34:  0.00  35:  0.00  36:  0.00  37:  0.00  38:  0.00  39:  0.00  40:  0.00
  41:  0.00  42:  0.00  43:  0.00  44:  0.00  45:  0.00  46:  0.00  47:  0.00  48:  0.00
  49:  0.00  50:  0.00  51:  0.00  52:  0.00  53:  0.00  54:  0.00  55:  0.00  56:  0.00
  57:  0.00  58:  0.00  59:  0.00  60:  0.00  61:  0.00  62:  0.00  63:  0.00  64:  0.00
  65:  0.00  66:  0.00
 output can be read by thermo (or use thermo option).
 writing <g98.out> molden fake output.
 recommended (thermochemical) frequency scaling factor: 1.0
           -------------------------------------------------
          |             Thermodynamic Functions             |
           -------------------------------------------------

Molecule has no symmetry elements
It seems to be the C1 point group
c1  symmetry found (for desy threshold:  0.10E+00) used in thermo

          ...................................................
          :                      SETUP                      :
          :.................................................:
          :  # frequencies                          60      :
          :  # imaginary freq.                       0      :
          :  linear?                             false      :
          :  only rotor calc.                    false      :
          :  symmetry                               c1      :
          :  rotational number                       1      :
          :  scaling factor                  1.0000000      :
          :  rotor cutoff                    0.0000000 cm⁻¹ :
          :  imag. cutoff                 -100.0000000 cm⁻¹ :
          :.................................................:

    mode    ω/cm⁻¹     T·S(HO)/kcal·mol⁻¹    T·S(FR)/kcal·mol⁻¹   T·S(vib)
   ------------------------------------------------------------------------
       1     48.55    -1.45362 (100.00%)    -1.06517 (  0.00%)    -1.45362
       2     67.79    -1.25717 (100.00%)    -0.96633 (  0.00%)    -1.25717
       3     81.79    -1.14715 (100.00%)    -0.91073 (  0.00%)    -1.14715
       4    100.64    -1.02620 (100.00%)    -0.84928 (  0.00%)    -1.02620
       5    179.84    -0.69471 (100.00%)    -0.67733 (  0.00%)    -0.69471
       6    220.99    -0.58168 (100.00%)    -0.61629 (  0.00%)    -0.58168
       7    254.62    -0.50638 (100.00%)    -0.57433 (  0.00%)    -0.50638
       8    290.90    -0.43790 (100.00%)    -0.53487 (  0.00%)    -0.43790
   ------------------------------------------------------------------------

   temp. (K)  partition function   enthalpy   heat capacity  entropy
                                   cal/mol     cal/K/mol   cal/K/mol   J/K/mol
 298.15  VIB  0.351E+04             5707.977     39.797     35.370
         ROT  0.305E+07              888.752      2.981     32.651
         INT  0.107E+11             6596.730     42.778     68.021
         TR   0.322E+28             1481.254      4.968     42.091
         TOT                        8077.9836    47.7458   110.1113   460.7058

       T/K    H(0)-H(T)+PV         H(T)/Eh          T*S/Eh         G(T)/Eh
   ------------------------------------------------------------------------
    298.15    0.128731E-01    0.169693E+00    0.523174E-01    0.117376E+00
   ------------------------------------------------------------------------

         :::::::::::::::::::::::::::::::::::::::::::::::::::::
         ::                  THERMODYNAMIC                  ::
         :::::::::::::::::::::::::::::::::::::::::::::::::::::
         :: total free energy         -38.752129719309 Eh   ::
         ::.................................................::
         :: total energy              -38.869505288938 Eh   ::
         :: zero point energy           0.156819930483 Eh   ::
         :: G(RRHO) w/o ZPVE           -0.039444360854 Eh   ::
         :: G(RRHO) contrib.            0.117375569628 Eh   ::
         :::::::::::::::::::::::::::::::::::::::::::::::::::::

optimized geometry written to: xtbopt.coord


           -------------------------------------------------
          | TOTAL ENERGY              -38.869505288938 Eh   |
          | TOTAL ENTHALPY            -38.699812272193 Eh   |
          | TOTAL FREE ENERGY         -38.752129719309 Eh   |
          | GRADIENT NORM               0.000039190462 Eh/α |
          | HOMO-LUMO GAP               3.648747868438 eV   |
           -------------------------------------------------

------------------------------------------------------------------------
 * finished run on 2025/04/15 at 20:34:00.427     
------------------------------------------------------------------------
 total:
 * wall-time:     0 d,  0 h,  0 min,  2.510 sec
 *  cpu-time:     0 d,  0 h,  0 min,  2.473 sec
 * ratio c/w:     0.985 speedup
 SCF:
 * wall-time:     0 d,  0 h,  0 min,  0.053 sec
 *  cpu-time:     0 d,  0 h,  0 min,  0.033 sec
 * ratio c/w:     0.630 speedup
 ANC optimizer:
 * wall-time:     0 d,  0 h,  0 min,  0.192 sec
 *  cpu-time:     0 d,  0 h,  0 min,  0.189 sec
 * ratio c/w:     0.985 speedup
 analytical hessian:
 * wall-time:     0 d,  0 h,  0 min,  2.236 sec
 *  cpu-time:     0 d,  0 h,  0 min,  2.234 sec
 * ratio c/w:     0.999 speedup

