24
 energy: -43.359353053610 gnorm: 0.047132934754 xtb: 6.7.1 (edcfbbe)
C           -2.57738167710843       -0.86922035765950        0.28971366745938
C           -1.16231748168247       -0.41371964920170        0.60872204426208
H           -1.04397537670387       -0.34272265281728        1.70451327055409
C           -0.82074627993846        0.94067166806458       -0.01353761989269
H           -1.02917470109153        0.89600504805112       -1.09376013931967
C            0.65195356989997        1.25388361306321        0.19764485575428
H            0.83544688708025        1.36890870698489        1.28077819456388
C            1.51746944607686        0.11930917961943       -0.32046467600661
H            1.37557998407154        0.00865527925884       -1.40742455168276
C            1.08290874416064       -1.18097907659217        0.34479237696778
H            1.23671518410867       -1.11769911152577        1.43981800768825
O           -0.29297398266873       -1.42892078856138        0.07710791581942
O            1.84056274785070       -2.21164102356562       -0.21912845004524
O            2.86848113680207        0.44694837969721       -0.00396359885967
O            0.92424129636505        2.48050811840802       -0.47726079858320
O           -1.64346451327594        1.91263528276345        0.62316287989121
O           -2.78359569982619       -1.03668976831814       -1.10690106548489
H           -3.28193486737106       -0.10543554242052        0.62888632928357
H           -2.77736814201569       -1.80378602093816        0.83646821069959
H            1.66911823013005       -3.02448421752339        0.27084173566104
H            3.42603393943037       -0.25971586680261       -0.35046985235359
H            1.86840502868056        2.65525995748522       -0.38091924438598
H           -1.35264444188076        2.77534910445301        0.30267355272181
H           -2.10580321601705       -1.65076140499598       -1.41579778089965
24
 energy: -43.361474896180 gnorm: 0.022157446030 xtb: 6.7.1 (edcfbbe)
C           -2.57781511338382       -0.86968049787863        0.28645165251604
C           -1.15346036753117       -0.42462772426873        0.60959144895522
H           -1.03214593697854       -0.35117103293650        1.70151647830705
C           -0.83090389181906        0.93916569040773       -0.00740901642891
H           -1.04447172988986        0.90553681605940       -1.08575418256458
C            0.64587851472584        1.26673946224016        0.19903468783868
H            0.84150902961341        1.38775727025574        1.27747184088646
C            1.51833267652578        0.13006043214406       -0.31939482600680
H            1.38406166288101        0.01759313032391       -1.40472230980224
C            1.08590842249517       -1.17811229140061        0.34512466274930
H            1.24371429331245       -1.10977110081196        1.43855789659300
O           -0.28282382786460       -1.43392936098988        0.09496842415970
O            1.84084846862740       -2.20705024213458       -0.20766277129045
O            2.86407836738583        0.44383015039672       -0.01415754005971
O            0.92105153429237        2.48265969141682       -0.47047264853745
O           -1.64224596978999        1.90672251031762        0.62435751123311
O           -2.77520168976178       -1.04226528721967       -1.09713039335131
H           -3.28009573118885       -0.10047783570612        0.61276923453817
H           -2.78347827713418       -1.80667336715920        0.82218221188373
H            1.63861846116303       -3.03077615011821        0.25261385233409
H            3.41492722984137       -0.27628626551494       -0.34344214709695
H            1.86956896040155        2.64262277845282       -0.39299277163268
H           -1.35099895258661        2.76793557133426        0.29925288974887
H           -2.08932031826020       -1.64744349028346       -1.40525892115990
24
 energy: -43.362328146849 gnorm: 0.008096895952 xtb: 6.7.1 (edcfbbe)
C           -2.57412744685668       -0.87432421871480        0.27977613127134
C           -1.14475391442792       -0.43162242839627        0.61581415460413
H           -1.02817213909735       -0.35442114457196        1.70670890130574
C           -0.83628128129620        0.93965354295697        0.00153770676243
H           -1.05089158328315        0.90921608592024       -1.07678843102284
C            0.64577187745813        1.27826997024583        0.19915240899820
H            0.84613406861902        1.39992071527033        1.27611327008059
C            1.52123900888864        0.13779406776018       -0.32097371719786
H            1.38363352616261        0.02567869272133       -1.40552236324366
C            1.08538020816906       -1.17295744866861        0.34956042681645
H            1.25323449633303       -1.09171224136458        1.44298924152769
O           -0.27639244536233       -1.43379961588377        0.11321330365565
O            1.83915239293747       -2.19693223158844       -0.19636746246788
O            2.86080138164427        0.44279941332755       -0.02477955065243
O            0.91490020613809        2.48451253453507       -0.46905476268207
O           -1.64382467422483        1.89619182306563        0.63181715755127
O           -2.75686940540354       -1.05124309134741       -1.09459227789560
H           -3.26910008626119       -0.09589830752313        0.59512444058574
H           -2.78828045632935       -1.80730122035688        0.81799086602652
H            1.58661612573203       -3.03767936361134        0.21517190852187
H            3.40533603297932       -0.29747209619862       -0.32204200125121
H            1.86884432538001        2.62961508552408       -0.42269095519947
H           -1.35668124701300        2.75869398228831        0.30556595168570
H           -2.06013315580959       -1.64462364846299       -1.40222908396787
24
 energy: -43.362573035617 gnorm: 0.010723889696 xtb: 6.7.1 (edcfbbe)
C           -2.57151399892986       -0.87612999338153        0.27491664503373
C           -1.14232030991901       -0.43257353150483        0.62094097672253
H           -1.03364577131995       -0.35245573760881        1.71298290106977
C           -0.83642599689333        0.94071315938747        0.00761363219487
H           -1.05081190245717        0.90819549301203       -1.07141878416540
C            0.64773893087286        1.28247131886652        0.19952135501813
H            0.84994523849612        1.40264110102527        1.27696693542793
C            1.52157590452215        0.14014068732561       -0.32288157649576
H            1.37559629748691        0.02756631455759       -1.40715011666352
C            1.08582728605220       -1.16993460823839        0.35257424382024
H            1.26016550651713       -1.08002928386372        1.44630338152181
O           -0.27395505762476       -1.43274527245217        0.12269508132699
O            1.83892419256823       -2.19359064716493       -0.19153461722961
O            2.86049244973023        0.44320220669295       -0.03218576072608
O            0.91086599236881        2.48625288511652       -0.47150488204700
O           -1.64488190301092        1.89168058885652        0.64116283809738
O           -2.74027254985021       -1.05970703865563       -1.09886754493310
H           -3.26551193342890       -0.09354355329396        0.58244808303254
H           -2.79091190870754       -1.80436474103420        0.82031727691665
H            1.55428195136162       -3.04002811638500        0.18937702945961
H            3.40064625827032       -0.31044484389357       -0.30556711007853
H            1.86702914263516        2.62451952184293       -0.44657400138788
H           -1.36231877360352        2.75647820385396        0.31687407423975
H           -2.03498323006002       -1.64595525613393       -1.40151479634263
24
 energy: -43.362820379459 gnorm: 0.010651425344 xtb: 6.7.1 (edcfbbe)
C           -2.56764090826371       -0.87785860323951        0.26730419688113
C           -1.14175778535285       -0.43153450076520        0.62888425632892
H           -1.04605866808470       -0.34877141818027        1.72298567683168
C           -0.83492482790659        0.94263003944999        0.01678027740686
H           -1.05087601947362        0.90835194094988       -1.06286579478515
C            0.65083269679855        1.28584139088314        0.20065178834697
H            0.85705656451144        1.40525580342138        1.27844833980539
C            1.51998776123727        0.14196446952895       -0.32629927538127
H            1.36016355451020        0.02809908605689       -1.41001857248092
C            1.08720943404140       -1.16518106432838        0.35744443228832
H            1.27060833505001       -1.06588981278511        1.45110247050271
O           -0.27149977979624       -1.43151448843137        0.13623278480528
O            1.83864788614309       -2.19150216386885       -0.18516536704841
O            2.86108099684415        0.44397566999156       -0.04630895710712
O            0.90623237835947        2.48865450746948       -0.47548967582565
O           -1.64476540061827        1.88821143145684        0.65747695725525
O           -2.71419002836147       -1.07515791208476       -1.10809933663854
H           -3.26404709988468       -0.09087853941661        0.55975068019461
H           -2.79610466262033       -1.79871376794874        0.82345506673491
H            1.51209924685343       -3.03887917718747        0.15545143160823
H            3.39344317537378       -0.32779699634663       -0.28485284149699
H            1.86401196847131        2.61814098822824       -0.48035205385534
H           -1.36882128658308        2.75658237721169        0.33720123556138
H           -1.99515171617200       -1.65167040313847       -1.39822245611985
24
 energy: -43.362964220743 gnorm: 0.006746429771 xtb: 6.7.1 (edcfbbe)
C           -2.56450093003767       -0.87876496516623        0.26141205204118
C           -1.14310827379302       -0.42961709211299        0.63419022497234
H           -1.05608160857682       -0.34681257497122        1.72920664611093
C           -0.83366444636451        0.94440066267872        0.02367943998049
H           -1.05346730087228        0.91207830400581       -1.05550259026795
C            0.65221200145414        1.28689998710337        0.20182116605023
H            0.86299987389665        1.40831000418195        1.27878366066845
C            1.51725938225004        0.14253229413720       -0.32806570697152
H            1.34847825857787        0.02660942060365       -1.41086518518791
C            1.08917025262944       -1.16135182129623        0.36238522276782
H            1.27755436518729       -1.05893783150308        1.45525229228892
O           -0.26948996281471       -1.43094315869228        0.14625414215022
O            1.83913370200556       -2.19167502678798       -0.17892378277045
O            2.86179942153949        0.44431876915230       -0.05923864433660
O            0.90402483710862        2.48996602211719       -0.47802895886006
O           -1.64278346245572        1.88850210794364        0.67049775203739
O           -2.69453424148744       -1.08869235366165       -1.11536662466350
H           -3.26513563748715       -0.08979093194088        0.53918400080548
H           -2.80039347221358       -1.79460846724580        0.82324569442219
H            1.48268167130463       -3.03555156727723        0.13276979357247
H            3.38730593722632       -0.33712848965482       -0.27582169376258
H            1.86160102530407        2.61290470861423       -0.50207256759670
H           -1.37023591445686        2.75878976768456        0.35294132569268
H           -1.96528966284781       -1.65907891098559       -1.39224239533112
24
 energy: -43.363057705267 gnorm: 0.003887621252 xtb: 6.7.1 (edcfbbe)
C           -2.56111826045784       -0.87998461286170        0.25596925692687
C           -1.14482244064423       -0.42780488781917        0.63810375252210
H           -1.06345085715837       -0.34647512496409        1.73303782485783
C           -0.83335600556974        0.94625758301075        0.02996458311373
H           -1.05920316220285        0.91921107649840       -1.04786209066569
C            0.65220091361700        1.28770147258432        0.20273278903151
H            0.86835376251659        1.41324176390651        1.27782946708935
C            1.51422416773650        0.14316287722156       -0.32862004424066
H            1.33937953202368        0.02296849867246       -1.40985776126349
C            1.09197202546130       -1.15716213546797        0.36866227220170
H            1.28254549138541       -1.05441130112411        1.46020354304876
O           -0.26654465466395       -1.43044580341640        0.15512050525558
O            1.84104082253576       -2.19200885913437       -0.17002025143524
O            2.86234855472059        0.44586787269196       -0.07296460169514
O            0.90260299061223        2.49082585904983       -0.48007399470751
O           -1.63947327216424        1.89054675477279        0.68276766228738
O           -2.67702601729355       -1.10177416259113       -1.12112337218989
H           -3.26645628598209       -0.09013916043914        0.51849677481537
H           -2.80357940076829       -1.79214888597165        0.82010859083585
H            1.45239056994682       -3.03203477561502        0.11054417379120
H            3.38161691533745       -0.34293725444927       -0.27055852795084
H            1.85961928936472        2.60650606710896       -0.51967655303106
H           -1.36788932922406        2.76149465447842        0.36667492794746
H           -1.93983953405229       -1.66809865921533       -1.38396366273279
24
 energy: -43.363081727036 gnorm: 0.002037974860 xtb: 6.7.1 (edcfbbe)
C           -2.55980242495818       -0.88058824761237        0.25315646929536
C           -1.14607077398888       -0.42709542568410        0.63940360954797
H           -1.06575603886736       -0.34709430632163        1.73388982628457
C           -0.83399897490496        0.94722549876410        0.03283199468200
H           -1.06389024692250        0.92447794824591       -1.04387848990971
C            0.65149718881817        1.28771491869427        0.20275527149851
H            0.87038276689445        1.41545232044492        1.27662817330848
C            1.51234279092398        0.14299507244895       -0.32907815837331
H            1.33547127386036        0.01932470244356       -1.40915700898702
C            1.09314020702387       -1.15534487965357        0.37189258890445
H            1.28421061943262       -1.05219776990615        1.46244364089279
O           -0.26536532278132       -1.43043240545302        0.15877727642933
O            1.84148678115747       -2.19295061535142       -0.16463443903167
O            2.86187674956965        0.44724464501508       -0.08036514014841
O            0.90234340577093        2.49077919805159       -0.48083148898645
O           -1.63711698296681        1.89223712564368        0.68916738540053
O           -2.66938454842303       -1.10654533341856       -1.12379834936195
H           -3.26715021272685       -0.09085414020400        0.50870405279543
H           -2.80489652382805       -1.79179040114583        0.81673619049555
H            1.44212182094817       -3.02793774369624        0.10282505152969
H            3.37932076413839       -0.34408912670135       -0.26950677742143
H            1.85926077586563        2.60202426902233       -0.52595183938141
H           -1.36396527689513        2.76274032844466        0.37325810649774
H           -1.93052200206410       -1.67293677514420       -1.37977268214865
24
 energy: -43.363086488376 gnorm: 0.003895797178 xtb: 6.7.1 (edcfbbe)
C           -2.55811585372169       -0.88171137744350        0.25068740182538
C           -1.14605420031738       -0.42682234133283        0.64067071398310
H           -1.06709138851738       -0.34735902411754        1.73491811200472
C           -0.83469304465067        0.94817141530852        0.03543893831242
H           -1.06792113856508        0.92845253745730       -1.04037277935691
C            0.65112372282971        1.28878993802000        0.20253409493185
H            0.87214927049059        1.41855234857227        1.27546463605026
C            1.51178566940785        0.14363374314443       -0.32875951451916
H            1.33264963285131        0.01646500048665       -1.40786045813284
C            1.09488737741134       -1.15314130867387        0.37602057873244
H            1.28492042938306       -1.04899274462816        1.46614530454272
O           -0.26297286349269       -1.42964184066613        0.16209417746256
O            1.84379608750745       -2.19243590024331       -0.15718990092687
O            2.86183980990550        0.44950520189383       -0.08614220860541
O            0.90158541831776        2.49088155175477       -0.48259952033804
O           -1.63545015582852        1.89288421494541        0.69489661813904
O           -2.66158245081309       -1.11174910577777       -1.12577620053207
H           -3.26695199569111       -0.09175656029641        0.50022757734925
H           -2.80524753849004       -1.79176661726693        0.81472626774653
H            1.42213221944442       -3.02782037009980        0.08772561957436
H            3.37815123116078       -0.34472099733512       -0.26653901038409
H            1.85881793123643        2.59792354624456       -0.53402811513478
H           -1.36119245294466        2.76319435687752        0.37922479337016
H           -1.92102990183734       -1.67817680989725       -1.37601186228224
24
 energy: -43.363096141681 gnorm: 0.001735872805 xtb: 6.7.1 (edcfbbe)
C           -2.55889961471489       -0.88142973659651        0.25159909985872
C           -1.14585083339012       -0.42708942686059        0.63983225300070
H           -1.06589433026228       -0.34730390121716        1.73417765397017
C           -0.83470196736373        0.94783061085775        0.03410757945583
H           -1.06684307323945        0.92700277561791       -1.04193301525646
C            0.65121267715345        1.28839566767511        0.20219417630111
H            0.87099466692461        1.41725780466591        1.27558040248584
C            1.51237228981604        0.14316123492140       -0.32869136064731
H            1.33415208830566        0.01674368011857       -1.40807787609641
C            1.09419935885641       -1.15414701066448        0.37496687109589
H            1.28353026800757       -1.04960525630505        1.46538930922066
O           -0.26376009093185       -1.42975391695779        0.16018822673985
O            1.84329838853387       -2.19283817059808       -0.15825479481620
O            2.86165341817762        0.44916296326189       -0.08334512237372
O            0.90212562913390        2.49040730298885       -0.48257975036482
O           -1.63591434396497        1.89259082833219        0.69272344842325
O           -2.66509359567210       -1.10888173220447       -1.12495445474007
H           -3.26686787860435       -0.09174961333684        0.50436206623118
H           -2.80466314308699       -1.79227077506514        0.81522114976115
H            1.42908071472750       -3.02782057295580        0.09248136718777
H            3.37976462126747       -0.34242206006408       -0.26882281289400
H            1.85927228569557        2.59922706301879       -0.52981080486636
H           -1.36099952094227        2.76274900919293        0.37707134615635
H           -1.92663219935014       -1.67685791089872       -1.37792969402075
24
 energy: -43.363104088748 gnorm: 0.000965156127 xtb: 6.7.1 (edcfbbe)
C           -2.55910856841911       -0.88178418740706        0.25173799815428
C           -1.14535698652286       -0.42741912247866        0.63907012472921
H           -1.06482579016665       -0.34741643672112        1.73354008692967
C           -0.83483802388449        0.94774448686516        0.03329667090515
H           -1.06700297173726        0.92653940784718       -1.04270094426027
C            0.65135691184811        1.28837259011710        0.20136592758096
H            0.87024447302872        1.41705983166997        1.27506627664404
C            1.51325955652802        0.14274319789214       -0.32834524916329
H            1.33499135616793        0.01530427158409       -1.40768072368661
C            1.09411535073519       -1.15443217550431        0.37583043621269
H            1.28124648639079       -1.04819913472452        1.46665126562467
O           -0.26361504712411       -1.42954064231361        0.15873655138454
O            1.84410927429826       -2.19334823751931       -0.15475128802605
O            2.86157079539054        0.45034442003019       -0.08197722546581
O            0.90259219207918        2.48967489318671       -0.48401925985116
O           -1.63570962253864        1.89236725627643        0.69237154748869
O           -2.66686436151213       -1.10709962969924       -1.12482960798473
H           -3.26666420325374       -0.09253972735798        0.50690085812465
H           -2.80353154736724       -1.79332894063662        0.81506829522063
H            1.42767890114311       -3.02757210527961        0.09029711077780
H            3.38231011821466       -0.33908560621210       -0.27052139587814
H            1.85984876476573        2.59961972538711       -0.52749865012155
H           -1.35916107505347        2.76235868158717        0.37741850627211
H           -1.93111016793401       -1.67800395966247       -1.37953204779910
24
 energy: -43.363111972892 gnorm: 0.000956288658 xtb: 6.7.1 (edcfbbe)
C           -2.55864302448792       -0.88264183712514        0.25194495963373
C           -1.14453252105731       -0.42780811510975        0.63815062027084
H           -1.06374970792688       -0.34775899587995        1.73269580052524
C           -0.83457447698472        0.94754044190503        0.03241343141869
H           -1.06706364908880        0.92621031421720       -1.04351171132526
C            0.65161666675301        1.28841638628393        0.20046062468428
H            0.86976555171840        1.41811402727201        1.27428445668586
C            1.51453568163920        0.14240153667437       -0.32718303148238
H            1.33644156031077        0.01339224754524       -1.40642733116090
C            1.09475823820213       -1.15420079803413        0.37819802559133
H            1.27826103008811       -1.04606310906509        1.46955227104258
O           -0.26249162969995       -1.42925100568939        0.15741677767741
O            1.84643752645854       -2.19399675846168       -0.14791081508679
O            2.86200885140242        0.45196617868754       -0.08021196727232
O            0.90301760844174        2.48878915281007       -0.48634696015435
O           -1.63531872404129        1.89210648523177        0.69190692448026
O           -2.66873925717166       -1.10591607412060       -1.12464520466320
H           -3.26624176833212       -0.09414577653628        0.50951324783200
H           -2.80148575209503       -1.79498582002475        0.81478154237344
H            1.41914043917985       -3.02745151710521        0.08228021877507
H            3.38544916011706       -0.33460816791723       -0.27290668401895
H            1.86040354701473        2.60040583890269       -0.52596968401794
H           -1.35727508621637        2.76212410505029        0.37825124965182
H           -1.93618444914738       -1.68027988258433       -1.38124149764807
24
 energy: -43.363115521234 gnorm: 0.000914176147 xtb: 6.7.1 (edcfbbe)
C           -2.55811617322034       -0.88330337510067        0.25296188527712
C           -1.14378435403515       -0.42826204382658        0.63757449603013
H           -1.06253747489351       -0.34812390823339        1.73205910189126
C           -0.83399532533640        0.94692566678425        0.03143549412915
H           -1.06612393596647        0.92516875215069       -1.04461924343784
C            0.65183792148366        1.28843742764537        0.19992238020872
H            0.86954696245436        1.41944870342805        1.27368778898150
C            1.51567621989262        0.14249796133320       -0.32617496781172
H            1.33877256310870        0.01273815402280       -1.40554004808982
C            1.09541763614059       -1.15379276121967        0.37953811801019
H            1.27703303635967       -1.04484219740523        1.47116854351186
O           -0.26144742160691       -1.42938640838173        0.15671296302833
O            1.84802747844259       -2.19441994922121       -0.14388833454566
O            2.86285290194674        0.45293713627298       -0.07816634587339
O            0.90298844285491        2.48845049033901       -0.48780444249127
O           -1.63554161874512        1.89146276096622        0.69012011322915
O           -2.67136547551329       -1.10462980509852       -1.12381205006376
H           -3.26578028199279       -0.09549348544423        0.51301188801623
H           -2.79944570513560       -1.79653812714322        0.81497931293535
H            1.41229274003494       -3.02665935381851        0.07518096050593
H            3.38717719550790       -0.33390217133562       -0.27238192023447
H            1.86047962685964        2.60228053571732       -0.52463133382110
H           -1.35776678960440        2.76172753148151        0.37709812476453
H           -1.94066235395979       -1.68036267698622       -1.38293722033805
24
 energy: -43.363117448792 gnorm: 0.000490099134 xtb: 6.7.1 (edcfbbe)
C           -2.55775234893075       -0.88356374635239        0.25429836424474
C           -1.14330491663378       -0.42846140045937        0.63743894617790
H           -1.06143304261274       -0.34794607715842        1.73180576034893
C           -0.83351770356594        0.94631041791527        0.03050908857824
H           -1.06477569577689        0.92372767248613       -1.04573855515668
C            0.65194003371109        1.28832211235199        0.19998201842502
H            0.86908673021468        1.42038364949139        1.27365679950132
C            1.51645500339690        0.14249317862048       -0.32493300768597
H            1.34126498890212        0.01332134309449       -1.40461037039769
C            1.09584427464132       -1.15386589274825        0.38014180754884
H            1.27701224653660       -1.04517846553159        1.47181697165661
O           -0.26079031891268       -1.42964803080161        0.15662661935080
O            1.84869938293202       -2.19490169397267       -0.14269072107692
O            2.86357457134432        0.45234825957004       -0.07495711394257
O            0.90285457477261        2.48817210403934       -0.48843031965439
O           -1.63607449043492        1.89104164877406        0.68766707664633
O           -2.67331945379301       -1.10358514710740       -1.12268036371833
H           -3.26536539425328       -0.09621144381144        0.51604459580069
H           -2.79805012521650       -1.79747384185356        0.81558328729741
H            1.40783572962036       -3.02612076347247        0.06986299991089
H            3.38770646287882       -0.33283891942847       -0.27282109928336
H            1.86018261527977        2.60384969978745       -0.52334117300308
H           -1.35935122796845        2.76132619587423        0.37392624935540
H           -1.94318608105515       -1.67914200238060       -1.38366259711176
24
 energy: -43.363118885240 gnorm: 0.000243473035 xtb: 6.7.1 (edcfbbe)
C           -2.55758888291159       -0.88363751541465        0.25562938792641
C           -1.14301412236868       -0.42848021755040        0.63787512904747
H           -1.06053953179548       -0.34745364882828        1.73214656167420
C           -0.83334405901956        0.94588342215654        0.02998609721128
H           -1.06362646966838        0.92219246630062       -1.04646267959578
C            0.65195724932794        1.28848418171014        0.20010458308003
H            0.86870896049515        1.42097096925384        1.27374863279608
C            1.51689651771237        0.14277628876289       -0.32435369604150
H            1.34313294324551        0.01431985541244       -1.40434538293204
C            1.09593544564984       -1.15401969931135        0.37972312109175
H            1.27829458165408       -1.04622125112470        1.47128741278658
O           -0.26065015060470       -1.42984512770095        0.15711085513187
O            1.84817654410033       -2.19496426661671       -0.14456147197029
O            2.86399862689195        0.45188464627489       -0.07263554440107
O            0.90251248570458        2.48827650110098       -0.48858134127075
O           -1.63676221344491        1.89078046112899        0.68560067596456
O           -2.67419624526075       -1.10303759844382       -1.12143854421022
H           -3.26509437936270       -0.09650392938875        0.51822954442494
H           -2.79738301991426       -1.79792716512348        0.81647708025932
H            1.40593429045067       -3.02569173866401        0.06603681716981
H            3.38737000941678       -0.33423536842571       -0.26985147308219
H            1.85966520584396        2.60496235863317       -0.52292265845383
H           -1.36153722658106        2.76092219692772        0.37017837753364
H           -1.94331074448456       -1.67707696414280       -1.38348622032789
24
 energy: -43.363119787035 gnorm: 0.000173584923 xtb: 6.7.1 (edcfbbe)
C           -2.55755488631001       -0.88370106064810        0.25712908025352
C           -1.14278378491313       -0.42833509990989        0.63840436952223
H           -1.05948347217889       -0.34676810694338        1.73257258286323
C           -0.83337731705025        0.94558285651156        0.02941945835023
H           -1.06273649356704        0.92056522505045       -1.04719417535247
C            0.65186707963504        1.28868589198177        0.20017642395781
H            0.86807749755638        1.42150335538742        1.27385707909985
C            1.51742613571165        0.14306701400162       -0.32363526055843
H            1.34526189841175        0.01525314752594       -1.40395415824631