
                                 *****************
                                 * O   R   C   A *
                                 *****************

                                            #,                                       
                                            ###                                      
                                            ####                                     
                                            #####                                    
                                            ######                                   
                                           ########,                                 
                                     ,,################,,,,,                         
                               ,,#################################,,                 
                          ,,##########################################,,             
                       ,#########################################, ''#####,          
                    ,#############################################,,   '####,        
                  ,##################################################,,,,####,       
                ,###########''''           ''''###############################       
              ,#####''   ,,,,##########,,,,          '''####'''          '####       
            ,##' ,,,,###########################,,,                        '##       
           ' ,,###''''                  '''############,,,                           
         ,,##''                                '''############,,,,        ,,,,,,###''
      ,#''                                            '''#######################'''  
     '                                                          ''''####''''         
             ,#######,   #######,   ,#######,      ##                                
            ,#'     '#,  ##    ##  ,#'     '#,    #''#        ,####,   ,####,        
            ##       ##  ##   ,#'  ##            #'  '#       #'       #'  '#        
            ##       ##  #######   ##           ,######,      #####,   #    #        
            '#,     ,#'  ##    ##  '#,     ,#' ,#      #,     #,   #   #,  ,#        
             '#######'   ##     ##  '#######'  #'      '#     '####' # '####'        



                #########################################################
                #                        -***-                          #
                #          Department of theory and spectroscopy        #
                #                                                       #
                #                      Frank Neese                      #
                #                                                       #
                #     Directorship, Architecture, Infrastructure        #
                #                    SHARK, DRIVERS                     #
                #        Core code/Algorithms in most modules           #
                #                                                       #
                #        Max Planck Institute fuer Kohlenforschung      #
                #                Kaiser Wilhelm Platz 1                 #
                #                 D-45470 Muelheim/Ruhr                 #
                #                      Germany                          #
                #                                                       #
                #                  All rights reserved                  #
                #                        -***-                          #
                #########################################################


                         Program Version 6.0.1  -  RELEASE   -


 With contributions from (in alphabetic order):
[Max-Planck-Institut fuer Kohlenforschung]                               
  Daniel Aravena         : Magnetic Suceptibility                        
  Michael Atanasov       : Ab Initio Ligand Field Theory (pilot matlab implementation)
  Alexander A. Auer      : GIAO ZORA, VPT2 properties, NMR spectrum      
  Ute Becker             : All parallelization in ORCA, NUMFREQ, NUMCALC 
  Giovanni Bistoni       : ED, misc. LED, open-shell LED, HFLD           
  Martin Brehm           : Molecular dynamics                            
  Dmytro Bykov           : pre 5.0 version of the SCF Hessian            
  Marcos Casanova-Páez   : Triplet and SCS-CIS(D). UHF-(DLPNO)-IP/EA/STEOM-CCSD. UHF-CVS-IP/STEOM-CCSD   
  Vijay G. Chilkuri      : MRCI spin determinant printing, contributions to CSF-ICE 
  Pauline Colinet        : FMM embedding                                 
  Dipayan Datta          : RHF DLPNO-CCSD density                        
  Achintya Kumar Dutta   : EOM-CC, STEOM-CC                              
  Nicolas Foglia         : Exact transition moments, OPA infrastructure, MCD improvements    
  Dmitry Ganyushin       : Spin-Orbit,Spin-Spin,Magnetic field MRCI      
  Miquel Garcia-Rates    : C-PCM and meta-GGA Hessian, CCSD/C-PCM, Gaussian charge scheme 
  Tiago L. C. Gouveia    : GS-ROHF, GS-ROCIS                             
  Yang Guo               : DLPNO-NEVPT2, F12-NEVPT2, CIM, IAO-localization        
  Andreas Hansen         : Spin unrestricted coupled pair/coupled cluster methods 
  Ingolf Harden          : AUTO-CI MPn and infrastructure                
  Benjamin Helmich-Paris : MC-RPA, TRAH-(SCF,CASSCF), AVAS, COSX integrals, SCF dyn. polar. 
  Lee Huntington         : MR-EOM, pCC                                   
  Robert Izsak           : Overlap fitted RIJCOSX, COSX-SCS-MP3, EOM     
  Riya Kayal             : Wick's Theorem for AUTO-CI, AUTO-CI UHF-CCSDT 
  Emily Kempfer          : AUTO-CI, RHF CISDT and CCSDT                  
  Christian Kollmar      : KDIIS, OOCD, Brueckner-CCSD(T), CCSD density, CASPT2, CASPT2-K, improved NEVPT2 
  Axel Koslowski         : Symmetry handling                             
  Simone Kossmann        : meta-GGA functionals, TD-DFT gradient, OOMP2, (MP2 Hessian; deprecated post 5.0) 
  Lucas Lang             : DCDCAS                                        
  Marvin Lechner         : AUTO-CI (C++ implementation), FIC-MRCC        
  Spencer Leger          : CASSCF response                               
  Dagmar Lenk            : GEPOL surface, SMD, ORCA-2-JSON               
  Dimitrios Liakos       : Extrapolation schemes; Compound Job, initial MDCI parallelization 
  Dimitrios Manganas     : Further ROCIS development; embedding schemes. LFT, Crystal Embedding 
  Dimitrios Pantazis     : SARC Basis sets                               
  Anastasios Papadopoulos: AUTO-CI, single reference methods and gradients 
  Taras Petrenko         : pre 6.0 DFT Hessian and TD-DFT gradient, (ASA, deprecated), ECA, 1-Electron XAS/XES, NRVS 
  Peter Pinski           : DLPNO-MP2, DLPNO-MP2 Gradient                 
  Christoph Reimann      : Effective Core Potentials                     
  Marius Retegan         : Local ZFS, SOC                                
  Christoph Riplinger    : Optimizer, TS searches, QM/MM, DLPNO-CCSD(T), (RO)-DLPNO pert. Triples 
  Michael Roemelt        : Original ROCIS implementation                 
  Masaaki Saitow         : Open-shell DLPNO-CCSD energy and density      
  Barbara Sandhoefer     : DKH picture change effects                    
  Kantharuban Sivalingam : CASSCF convergence/infrastructure, NEVPT2 and variants, FIC-MRCI 
  Bernardo de Souza      : ESD, SOC TD-DFT                               
  Georgi L. Stoychev     : AutoAux, RI-MP2 NMR, DLPNO-MP2 response, X2C  
  Van Anh Tran           : RI-MP2 g-tensors                              
  Willem Van den Heuvel  : Paramagnetic NMR                              
  Zikuan Wang            : NOTCH, Electric field optimization            
  Frank Wennmohs         : Technical directorship and infrastructure     
  Hang Xu                : AUTO-CI-Response properties                   
                                                                         
[FACCTs GmbH]                                                            
  Markus Bursch, Miquel Garcia-Rates, Christoph Riplinger, Bernardo de Souza, Georgi L. Stoychev 
                                                                 
  APM, Basis sets (HGBS, AHGBS, def-TZVP (Ac-Lr), def2-XVPD (La-Lu)), CI-OPT, improved COSX, DLPNO-Multilevel,           
  DOCKER, DRACO, updates on ESD, GOAT, IRC, LR-CPCM, MBIS, meta-GGA TD-DFT gradient, ML-optimized integration grids, 
  MM, NACMEs, nearIR, NEB, NEB-TS, NL-DFT gradient (VV10), 2- and 3-layer-ONIOM, interface openCOSMO-RS, QMMM,   
  Crystal-QMMM, SF, symmetry and pop. for TD-DFT, r2SCAN hybrids, SOLVATOR                                   
                                                                         
[Other institutions]                                                     
  V. Asgeirsson          : NEB                                           
  Christoph Bannwarth    : sTDA-DFT, sTD-DFT, PBEh-3c, B97-3c, D3        
  Sebastian Ehlert       : rSCAN, r2SCAN, r2SCAN-3c, D4, dhf basis sets  
  Marvin Friede          : D4 for Fr, Ra, Ac-Lr                          
  Lars Goerigk           : TD-DFT with DH, B97 family of functionals     
  Stefan Grimme          : VdW corrections, initial TS optimization, DFT functionals, gCP, sTDA/sTD-DF 
  Waldemar Hujo          : DFT-NL                                        
  H. Jonsson             : NEB                                           
  Holger Kruse           : gCP                                           
  Marcel Mueller         : wB97X-3c, vDZP basis set                      
  Hagen Neugebauer       : wr2SCAN                                       
  Tobias Risthaus        : range-separated hybrid DFT                    
  Lukas Wittmann         : regularized MP2, r2SCAN double-hybrids, wr2SCAN        
                                                                         
We gratefully acknowledge several colleagues who have allowed us to      
interface, adapt or use parts of their codes:                            
  Ed Valeev, F. Pavosevic, A. Kumar             : LibInt (2-el integral package), F12 methods 
  Garnet Chan, S. Sharma, J. Yang, R. Olivares  : DMRG                   
  Ulf Ekstrom                                   : XCFun DFT Library      
  Mihaly Kallay                                 : mrcc  (arbitrary order and MRCC methods)
  Frank Weinhold                                : gennbo (NPA and NBO analysis)           
  Simon Mueller                                 : openCOSMO-RS                            
  Christopher J. Cramer and Donald G. Truhlar   : smd solvation model                     
  S Lehtola, MJT Oliveira, MAL Marques          : LibXC Library                           
  Liviu Ungur et al                             : ANISO software                          


 Your calculation uses the libint2 library for the computation of 2-el integrals
 For citations please refer to: http://libint.valeyev.net

 Your ORCA version has been built with support for libXC version: 6.2.2
 For citations please refer to: https://libxc.gitlab.io

 This ORCA versions uses:
   CBLAS   interface :  Fast vector & matrix operations
   LAPACKE interface :  Fast linear algebra routines
   SCALAPACK package :  Parallel linear algebra routines
   Shared memory     :  Shared parallel matrices
   BLAS/LAPACK       :  OpenBLAS 0.3.27  USE64BITINT DYNAMIC_ARCH NO_AFFINITY Zen SINGLE_THREADED
        Core in use  :  Zen
   Copyright (c) 2011-2014, The OpenBLAS Project


Your calculation utilizes the geometrical counterpoise correction gCP
Please cite in your paper:
H.Kruse, S. Grimme J.Chem.Phys., 136, (2012), 154101 
   

Your calculation utilizes the atom-pairwise dispersion correction
based on EEQ partial charges (D4)


================================================================================

----- Orbital basis set information -----
Your calculation utilizes the basis: def2-SV(P)
   F. Weigend and R. Ahlrichs, Phys. Chem. Chem. Phys. 7, 3297 (2005).

----- AuxJ basis set information -----
Your calculation utilizes the auxiliary basis: def2/J
   F. Weigend, Phys. Chem. Chem. Phys. 8, 1057 (2006).

================================================================================
                                        WARNINGS
                       Please study these warnings very carefully!
================================================================================


================================================================================
                                       INPUT FILE
================================================================================
NAME = sp.inp
|  1> ! pbe def2-sv(p) def2/J RI DEFGRID1 loosescf d4 GCP(DFT/SV(P)) printgap
|  2> %output
|  3>     printlevel normal
|  4> end
|  5> * xyz 0 1
|  6> C -2.2615183777 -0.9732334078 -0.1722452637
|  7> O -1.0118313506 -0.6383517437 0.4217032847
|  8> C -0.4617244517 0.5215708793 0.0758596523
|  9> O -0.9397222746 1.320680368 -0.6779330146
| 10> C 0.8911998906 0.6882385233 0.7658237883
| 11> C 1.8588336517 -0.1336645319 0.0832166747
| 12> N 2.6159512322 -0.7888867525 -0.4658620734
| 13> H -2.3416769329 -0.5200327887 -1.1615757017
| 14> H -3.0750430993 -0.6110030096 0.4589502529
| 15> H -2.2940770546 -2.0581531081 -0.2404131756
| 16> H 0.8182025226 0.3602097072 1.8046982667
| 17> H 1.1986365275 1.7344082137 0.7104951567
| 18> *
| 19> 
| 20>                          ****END OF INPUT****
================================================================================

                       ****************************
                       * Single Point Calculation *
                       ****************************

---------------------------------
CARTESIAN COORDINATES (ANGSTROEM)
---------------------------------
  C     -2.261518   -0.973233   -0.172245
  O     -1.011831   -0.638352    0.421703
  C     -0.461724    0.521571    0.075860
  O     -0.939722    1.320680   -0.677933
  C      0.891200    0.688239    0.765824
  C      1.858834   -0.133665    0.083217
  N      2.615951   -0.788887   -0.465862
  H     -2.341677   -0.520033   -1.161576
  H     -3.075043   -0.611003    0.458950
  H     -2.294077   -2.058153   -0.240413
  H      0.818203    0.360210    1.804698
  H      1.198637    1.734408    0.710495

----------------------------
CARTESIAN COORDINATES (A.U.)
----------------------------
  NO LB      ZA    FRAG     MASS         X           Y           Z
   0 C     6.0000    0    12.011   -4.273650   -1.839145   -0.325496
   1 O     8.0000    0    15.999   -1.912084   -1.206310    0.796904
   2 C     6.0000    0    12.011   -0.872533    0.985626    0.143354
   3 O     8.0000    0    15.999   -1.775818    2.495724   -1.281108
   4 C     6.0000    0    12.011    1.684124    1.300582    1.447197
   5 C     6.0000    0    12.011    3.512687   -0.252589    0.157257
   6 N     7.0000    0    14.007    4.943431   -1.490780   -0.880352
   7 H     1.0000    0     1.008   -4.425128   -0.982720   -2.195060
   8 H     1.0000    0     1.008   -5.810989   -1.154628    0.867290
   9 H     1.0000    0     1.008   -4.335177   -3.889346   -0.454315
  10 H     1.0000    0     1.008    1.546179    0.680698    3.410385
  11 H     1.0000    0     1.008    2.265095    3.277557    1.342641

--------------------------------
INTERNAL COORDINATES (ANGSTROEM)
--------------------------------
 C      0   0   0     0.000000000000     0.00000000     0.00000000
 O      1   0   0     1.423600461084     0.00000000     0.00000000
 C      2   1   0     1.329528453865   117.38148173     0.00000000
 O      3   2   1     1.198023905563   125.48683445     1.30541073
 C      3   2   1     1.527819651828   110.12661189   182.12156062
 C      5   3   2     1.441454889792   108.56534744    76.61339191
 N      6   5   3     1.141941618773   179.33582402   359.52174434
 H      1   2   3     1.091142021314   110.18612091    29.33957362
 H      1   2   3     1.091531545220   109.56828028   268.95628588
 H      1   2   3     1.087546637047   106.68436745   149.69701534
 H      5   3   2     1.091875314218   109.73706829   317.68054483
 H      5   3   2     1.091810223571   109.32907783   195.98316023

---------------------------
INTERNAL COORDINATES (A.U.)
---------------------------
 C      0   0   0     0.000000000000     0.00000000     0.00000000
 O      1   0   0     2.690214995573     0.00000000     0.00000000
 C      2   1   0     2.512444665060   117.38148173     0.00000000
 O      3   2   1     2.263937083404   125.48683445     1.30541073
 C      3   2   1     2.887160723977   110.12661189   182.12156062
 C      5   3   2     2.723954976108   108.56534744    76.61339191
 N      6   5   3     2.157956920407   179.33582402   359.52174434
 H      1   2   3     2.061959593497   110.18612091    29.33957362
 H      1   2   3     2.062695687002   109.56828028   268.95628588
 H      1   2   3     2.055165301887   106.68436745   149.69701534
 H      5   3   2     2.063345316260   109.73706829   317.68054483
 H      5   3   2     2.063222312765   109.32907783   195.98316023

---------------------
BASIS SET INFORMATION
---------------------
There are 4 groups of distinct atoms

 Group   1 Type C   : 7s4p1d contracted to 3s2p1d pattern {511/31/1}
 Group   2 Type O   : 7s4p1d contracted to 3s2p1d pattern {511/31/1}
 Group   3 Type N   : 7s4p1d contracted to 3s2p1d pattern {511/31/1}
 Group   4 Type H   : 4s contracted to 2s pattern {31}

Atom   0C    basis set group =>   1
Atom   1O    basis set group =>   2
Atom   2C    basis set group =>   1
Atom   3O    basis set group =>   2
Atom   4C    basis set group =>   1
Atom   5C    basis set group =>   1
Atom   6N    basis set group =>   3
Atom   7H    basis set group =>   4
Atom   8H    basis set group =>   4
Atom   9H    basis set group =>   4
Atom  10H    basis set group =>   4
Atom  11H    basis set group =>   4
---------------------------------
AUXILIARY/J BASIS SET INFORMATION
---------------------------------
There are 4 groups of distinct atoms

 Group   1 Type C   : 12s5p4d2f1g contracted to 6s4p3d1f1g pattern {711111/2111/211/2/1}
 Group   2 Type O   : 12s5p4d2f1g contracted to 6s4p3d1f1g pattern {711111/2111/211/2/1}
 Group   3 Type N   : 12s5p4d2f1g contracted to 6s4p3d1f1g pattern {711111/2111/211/2/1}
 Group   4 Type H   : 5s2p1d contracted to 3s1p1d pattern {311/2/1}

Atom   0C    basis set group =>   1
Atom   1O    basis set group =>   2
Atom   2C    basis set group =>   1
Atom   3O    basis set group =>   2
Atom   4C    basis set group =>   1
Atom   5C    basis set group =>   1
Atom   6N    basis set group =>   3
Atom   7H    basis set group =>   4
Atom   8H    basis set group =>   4
Atom   9H    basis set group =>   4
Atom  10H    basis set group =>   4
Atom  11H    basis set group =>   4
------------------------------------------------------------------------------
                             ORCA STARTUP CALCULATIONS
                           -- RI-GTO INTEGRALS CHOSEN --
------------------------------------------------------------------------------
------------------------------------------------------------------------------
                   ___                                                        
                  /   \      - P O W E R E D   B Y -                         
                 /     \                                                     
                 |  |  |   _    _      __       _____    __    __             
                 |  |  |  | |  | |    /  \     |  _  \  |  |  /  |          
                  \  \/   | |  | |   /    \    | | | |  |  | /  /          
                 / \  \   | |__| |  /  /\  \   | |_| |  |  |/  /          
                |  |  |   |  __  | /  /__\  \  |    /   |      \           
                |  |  |   | |  | | |   __   |  |    \   |  |\   \          
                \     /   | |  | | |  |  |  |  | |\  \  |  | \   \       
                 \___/    |_|  |_| |__|  |__|  |_| \__\ |__|  \__/        
                                                                              
                      - O R C A' S   B I G   F R I E N D -                    
                                      &                                       
                       - I N T E G R A L  F E E D E R -                       
                                                                              
 v1 FN, 2020, v2 2021, v3 2022-2024                                           
------------------------------------------------------------------------------


----------------------
SHARK INTEGRAL PACKAGE
----------------------

Number of atoms                             ...     12
Number of basis functions                   ...    108
Number of shells                            ...     52
Maximum angular momentum                    ...      2
Integral batch strategy                     ... SHARK/LIBINT Hybrid
RI-J (if used) integral strategy            ... SPLIT-RIJ (Revised 2003 algorithm where possible)
Printlevel                                  ...      1
Contraction scheme used                     ... SEGMENTED contraction
Prescreening option                         ... SCHWARTZ
   Thresh                                   ... 1.000e-09
   Tcut                                     ... 1.000e-10
   Tpresel                                  ... 1.000e-10 
Coulomb Range Separation                    ... NOT USED
Exchange Range Separation                   ... NOT USED
Multipole approximations                    ... NOT USED
Finite Nucleus Model                        ... NOT USED
CABS basis                                  ... NOT available
Auxiliary Coulomb fitting basis             ... AVAILABLE
   # of basis functions in Aux-J            ...    398
   # of shells in Aux-J                     ...    130
   Maximum angular momentum in Aux-J        ...      4
Auxiliary J/K fitting basis                 ... NOT available
Auxiliary Correlation fitting basis         ... NOT available
Auxiliary 'external' fitting basis          ... NOT available

Checking pre-screening integrals            ... done (  0.0 sec) Dimension = 52
Check shell pair data                       ... done (  0.0 sec)
Shell pair information
Shell pair cut-off parameter TPreSel        ...   1.0e-10
Total number of shell pairs                 ...      1378
Shell pairs after pre-screening             ...      1298
Total number of primitive shell pairs       ...      5566
Primitive shell pairs kept                  ...      3761
          la=0 lb=0:    459 shell pairs
          la=1 lb=0:    419 shell pairs
          la=1 lb=1:    103 shell pairs
          la=2 lb=0:    197 shell pairs
          la=2 lb=1:     94 shell pairs
          la=2 lb=2:     26 shell pairs

Calculating one electron integrals          ... done (  0.0 sec)
Calculating RI/J V-Matrix + Cholesky decomp.... done (  0.0 sec)
Calculating Nuclear repulsion               ... done (  0.0 sec) ENN=    278.734550212357 Eh

Diagonalization of the overlap matrix:
Smallest eigenvalue                        ... 8.598e-04
Time for diagonalization                   ...    0.001 sec
Threshold for overlap eigenvalues          ... 1.000e-07
Number of eigenvalues below threshold      ... 0
Time for construction of square roots      ...    0.003 sec
Total time needed                          ...    0.005 sec

-------------------
DFT GRID GENERATION
-------------------

General Integration Accuracy     IntAcc      ... 4.159
Radial Grid Type                 RadialGrid  ... OptM3 with GC (2021)
Angular Grid (max. ang.)         AngularGrid ... 3 (Lebedev-194)
Angular grid pruning method      GridPruning ... 4 (adaptive)
Weight generation scheme         WeightScheme... mBecke (2022)
Basis function cutoff            BFCut       ... 1.0000e-10
Integration weight cutoff        WCut        ... 1.0000e-14
Partially contracted basis set               ... off
Rotationally invariant grid construction     ... off
Angular grids for H and He will be reduced by one unit

Total number of grid points                  ...    30287
Total number of batches                      ...      480
Average number of points per batch           ...       63
Average number of grid points per atom       ...     2524
Initializing property integral containers    ... done (  0.0 sec)

SHARK setup successfully completed in   2.2 seconds

Maximum memory used throughout the entire STARTUP-calculation: 15.4 MB
-------------------------------------------------------------------------------
                                 ORCA GUESS
                   Start orbitals & Density for SCF / CASSCF
-------------------------------------------------------------------------------

------------
SCF SETTINGS
------------
Hamiltonian:
 Density Functional     Method          .... DFT(GTOs)
 Exchange Functional    Exchange        .... PBE
   PBE kappa parameter   XKappa         ....  0.804000
   PBE mue parameter    XMuePBE         ....  0.219520
 Correlation Functional Correlation     .... PBE
   PBE beta parameter  CBetaPBE         ....  0.066725
 LDA part of GGA corr.  LDAOpt          .... PW91-LDA
 Gradients option       PostSCFGGA      .... off
   NL short-range parameter             ....  6.400000
 RI-approximation to the Coulomb term is turned on
   Number of AuxJ basis functions       .... 398


General Settings:
 Integral files         IntName         .... sp
 Hartree-Fock type      HFTyp           .... RHF
 Total Charge           Charge          ....    0
 Multiplicity           Mult            ....    1
 Number of Electrons    NEL             ....   52
 Basis Dimension        Dim             ....  108
 Nuclear Repulsion      ENuc            ....    278.7345502124 Eh

Convergence Acceleration:
 AO-DIIS                CNVDIIS         .... on
   Start iteration      DIISMaxIt       ....    12
   Startup error        DIISStart       ....  0.200000
   # of expansion vecs  DIISMaxEq       ....     5
   Bias factor          DIISBfac        ....   1.050
   Max. coefficient     DIISMaxC        ....  10.000
 MO-DIIS                CNVKDIIS        .... off
 Trust-Rad. Augm. Hess. CNVTRAH         .... auto
   Auto Start mean grad. ratio tolernc. ....  1.125000
   Auto Start start iteration           ....    50
   Auto Start num. interpolation iter.  ....    10
   Max. Number of Micro iterations      ....    24
   Max. Number of Macro iterations      .... Maxiter - #DIIS iter
   Number of Davidson start vectors     ....     2
   Converg. threshold    (grad. norm)   ....   1.000e-04
   Grad. Scal. Fac. for Micro threshold ....   0.100
   Minimum threshold for Micro iter.    ....   1.000e-02
   NR start threshold (gradient norm)   ....   1.000e-04
   Initial trust radius                 ....   0.400
   Minimum AH scaling param. (alpha)    ....   1.000
   Maximum AH scaling param. (alpha)    .... 1000.000
   Quad. conv. algorithm                .... NR
   White noise on init. David. guess    .... on
   Maximum white noise                  ....   0.010
   Pseudo random numbers                .... off
   Inactive MOs                         .... canonical
   Orbital update algorithm             .... Taylor
   Preconditioner                       .... Diag
   Full preconditioner red. dimension   ....   250
 SOSCF                  CNVSOSCF        .... on
   Start iteration      SOSCFMaxIt      ....   150
   Startup grad/error   SOSCFStart      ....  0.003300
   Hessian update       SOSCFHessUp     .... L-BFGS
 Level Shifting         CNVShift        .... on
   Level shift para.    LevelShift      ....    0.2500
   Turn off err/grad.   ShiftErr        ....    0.0010
 Zerner damping         CNVZerner       .... off
 Static damping         CNVDamp         .... on
   Fraction old density DampFac         ....    0.7000
   Max. Damping (<1)    DampMax         ....    0.9800
   Min. Damping (>=0)   DampMin         ....    0.0000
   Turn off err/grad.   DampErr         ....    0.1000

SCF Procedure:
 Maximum # iterations   MaxIter         ....   125
 SCF integral mode      SCFMode         .... Direct
   Integral package                     .... SHARK and LIBINT hybrid scheme
 Reset frequency        DirectResetFreq ....    20
 Integral Threshold     Thresh          ....  1.000e-09 Eh
 Primitive CutOff       TCut            ....  1.000e-10 Eh

Convergence Tolerance:
 Convergence Check Mode ConvCheckMode   .... Total+1el-Energy
 Convergence forced     ConvForced      .... 0
 Energy Change          TolE            ....  1.000e-05 Eh
 1-El. energy change                    ....  1.000e-02 Eh
 Orbital Gradient       TolG            ....  1.000e-04
 Orbital Rotation angle TolX            ....  1.000e-04
 DIIS Error             TolErr          ....  5.000e-04

------------------------------
INITIAL GUESS: MODEL POTENTIAL
------------------------------
Loading Hartree-Fock densities                     ... done
Calculating cut-offs                               ... done
Initializing the effective Hamiltonian             ... done
Setting up the integral package (SHARK)            ... done
Starting the Coulomb interaction                   ... done (   0.0 sec)
Making the grid                                    ... done (   0.1 sec)
Mapping shells                                     ... done
Starting the XC term evaluation                    ... done (   0.1 sec)
  promolecular density results
     # of electrons  =     51.995605848
     EX              =    -44.717695570
     EC              =     -1.718675771
     EX+EC           =    -46.436371341
Transforming the Hamiltonian                       ... done (   0.0 sec)
Diagonalizing the Hamiltonian                      ... done (   0.0 sec)
Back transforming the eigenvectors                 ... done (   0.0 sec)
Now organizing SCF variables                       ... done
                      ------------------
                      INITIAL GUESS DONE (   0.2 sec)
                      ------------------
             **** ENERGY FILE WAS UPDATED (sp.en.tmp) ****
Finished Guess after   0.3 sec
Maximum memory used throughout the entire GUESS-calculation: 12.1 MB

-------------------------------------------------------------------------------------------
                                      ORCA LEAN-SCF
                              memory conserving SCF solver
-------------------------------------------------------------------------------------------

----------------------------------------D-I-I-S--------------------------------------------
Iteration    Energy (Eh)           Delta-E    RMSDP     MaxDP     DIISErr   Damp  Time(sec)
-------------------------------------------------------------------------------------------
               ***  Starting incremental Fock matrix formation  ***
    1    -359.7067604762155497     0.00e+00  6.22e-03  9.48e-02  2.36e-01  0.700   4.4
    2    -359.8199294383057349    -1.13e-01  3.48e-03  4.94e-02  6.22e-02  0.700   0.2
                               ***Turning on AO-DIIS***
    3    -359.8451704625715593    -2.52e-02  1.35e-03  2.23e-02  3.01e-02  0.700  11.4
    4    -359.8669988032515903    -2.18e-02  1.95e-03  3.35e-02  2.69e-02  0.000   0.6
    5    -359.9203921684515990    -5.34e-02  6.91e-04  1.05e-02  9.17e-03  0.000   0.2
    6    -359.9210050755704060    -6.13e-04  2.40e-04  3.37e-03  4.31e-03  0.000   0.2
                              *** Initializing SOSCF ***
---------------------------------------S-O-S-C-F--------------------------------------
Iteration    Energy (Eh)           Delta-E    RMSDP     MaxDP     MaxGrad    Time(sec)
--------------------------------------------------------------------------------------
    7    -359.9210515803245016    -4.65e-05  7.70e-05  1.07e-03  1.82e-03    29.5
               *** Restarting incremental Fock matrix formation ***
    8    -359.9210611087898997    -9.53e-06  5.32e-05  1.13e-03  1.24e-04     0.2
    9    -359.9210599094782310     1.20e-06  2.60e-05  5.81e-04  4.04e-04    17.6
                 **** Energy Check signals convergence ****

               *****************************************************
               *                     SUCCESS                       *
               *           SCF CONVERGED AFTER   9 CYCLES          *
               *****************************************************

             **** ENERGY FILE WAS UPDATED (sp.en.tmp) ****

----------------
TOTAL SCF ENERGY
----------------

Total Energy       :       -359.92105990947823 Eh           -9793.94995 eV

Components:
Nuclear Repulsion  :        278.73455021235679 Eh            7584.75271 eV
Electronic Energy  :       -638.65561012183502 Eh          -17378.70267 eV
One Electron Energy:      -1041.52204619905388 Eh          -28341.25572 eV
Two Electron Energy:        402.86643607721879 Eh           10962.55305 eV

Virial components:
Potential Energy   :       -717.25842797575297 Eh          -19517.59408 eV
Kinetic Energy     :        357.33736806627473 Eh            9723.64413 eV
Virial Ratio       :          2.00723039926438

DFT components:
N(Alpha)           :       25.999931045407 electrons
N(Beta)            :       25.999931045407 electrons
N(Total)           :       51.999862090814 electrons
E(X)               :      -45.424136967269 Eh       
E(C)               :       -1.737578517785 Eh       
E(XC)              :      -47.161715485054 Eh       

---------------
SCF CONVERGENCE
---------------

  Last Energy change         ...   -1.1993e-06  Tolerance :   1.0000e-05
  Last MAX-Density change    ...    5.8133e-04  Tolerance :   1.0000e-03
  Last RMS-Density change    ...    2.5958e-05  Tolerance :   1.0000e-04
  Last DIIS Error            ...    1.8237e-03  Tolerance :   5.0000e-04
  Last Orbital Gradient      ...    4.0433e-04  Tolerance :   1.0000e-04
  Last Orbital Rotation      ...    4.4961e-04  Tolerance :   1.0000e-04


----------------
ORBITAL ENERGIES
----------------

  NO   OCC          E(Eh)            E(eV) 
   0   2.0000     -18.826991      -512.3085 
   1   2.0000     -18.765608      -510.6381 
   2   2.0000     -13.989521      -380.6742 
   3   2.0000     -10.037696      -273.1396 
   4   2.0000      -9.955875      -270.9131 
   5   2.0000      -9.953733      -270.8548 
   6   2.0000      -9.937215      -270.4054 
   7   2.0000      -1.034132       -28.1402 
   8   2.0000      -0.945605       -25.7312 
   9   2.0000      -0.826089       -22.4790 
  10   2.0000      -0.743162       -20.2225 
  11   2.0000      -0.671119       -18.2621 
  12   2.0000      -0.537498       -14.6261 
  13   2.0000      -0.500813       -13.6278 
  14   2.0000      -0.478719       -13.0266 
  15   2.0000      -0.451950       -12.2982 
  16   2.0000      -0.439263       -11.9530 
  17   2.0000      -0.412978       -11.2377 
  18   2.0000      -0.393387       -10.7046 
  19   2.0000      -0.366982        -9.9861 
  20   2.0000      -0.328725        -8.9451 
  21   2.0000      -0.307073        -8.3559 
  22   2.0000      -0.304991        -8.2992 
  23   2.0000      -0.301781        -8.2119 
  24   2.0000      -0.282305        -7.6819 
  25   2.0000      -0.249002        -6.7757 
  26   0.0000      -0.051810        -1.4098 
  27   0.0000      -0.001943        -0.0529 
  28   0.0000       0.007363         0.2004 
  29   0.0000       0.035035         0.9534 
  30   0.0000       0.051569         1.4033 
  31   0.0000       0.079531         2.1641 
  32   0.0000       0.091301         2.4844 
  33   0.0000       0.096549         2.6272 
  34   0.0000       0.103046         2.8040 
  35   0.0000       0.130941         3.5631 
  36   0.0000       0.183586         4.9956 
*Only the first 10 virtual orbitals were printed.

                    ********************************
                    * MULLIKEN POPULATION ANALYSIS *
                    ********************************

-----------------------
MULLIKEN ATOMIC CHARGES
-----------------------
   0 C :   -0.127483
   1 O :   -0.238022
   2 C :    0.096995
   3 O :   -0.166482
   4 C :   -0.049806
   5 C :   -0.272746
   6 N :    0.065124
   7 H :    0.135660
   8 H :    0.126820
   9 H :    0.133869
  10 H :    0.149181
  11 H :    0.146890
Sum of atomic charges:    0.0000000

--------------------------------
MULLIKEN REDUCED ORBITAL CHARGES
--------------------------------
  0 C s       :     3.131967  s :     3.131967
      pz      :     1.057943  p :     2.944165
      px      :     0.803630
      py      :     1.082593
      dz2     :     0.009151  d :     0.051350
      dxz     :     0.013683
      dyz     :     0.004946
      dx2y2   :     0.015474
      dxy     :     0.008097

  1 O s       :     3.730102  s :     3.730102
      pz      :     1.660110  p :     4.491235
      px      :     1.389761
      py      :     1.441364
      dz2     :     0.002308  d :     0.016686
      dxz     :     0.003379
      dyz     :     0.003050
      dx2y2   :     0.004983
      dxy     :     0.002965

  2 C s       :     3.043870  s :     3.043870
      pz      :     0.904231  p :     2.725666
      px      :     0.955028
      py      :     0.866407
      dz2     :     0.022098  d :     0.133469
      dxz     :     0.020717
      dyz     :     0.024615
      dx2y2   :     0.037385
      dxy     :     0.028654

  3 O s       :     3.738793  s :     3.738793
      pz      :     1.350014  p :     4.408955
      px      :     1.585821
      py      :     1.473119
      dz2     :     0.004319  d :     0.018734
      dxz     :     0.002813
      dyz     :     0.005108
      dx2y2   :     0.002874
      dxy     :     0.003620

  4 C s       :     2.870753  s :     2.870753
      pz      :     1.075136  p :     3.144753
      px      :     0.995784
      py      :     1.073833
      dz2     :     0.008333  d :     0.034299
      dxz     :     0.006229
      dyz     :     0.004796
      dx2y2   :     0.008399
      dxy     :     0.006542

  5 C s       :     3.132866  s :     3.132866
      pz      :     1.011179  p :     3.094419
      px      :     1.051268
      py      :     1.031972
      dz2     :     0.009714  d :     0.045460
      dxz     :     0.007937
      dyz     :     0.006576
      dx2y2   :     0.013073
      dxy     :     0.008160

  6 N s       :     3.538501  s :     3.538501
      pz      :     1.094890  p :     3.364603
      px      :     1.150872
      py      :     1.118840
      dz2     :     0.005603  d :     0.031773
      dxz     :     0.006235
      dyz     :     0.005229
      dx2y2   :     0.007676
      dxy     :     0.007030

  7 H s       :     0.864340  s :     0.864340

  8 H s       :     0.873180  s :     0.873180

  9 H s       :     0.866131  s :     0.866131

 10 H s       :     0.850819  s :     0.850819

 11 H s       :     0.853110  s :     0.853110


------------------------
MULLIKEN OVERLAP CHARGES
------------------------
B(  0-C ,  1-O ) :   0.5533 B(  0-C ,  2-C ) :  -0.0694 B(  0-C ,  7-H ) :   0.7422 
B(  0-C ,  8-H ) :   0.7859 B(  0-C ,  9-H ) :   0.7662 B(  1-O ,  2-C ) :   0.7115 
B(  1-O ,  3-O ) :  -0.1657 B(  1-O ,  4-C ) :  -0.2428 B(  1-O ,  7-H ) :  -0.0634 
B(  1-O ,  8-H ) :  -0.0540 B(  1-O ,  9-H ) :  -0.0522 B(  2-C ,  3-O ) :   1.4037 
B(  2-C ,  4-C ) :   0.6305 B(  3-O ,  4-C ) :  -0.1529 B(  3-O ,  7-H ) :   0.0553 
B(  4-C ,  5-C ) :   0.7027 B(  4-C ,  6-N ) :  -0.0696 B(  4-C , 10-H ) :   0.6009 
B(  4-C , 11-H ) :   0.6040 B(  5-C ,  6-N ) :   1.8897 B(  7-H ,  8-H ) :  -0.0562 
B(  8-H ,  9-H ) :  -0.0527 


                     *******************************
                     * LOEWDIN POPULATION ANALYSIS *
                     *******************************

----------------------
LOEWDIN ATOMIC CHARGES
----------------------
   0 C :   -0.204921
   1 O :   -0.064944
   2 C :    0.041899
   3 O :   -0.131249
   4 C :   -0.250232
   5 C :   -0.052531
   6 N :   -0.052741
   7 H :    0.126289
   8 H :    0.122489
   9 H :    0.127029
  10 H :    0.169711
  11 H :    0.169201

-------------------------------
LOEWDIN REDUCED ORBITAL CHARGES
-------------------------------
  0 C s       :     2.964896  s :     2.964896
      pz      :     1.109640  p :     3.126516
      px      :     0.885912
      py      :     1.130963
      dz2     :     0.020682  d :     0.113510
      dxz     :     0.030698
      dyz     :     0.010724
      dx2y2   :     0.035612
      dxy     :     0.015793

  1 O s       :     3.447930  s :     3.447930
      pz      :     1.663956  p :     4.583429
      px      :     1.423961
      py      :     1.495512
      dz2     :     0.004202  d :     0.033586
      dxz     :     0.006188
      dyz     :     0.005302
      dx2y2   :     0.010181
      dxy     :     0.007713

  2 C s       :     2.838166  s :     2.838166
      pz      :     0.926218  p :     2.817611
      px      :     0.958124
      py      :     0.933270
      dz2     :     0.043344  d :     0.302324
      dxz     :     0.048362
      dyz     :     0.059569
      dx2y2   :     0.087903
      dxy     :     0.063147

  3 O s       :     3.542824  s :     3.542824
      pz      :     1.410155  p :     4.555544
      px      :     1.610361
      py      :     1.535028
      dz2     :     0.005599  d :     0.032881
      dxz     :     0.005447
      dyz     :     0.010759
      dx2y2   :     0.004755
      dxy     :     0.006321

  4 C s       :     2.904695  s :     2.904695
      pz      :     1.096975  p :     3.257100
      px      :     1.053578
      py      :     1.106547
      dz2     :     0.021321  d :     0.088437
      dxz     :     0.017671
      dyz     :     0.010307
      dx2y2   :     0.022579
      dxy     :     0.016559

  5 C s       :     2.903424  s :     2.903424
      pz      :     0.993043  p :     3.038243
      px      :     1.031207
      py      :     1.013993
      dz2     :     0.020333  d :     0.110864
      dxz     :     0.021400
      dyz     :     0.017457
      dx2y2   :     0.027248
      dxy     :     0.024426

  6 N s       :     3.416598  s :     3.416598
      pz      :     1.151226  p :     3.580813
      px      :     1.236974
      py      :     1.192613
      dz2     :     0.008351  d :     0.055330
      dxz     :     0.011854
      dyz     :     0.009703
      dx2y2   :     0.011237
      dxy     :     0.014185

  7 H s       :     0.873711  s :     0.873711

  8 H s       :     0.877511  s :     0.877511

  9 H s       :     0.872971  s :     0.872971

 10 H s       :     0.830289  s :     0.830289

 11 H s       :     0.830799  s :     0.830799


---------------------------------
LOEWDIN BOND ORDERS (THRESH 0.050000)
---------------------------------
B(  0-C ,  1-O ) :   1.1076 B(  0-C ,  2-C ) :   0.0775 B(  0-C ,  7-H ) :   0.9372 
B(  0-C ,  8-H ) :   0.9485 B(  0-C ,  9-H ) :   0.9506 B(  1-O ,  2-C ) :   1.4069 
B(  1-O ,  3-O ) :   0.2139 B(  1-O ,  4-C ) :   0.0713 B(  2-C ,  3-O ) :   2.2564 
B(  2-C ,  4-C ) :   1.0058 B(  2-C ,  5-C ) :   0.0797 B(  3-O ,  4-C ) :   0.0949 
B(  4-C ,  5-C ) :   1.1399 B(  4-C ,  6-N ) :   0.1232 B(  4-C , 10-H ) :   0.8648 
B(  4-C , 11-H ) :   0.8683 B(  5-C ,  6-N ) :   3.1918 

------------------------------------------
LOEWDIN REDUCED ORBITAL POPULATIONS PER MO
-------------------------------------------
THRESHOLD FOR PRINTING IS 0.1%%
                      0         1         2         3         4         5   
                 -18.82699 -18.76561 -13.98952 -10.03770  -9.95587  -9.95373
                   2.00000   2.00000   2.00000   2.00000   2.00000   2.00000
                  --------  --------  --------  --------  --------  --------
 0 C  s               0.0       0.0       0.0       0.0      99.7       0.0
 1 O  s              99.9       0.0       0.0       0.0       0.0       0.0
 1 O  py              0.0       0.0       0.0       0.1       0.0       0.0
 2 C  s               0.0       0.0       0.0      99.3       0.0       0.0
 3 O  s               0.0      99.9       0.0       0.0       0.0       0.0
 3 O  pz              0.0       0.0       0.0       0.1       0.0       0.0
 3 O  py              0.0       0.0       0.0       0.1       0.0       0.0
 4 C  s               0.0       0.0       0.0       0.0       0.0      99.6
 6 N  s               0.0       0.0      99.6       0.0       0.0       0.0

                      6         7         8         9        10        11   
                  -9.93721  -1.03413  -0.94560  -0.82609  -0.74316  -0.67112
                   2.00000   2.00000   2.00000   2.00000   2.00000   2.00000
                  --------  --------  --------  --------  --------  --------
 0 C  s               0.0       4.4       2.4       0.1       4.8      26.2
 0 C  pz              0.0       0.7       0.5       0.0       0.1       0.1
 0 C  px              0.0       4.1       1.5       0.0       0.3       0.2
 0 C  py              0.0       0.7       0.0       0.0       0.0       0.3
 0 C  dxz             0.0       0.2       0.1       0.0       0.0       0.0
 0 C  dx2y2           0.0       0.2       0.1       0.0       0.0       0.0
 1 O  s               0.0      39.4      17.4       0.1       0.2       0.8
 1 O  pz              0.0       1.0       0.1       0.0       0.3       0.4
 1 O  px              0.0       0.1       0.3       0.1       5.6      13.5
 1 O  py              0.0       2.2       0.2       0.0       2.1       8.7
 1 O  dx2y2           0.0       0.0       0.0       0.0       0.0       0.2
 2 C  s               0.0      19.6       4.5       0.2       4.7       1.8
 2 C  pz              0.0       0.2       7.5       0.2       3.9       0.4
 2 C  px              0.0       3.1       0.3       1.1       8.8       1.5
 2 C  py              0.0       1.4      17.4       0.0       0.6       4.0
 2 C  dz2             0.0       0.1       0.1       0.0       0.0       0.0
 2 C  dxz             0.0       0.0       0.4       0.0       0.0       0.1
 2 C  dyz             0.0       0.6       0.4       0.0       0.0       0.1
 2 C  dx2y2           0.0       0.3       0.0       0.0       0.1       0.2
 2 C  dxy             0.0       0.1       0.9       0.0       0.0       0.1
 3 O  s               0.0      12.8      39.6       0.1       1.6       0.1
 3 O  pz              0.0       1.1       1.8       0.0       0.1       0.0
 3 O  px              0.0       0.3       0.9       0.0       0.2       0.1
 3 O  py              0.0       1.7       1.7       0.0       0.1       0.2
 4 C  s               0.0       1.1       0.2       4.4      27.6       7.7
 4 C  pz              0.0       0.3       0.2       0.6       0.2       0.0
 4 C  px              0.1       1.5       0.2       1.0       0.2       2.1
 4 C  py              0.0       0.1       0.1       0.9       0.3       0.1
 5 C  s              99.3       0.1       0.0      30.4       0.9       1.3
 5 C  pz              0.0       0.0       0.0       2.1       3.9       1.4
 5 C  px              0.0       0.2       0.0       3.8       9.0       1.8
 5 C  py              0.0       0.0       0.0       3.0       5.6       2.3
 5 C  dxz             0.0       0.0       0.0       0.5       0.0       0.0
 5 C  dyz             0.0       0.0       0.0       0.4       0.0       0.0
 5 C  dxy             0.0       0.0       0.0       0.7       0.0       0.0
 6 N  s               0.1       0.0       0.0      38.1       4.3       0.6
 6 N  pz              0.1       0.0       0.0       2.3       0.2       0.0
 6 N  px              0.2       0.0       0.0       4.4       0.4       0.1
 6 N  py              0.1       0.0       0.0       3.3       0.3       0.1
 6 N  dxz             0.0       0.0       0.0       0.1       0.0       0.0
 6 N  dyz             0.0       0.0       0.0       0.1       0.0       0.0
 6 N  dxy             0.1       0.0       0.0       0.2       0.0       0.0
 7 H  s               0.0       0.8       0.1       0.0       0.8       5.4
 8 H  s               0.0       0.5       0.3       0.0       0.9       6.3
 9 H  s               0.0       0.5       0.3       0.0       0.9       7.2
10 H  s               0.0       0.2       0.0       0.7       5.6       1.6
11 H  s               0.0       0.2       0.1       0.7       4.9       2.6

                     12        13        14        15        16        17   
                  -0.53750  -0.50081  -0.47872  -0.45195  -0.43926  -0.41298
                   2.00000   2.00000   2.00000   2.00000   2.00000   2.00000
                  --------  --------  --------  --------  --------  --------
 0 C  s               9.8       0.1       0.0       0.2       0.0       0.1
 0 C  pz              4.5       5.0       0.1       1.5      18.1       0.1
 0 C  px             14.0       0.5       1.4       2.2       6.3       3.4
 0 C  py              0.0       1.4       6.3       5.2       4.5       1.0
 0 C  dxz             0.5       0.1       0.0       0.0       0.0       0.0
 0 C  dyz             0.0       0.0       0.0       0.0       0.2       0.0
 0 C  dx2y2           0.4       0.0       0.0       0.0       0.0       0.0
 1 O  s               5.3       1.1       0.4       0.9       0.0       1.3
 1 O  pz              0.2       6.1       0.8       9.7      12.2       2.7
 1 O  px              5.3       1.5       2.3       4.2       5.5       7.3
 1 O  py             10.5       4.5      10.1       2.6       3.8       0.3
 2 C  s               5.6       0.7       1.0       0.9       0.2       1.3
 2 C  pz              2.2       6.7       3.1       1.4       1.7       1.1
 2 C  px              0.7       4.2      14.9       0.2       0.3       0.1
 2 C  py              0.9       7.7       0.5       0.3       1.3       3.0
 2 C  dxz             0.0       0.0       0.0       0.0       0.2       0.1
 2 C  dyz             0.0       0.0       0.0       0.3       0.1       0.1
 2 C  dx2y2           0.0       0.0       0.0       0.1       0.1       0.2
 2 C  dxy             0.0       0.0       0.0       0.4       0.0       0.1
 3 O  s               2.0       0.2       0.3       8.1       0.4       7.1
 3 O  pz              0.7       2.2       0.3       3.3       3.1       9.0
 3 O  px              0.1       2.3       6.8       1.7       0.0       2.9
 3 O  py              0.7       2.1       0.0       6.7       0.0      10.5
 3 O  dyz             0.0       0.0       0.0       0.1       0.0       0.1
 4 C  s               0.3       0.5       1.2       0.2       0.5       0.0
 4 C  pz              0.1       1.9      23.7       4.9      10.8       4.0
 4 C  px             10.4      16.9       2.1       0.5       0.5       2.9
 4 C  py              0.0      10.0       1.8      20.1       1.3      15.1
 4 C  dz2             0.0       0.0       0.0       0.1       0.1       0.2
 4 C  dxz             0.1       0.3       0.1       0.0       0.0       0.0
 4 C  dyz             0.0       0.1       0.2       0.0       0.1       0.0
 4 C  dxy             0.1       0.2       0.0       0.0       0.1       0.2
 5 C  s               1.4       5.8       0.3       0.2       1.9       0.0
 5 C  pz              1.3       2.8       1.9       2.0       0.1       1.5
 5 C  px              0.4       3.8       3.0       0.8       1.6       1.0
 5 C  py              1.6       2.6       0.1       2.2       1.3       3.8
 6 N  s               0.3       1.5       0.2       0.1       0.5       0.0
 6 N  pz              0.1       0.3       0.2       0.3       0.0       0.4
 6 N  px              0.1       0.4       0.4       0.1       0.3       0.3
 6 N  py              0.1       0.3       0.0       0.3       0.3       1.0
 7 H  s               8.1       2.9       0.3       0.7       3.3       0.2
 8 H  s               6.9       0.0       1.0       0.8       9.9       0.6
 9 H  s               4.2       0.1       1.9       2.7       2.1       0.8
10 H  s               0.1       0.8      10.2       4.4       5.7       5.1
11 H  s               0.7       2.2       2.4       9.3       1.1      10.7

                     18        19        20        21        22        23   
                  -0.39339  -0.36698  -0.32872  -0.30707  -0.30499  -0.30178
                   2.00000   2.00000   2.00000   2.00000   2.00000   2.00000
                  --------  --------  --------  --------  --------  --------
 0 C  s               0.1       0.0       0.1       0.1       0.0       0.0
 0 C  pz              1.2      11.8       7.8       0.8       0.0       0.1
 0 C  px              1.0       5.2       1.9       0.4       0.0       0.3
 0 C  py             26.9       1.1       7.2       0.2       0.0       0.0
 0 C  dz2             0.2       0.0       0.5       0.1       0.0       0.0
 0 C  dxz             0.0       0.2       0.0       0.0       0.0       0.0
 0 C  dyz             0.0       0.0       0.2       0.0       0.0       0.0
 0 C  dx2y2           0.3       0.1       0.1       0.0       0.0       0.0
 0 C  dxy             0.0       0.0       0.2       0.0       0.0       0.0
 1 O  s               0.1       0.0       4.6       0.5       0.0       0.1
 1 O  pz              0.9       0.7      13.3       5.2       0.0       0.7
 1 O  px              3.1       1.3       8.1       1.1       0.0       1.0
 1 O  py              0.1       0.6      10.3       2.4       0.0       0.2
 1 O  dx2y2           0.1       0.1       0.0       0.0       0.0       0.0
 1 O  dxy             0.0       0.0       0.1       0.0       0.0       0.0
 2 C  s               0.7       0.0       0.2       0.6       0.0       0.1
 2 C  pz              1.2      14.9       0.8       0.6       0.0       0.0
 2 C  px              7.1       2.6       0.1       1.9       0.0       0.3
 2 C  py              0.3       4.7       3.1       0.8       0.0       0.0
 2 C  dz2             0.0       0.4       0.0       0.0       0.0       0.2
 2 C  dyz             0.1       0.0       0.4       0.0       0.0       0.0
 2 C  dx2y2           0.2       0.0       0.5       0.0       0.0       0.1
 2 C  dxy             0.1       0.1       0.1       0.2       0.0       0.0
 3 O  s               3.6       0.1       0.9       0.2       0.0       0.0
 3 O  pz             10.3      14.3       3.0       1.1       0.1       1.5
 3 O  px              0.4       7.2       6.2       2.1       0.0       0.4
 3 O  py              8.5       9.7       0.6       4.2       0.1       0.6
 3 O  dz2             0.0       0.2       0.0       0.0       0.0       0.0
 3 O  dyz             0.1       0.0       0.0       0.0       0.0       0.0
 4 C  s               0.2       0.1       0.5       0.1       0.2       0.0
 4 C  pz              0.5       2.9       0.0       0.5       1.0       0.8
 4 C  px              6.6       0.1       1.2       0.7       0.5       0.7
 4 C  py              0.8       0.7       0.0       0.1       0.9       2.7
 4 C  dz2             0.0       0.1       0.0       0.2       0.0       0.3
 4 C  dxz             0.0       0.1       0.0       0.1       0.0       0.0
 4 C  dx2y2           0.0       0.1       0.0       0.2       0.0       0.4
 4 C  dxy             0.0       0.1       0.0       0.0       0.0       0.0
 5 C  s               0.2       1.1       0.1       0.1       1.9       0.0
 5 C  pz              1.1       0.0       3.3      17.1       3.9       6.4
 5 C  px              1.2       0.4       2.7      12.3       3.4       5.3
 5 C  py              1.2       0.4       0.2       0.2       3.3      21.8
 5 C  dz2             0.0       0.0       0.0       0.4       0.0       0.2
 5 C  dxz             0.0       0.0       0.0       0.1       0.0       0.3
 5 C  dyz             0.0       0.0       0.0       0.3       0.0       0.0
 5 C  dx2y2           0.0       0.0       0.0       0.2       0.0       0.8
 5 C  dxy             0.0       0.0       0.0       0.1       0.1       0.1
 6 N  s               0.1       0.4       0.3       1.2      23.5       0.0
 6 N  pz              0.4       0.0       3.8      31.0       6.2       7.7
 6 N  px              0.4       0.3       1.3       7.4      37.9       6.0
 6 N  py              0.4       0.3       0.6       2.0      15.4      33.1
 6 N  dz2             0.0       0.0       0.0       0.2       0.1       0.1
 6 N  dxz             0.0       0.0       0.0       0.1       0.2       0.1
 6 N  dyz             0.0       0.0       0.0       0.2       0.1       0.0
 6 N  dx2y2           0.0       0.0       0.0       0.1       0.0       0.3
 6 N  dxy             0.0       0.0       0.0       0.0       0.3       0.1
 7 H  s               4.8       3.3       9.9       1.0       0.0       0.1
 8 H  s               0.1       9.8       0.1       0.0       0.0       0.3
 9 H  s              14.5       1.1       5.3       0.2       0.0       0.0
10 H  s               0.0       2.1       0.1       1.0       0.3       2.5
11 H  s               0.7       0.7       0.0       0.4       0.2       4.4

                     24        25        26        27        28        29   
                  -0.28231  -0.24900  -0.05181  -0.00194   0.00736   0.03504
                   2.00000   2.00000   0.00000   0.00000   0.00000   0.00000
                  --------  --------  --------  --------  --------  --------
 0 C  s               0.0       0.1       0.0       0.1       0.3       2.8
 0 C  pz              2.6       0.6       0.0       0.0       0.2       1.5
 0 C  px              1.2       0.3       0.1       0.0       0.0      10.0
 0 C  py              1.4       0.3       0.0       0.0       0.0       0.5
 0 C  dz2             0.2       0.0       0.1       0.0       0.1       0.1
 0 C  dxz             0.4       0.0       0.1       0.0       0.0       0.4
 0 C  dx2y2           0.5       0.0       0.1       0.0       0.0       0.4
 0 C  dxy             0.1       0.1       0.1       0.0       0.0       0.3
 1 O  s               0.0       0.3       0.0       0.1       0.0       4.0
 1 O  pz             27.6       1.0       5.1       0.1       0.9       0.4
 1 O  px             10.6       0.1       2.1       0.1       0.2       0.4
 1 O  py              9.1       6.9       2.2       0.0       0.1       0.0
 1 O  dyz             0.0       0.0       0.1       0.0       0.0       0.0
 1 O  dx2y2           0.0       0.0       0.1       0.0       0.1       0.0
 1 O  dxy             0.0       0.0       0.0       0.0       0.1       0.0
 2 C  s               0.0       0.3       0.2       0.2       2.7       4.4
 2 C  pz              0.1       0.2      25.6       0.0       1.9       0.4
 2 C  px              0.0       0.6       5.8       0.1       9.2       1.2
 2 C  py              0.1       0.5       8.0       0.1       1.2       0.2
 2 C  dz2             1.0       0.1       0.8       0.0       0.0       0.2
 2 C  dxz             0.1       1.4       0.1       0.1       0.0       0.5
 2 C  dyz             0.4       0.5       0.0       0.0       0.0       0.4
 2 C  dx2y2           0.5       2.1       0.0       0.0       0.0       0.0
 2 C  dxy             0.4       0.6       0.2       0.0       0.0       0.2
 3 O  s               0.0       0.0       0.0       0.0       0.1       1.0
 3 O  pz             17.5       0.9      14.8       0.0       1.7       0.0
 3 O  px              3.9      44.9       4.2       0.1       2.1       0.0
 3 O  py              7.1      22.0       5.2       0.1       0.4       0.2
 3 O  dz2             0.0       0.0       0.4       0.0       0.1       0.0
 4 C  s               0.0       0.8       0.1       0.0       1.2      13.3
 4 C  pz              0.2       2.1       0.4       0.6       0.6       0.7
 4 C  px              0.0       4.5       0.1       0.2       3.5       0.5
 4 C  py              0.1       0.1       0.2       1.2       0.1       0.2
 4 C  dz2             0.0       0.1       0.9       1.4       0.2       0.1
 4 C  dxz             0.0       0.0       0.2       0.2       1.5       0.1
 4 C  dx2y2           0.0       0.0       0.7       1.3       1.0       0.1
 4 C  dxy             0.0       0.0       0.5       0.0       0.1       0.0
 5 C  s               0.0       0.0       1.3       0.0       0.9       4.1
 5 C  pz              0.3       0.3       3.1      10.3      12.6       1.3
 5 C  px              0.1       0.7       1.2       3.1      16.0       1.7
 5 C  py              0.9       0.0       1.1      22.3       1.0       0.3
 5 C  dz2             0.0       0.2       0.2       0.5       0.7       0.2
 5 C  dxz             0.0       0.0       0.0       1.0       0.1       0.5
 5 C  dyz             0.0       0.1       0.1       0.0       1.4       0.2
 5 C  dx2y2           0.0       0.1       0.3       1.4       0.6       0.0
 5 C  dxy             0.0       0.0       0.1       0.5       0.0       0.9
 6 N  s               0.0       0.0       0.1       0.0       0.1       0.7
 6 N  pz              1.0       3.5       3.6      10.3      12.9       1.9
 6 N  px              0.4       1.6       3.4       3.1      14.5       0.5
 6 N  py              1.8       0.2       0.6      22.7       1.1       0.2
 6 N  dz2             0.0       0.0       0.0       0.2       0.3       0.0
 6 N  dxz             0.0       0.0       0.0       0.3       0.0       0.0
 6 N  dyz             0.0       0.0       0.0       0.0       0.2       0.0
 6 N  dx2y2           0.0       0.0       0.0       0.4       0.3       0.0
 6 N  dxy             0.0       0.0       0.0       0.1       0.1       0.0
 7 H  s               1.7       0.3       0.1       0.0       0.1       3.5
 8 H  s               6.4       0.0       1.0       0.2       0.9       6.9
 9 H  s               1.7       0.1       0.2       0.0       0.2       3.9
10 H  s               0.1       1.1       3.5       8.1       3.6      15.1
11 H  s               0.1       0.2       1.0       9.1       2.5      13.5

                     30        31        32        33        34        35   
                   0.05157   0.07953   0.09130   0.09655   0.10305   0.13094
                   0.00000   0.00000   0.00000   0.00000   0.00000   0.00000
                  --------  --------  --------  --------  --------  --------
 0 C  s              23.3       2.4       0.5       1.8       0.0       0.1
 0 C  pz              0.2       5.0       0.5       3.5      15.6       5.8
 0 C  px              1.3      23.8       1.0       8.7       2.4       1.1
 0 C  py              0.3       2.0      22.8       3.0       0.0       0.3
 0 C  dz2             0.0       0.5       0.6       0.1       0.2       0.1
 0 C  dxz             0.0       1.7       0.1       1.0       0.0       0.1
 0 C  dyz             0.0       0.2       0.0       0.1       0.7       0.3
 0 C  dx2y2           0.0       1.7       1.3       0.0       0.2       0.1
 0 C  dxy             0.0       0.9       0.0       0.2       0.0       0.0
 1 O  s               0.8       8.0       0.1       1.0       0.5       0.1
 1 O  pz              0.1       2.7       0.0       0.8       0.1       1.2
 1 O  px              0.9       5.2       2.1       1.0       0.5       1.8
 1 O  py              0.1       0.0       0.1       0.4       0.2       0.3
 1 O  dz2             0.0       0.1       0.0       0.0       0.1       0.1
 1 O  dxz             0.1       0.2       0.2       0.1       0.1       0.1
 1 O  dx2y2           0.1       0.1       0.1       0.0       0.0       0.0
 1 O  dxy             0.1       0.3       0.3       0.0       0.0       0.0
 2 C  s               0.1       0.5       1.4       0.2       2.8       7.7
 2 C  pz              0.4       0.3       0.2       0.1       0.9       1.1
 2 C  px              0.0       0.1       0.2       0.0       0.2       0.6
 2 C  py              0.2       1.9       0.4       0.0       0.1       0.4
 2 C  dz2             0.1       0.4       0.1       0.0       0.0       0.4
 2 C  dxz             0.0       0.0       0.1       0.2       0.5       0.3
 2 C  dyz             0.1       0.1       0.2       0.0       0.7       1.3
 2 C  dx2y2           0.0       0.1       0.0       0.0       0.2       0.0
 2 C  dxy             0.2       1.0       0.1       0.1       0.0       0.0
 3 O  s               0.1       0.0       0.2       0.0       0.6       0.2
 3 O  pz              0.1       0.2       0.2       0.1       0.0       0.1
 3 O  px              0.2       1.2       0.0       0.1       0.1       0.8
 3 O  py              0.3       0.3       0.1       0.1       0.6       0.3
 4 C  s               4.8       1.6       0.1       0.2       0.1       1.1
 4 C  pz              0.5       6.6       2.4       2.9       0.5      11.8
 4 C  px              0.3       1.2       0.0       2.3       0.9       1.1
 4 C  py              0.8       0.8       1.3       8.2       8.2       4.8
 4 C  dxz             0.0       0.0       0.0       0.1       0.0       0.0
 4 C  dyz             0.0       0.2       0.1       0.0       0.3       1.5
 4 C  dx2y2           0.0       0.0       0.0       0.0       0.1       0.4
 4 C  dxy             0.0       0.5       0.0       0.0       0.4       0.8
 5 C  s               0.6       0.3       0.2       0.2       2.4      19.1
 5 C  pz              0.0       3.3       0.5       0.9       0.1       2.0
 5 C  px              0.7       0.7       0.1       0.8       1.5       0.6
 5 C  py              0.2       1.0       0.2       2.5       1.4       0.8
 5 C  dz2             0.0       0.1       0.0       0.0       0.0       0.3
 5 C  dxz             0.1       0.0       0.0       0.0       0.4       2.5
 5 C  dyz             0.1       0.1       0.0       0.0       0.1       0.8
 5 C  dxy             0.2       0.1       0.1       0.1       0.2       3.1
 6 N  s               0.2       0.1       0.0       0.1       0.3       3.5
 6 N  pz              0.0       2.9       0.3       0.5       0.1       0.2
 6 N  px              0.1       0.1       0.0       0.4       1.1       1.3
 6 N  py              0.5       0.5       0.2       2.2       0.8       0.5
 7 H  s               9.7       0.3      15.5       4.3      19.3      11.1
 8 H  s              20.4       0.2       5.8      11.7      20.7       0.5
 9 H  s              18.3       0.1      33.9      11.3       0.0       0.3
10 H  s               4.4      18.0       3.5       8.5       1.6       5.5
11 H  s               8.9       0.2       2.8      19.9      11.7       1.6

                     36        37        38        39        40        41   
                   0.18359   0.22015   0.25593   0.27094   0.36878   0.39058
                   0.00000   0.00000   0.00000   0.00000   0.00000   0.00000
                  --------  --------  --------  --------  --------  --------
 0 C  s               0.0       0.3       0.6       0.3       2.8       0.7
 0 C  pz              1.1       0.5       0.7       0.0       3.3      22.7
 0 C  px              2.9       1.6       1.6       1.2      30.2       0.6
 0 C  py              0.1       0.2       2.6       0.6       6.3       3.2
 0 C  dz2             0.1       0.0       0.2       0.1       0.5       3.0
 0 C  dxz             0.6       0.0       0.0       0.5       2.3       0.1
 0 C  dyz             0.0       0.1       0.0       0.1       0.9       3.0
 0 C  dx2y2           0.2       0.2       0.3       0.4       1.6       0.0
 0 C  dxy             0.0       0.0       0.1       0.0       0.5       0.0
 1 O  s               0.4       0.1       0.2       5.7       0.2       0.1
 1 O  pz              0.0       0.6       0.0       0.2       0.6       0.2
 1 O  px              2.2       0.4       0.2       5.0       1.6       0.9
 1 O  py              5.3       0.5       0.8       7.1       1.3       1.2
 1 O  dz2             0.0       0.1       0.0       0.1       0.3       0.3
 1 O  dxz             0.2       0.1       0.0       0.1       0.2       0.3
 1 O  dyz             0.0       0.2       0.1       0.3       0.0       0.5
 1 O  dx2y2           0.3       0.1       0.2       0.6       0.5       0.8
 1 O  dxy             0.0       0.0       0.3       0.3       0.1       0.5
 2 C  s              19.8       3.7       6.1       0.7       0.3      17.1
 2 C  pz              1.7       8.3       6.0       3.6       6.3       1.9
 2 C  px              2.4       4.2       7.8      10.5       5.7       2.0
 2 C  py              0.0       5.1       7.8      22.7       4.5       5.9
 2 C  dz2             0.5       0.0       0.2       0.6       0.0       0.2
 2 C  dxz             2.6       0.0       0.5       0.6       0.1       0.0
 2 C  dyz             2.1       1.6       0.9       0.2       0.1       0.1
 2 C  dx2y2           0.2       0.1       1.1       1.4       0.2       0.1
 2 C  dxy             0.8       0.1       0.7       2.0       0.3       0.4
 3 O  s               1.2       1.7       7.3       1.3       0.1       0.0
 3 O  pz              1.7       0.0       0.5       0.1       0.3       0.4
 3 O  px              0.2       0.1       0.0       4.4       0.6       0.5
 3 O  py              0.2       1.1       0.5       3.0       0.2       0.1
 3 O  dxz             0.0       0.0       0.0       0.3       0.0       0.0
 3 O  dyz             0.0       0.0       0.1       0.2       0.0       0.3
 3 O  dx2y2           0.0       0.2       0.0       0.6       0.0       0.0
 3 O  dxy             0.1       0.0       0.0       0.0       0.0       0.0
 4 C  s               1.1       1.0       5.4       1.1       2.2       0.2
 4 C  pz              1.5       1.4      13.9       1.4       2.2       0.2
 4 C  px             18.4      24.1       0.0       1.8       1.4       1.3
 4 C  py              2.3       5.5       4.9       1.9       1.9       0.6
 4 C  dz2             0.0       0.0       0.7       0.5       0.1       0.3
 4 C  dxz             2.7       2.4       0.1       1.2       0.0       0.1
 4 C  dyz             0.1       0.6       4.7       0.0       0.0       0.0
 4 C  dx2y2           1.1       0.2       0.9       0.5       0.0       0.1
 4 C  dxy             0.6       2.8       0.0       2.2       0.0       0.5
 5 C  s               7.1      13.4       8.4       1.1       0.5       1.1
 5 C  pz              1.0       4.8       0.4       0.2       0.7       0.4
 5 C  px              3.3       3.1       2.4       1.5       0.4       3.8
 5 C  py              1.5       3.1       1.0       0.8       0.1       2.2
 5 C  dz2             0.0       0.0       0.0       0.2       0.0       0.1
 5 C  dxz             0.6       0.1       0.2       0.0       0.0       0.1
 5 C  dyz             1.7       0.0       0.0       0.0       0.2       0.2
 5 C  dx2y2           0.1       0.0       0.0       0.0       0.1       0.1
 5 C  dxy             1.4       0.2       0.3       0.0       0.4       0.1
 6 N  s               2.4       2.8       0.6       0.2       0.1       0.0
 6 N  pz              1.0       0.4       0.1       0.1       0.1       0.1
 6 N  px              0.5       0.6       0.3       0.3       0.1       0.2
 6 N  py              0.8       0.1       0.0       0.1       0.1       0.2
 6 N  dyz             0.1       0.1       0.0       0.0       0.0       0.0
 6 N  dx2y2           0.1       0.1       0.0       0.1       0.0       0.1
 7 H  s               1.9       0.2       0.1       0.2       0.1      15.6
 8 H  s               0.4       0.1       0.3       0.3      13.5       0.5
 9 H  s               0.5       0.2       1.4       1.3       2.9       2.4
10 H  s               0.4       0.2       6.0       1.4       0.0       1.5
11 H  s               0.4       1.4       0.0       7.0       0.7       1.0

                     42        43        44        45        46        47   
                   0.40576   0.44170   0.46716   0.48513   0.48970   0.53648
                   0.00000   0.00000   0.00000   0.00000   0.00000   0.00000
                  --------  --------  --------  --------  --------  --------
 0 C  s               4.4       0.3       0.6       1.3       0.3       1.7
 0 C  pz             14.9       8.7       0.5       0.3       0.6       0.2
 0 C  px             13.0       0.9       3.7       3.1       5.2       1.5
 0 C  py              5.3      11.1       0.2       3.9       3.7       8.5
 0 C  dz2             0.0       1.6       0.0       0.5       0.3       0.2
 0 C  dxz             0.1       0.1       0.2       0.0       0.5       0.0
 0 C  dyz             0.4       1.4       0.2       0.0       0.3       0.1
 0 C  dx2y2           1.5       0.5       0.1       0.6       1.2       0.3
 0 C  dxy             0.2       1.2       0.1       0.0       0.1       1.1
 1 O  s               0.7       0.1       0.1       0.1       0.1       0.5
 1 O  pz              4.8       2.3       0.0       0.8       2.2       0.0
 1 O  px              0.2       0.3       2.4       0.8       0.3       2.0
 1 O  py              1.1       3.3       0.1       0.4       0.4       1.0
 1 O  dz2             0.3       0.0       0.0       0.0       0.1       0.1
 1 O  dxz             0.6       0.0       0.0       0.0       0.0       0.0
 1 O  dyz             0.0       0.2       0.0       0.0       0.2       0.1
 1 O  dx2y2           0.0       0.4       0.0       0.0       0.0       0.2
 1 O  dxy             1.1       0.0       0.0       0.1       0.0       0.2
 2 C  s               4.4       5.7       4.1       1.3       1.2      12.2
 2 C  pz              5.5       0.6       0.0       3.0      22.8       1.9
 2 C  px              6.3       1.3       1.4       0.9       6.7       1.0
 2 C  py              3.5       2.6       1.3       7.3       0.7       3.0
 2 C  dz2             0.2       0.0       0.0       0.0       0.3       0.0
 2 C  dxz             0.2       0.4       0.2       0.0       0.5       0.0
 2 C  dyz             0.0       0.2       0.1       0.1       0.0       0.1
 2 C  dx2y2           0.0       0.6       0.0       0.0       0.3       0.1
 2 C  dxy             0.1       0.3       0.2       0.0       0.0       0.0
 3 O  s               0.4       0.4       0.8       0.3       0.1       0.3
 3 O  pz              0.0       0.1       0.6       0.1       0.4       0.3
 3 O  px              1.6       1.3       0.4       0.2       0.6       0.2
 3 O  py              0.0       1.5       0.0       1.3       0.2       0.0
 3 O  dxz             0.0       0.0       0.2       0.0       0.0       0.1
 3 O  dyz             0.0       0.2       0.1       0.0       0.0       0.0
 3 O  dx2y2           0.0       0.1       0.0       0.0       0.0       0.0
 4 C  s               2.3       0.5       3.7       4.7       1.1       0.6
 4 C  pz              2.0       0.9       5.6       3.1       7.1       0.0
 4 C  px              5.0       9.4       0.8       2.2       5.8      17.1
 4 C  py              1.1       0.6       2.8       1.7       0.9       1.4
 4 C  dz2             0.1       0.1       0.1       0.0       0.0       0.0
 4 C  dxz             0.2       0.1       0.0       0.1       0.4       0.0
 4 C  dyz             0.4       0.2       0.5       0.1       0.7       0.0
 4 C  dx2y2           0.2       0.3       0.2       0.0       0.0       0.0
 4 C  dxy             0.1       0.1       0.0       0.3       0.2       0.1
 5 C  s               1.1       0.9       3.5      10.8       0.0       3.2
 5 C  pz              3.0       7.6      22.5      15.6       0.0      14.4
 5 C  px              0.3      13.5       3.8       4.8       9.9       1.0
 5 C  py              1.1       4.3      25.0       8.5      14.0       6.7
 5 C  dz2             0.0       0.0       0.2       0.0       0.0       0.0
 5 C  dxz             0.0       0.1       0.0       0.7       0.0       0.5
 5 C  dyz             0.2       0.0       0.5       0.6       0.0       0.0
 5 C  dx2y2           0.0       0.0       0.0       0.0       0.2       0.1
 5 C  dxy             0.0       0.1       0.7       0.9       0.1       0.4
 6 N  s               0.1       0.0       0.2       0.9       0.0       5.6
 6 N  pz              0.1       0.6       2.1       1.2       0.1       2.0
 6 N  px              0.0       0.7       0.5       1.5       1.4       0.3
 6 N  py              0.1       0.3       1.4       1.4       1.4       1.0
 6 N  dz2             0.0       0.1       0.2       0.1       0.0       0.1
 6 N  dxz             0.1       0.0       0.0       0.5       0.0       0.1
 6 N  dyz             0.0       0.0       0.1       0.4       0.0       0.1
 6 N  dx2y2           0.0       0.3       0.1       0.0       0.1       0.0
 6 N  dxy             0.0       0.1       0.4       0.1       0.0       0.4
 7 H  s               2.1       3.5       0.1       0.1       0.2       0.7
 8 H  s               1.9       2.4       1.8       0.0       2.6       3.1
 9 H  s               4.1       4.2       0.0       4.3       2.9       3.4
10 H  s               3.4       0.0       0.8       4.2       0.3       0.2
11 H  s               0.2       1.3       4.7       4.5       0.8       0.2

                     48        49        50        51        52        53   
                   0.56965   0.57913   0.59666   0.60579   0.60949   0.62186
                   0.00000   0.00000   0.00000   0.00000   0.00000   0.00000
                  --------  --------  --------  --------  --------  --------
 0 C  s               0.6       0.9       0.5      30.9      19.8       0.5
 0 C  pz              0.4       1.3       0.1       7.8       6.2      28.7
 0 C  px              0.4       1.5       0.4       1.2      23.4       0.2
 0 C  py              8.1       1.1       0.1       2.5       0.1       4.5
 0 C  dz2             0.3       0.3       0.0       0.0       0.0       1.2
 0 C  dxz             0.0       0.0       0.0       0.0       1.1       0.3
 0 C  dyz             0.1       0.0       0.1       0.1       0.1       0.6
 0 C  dx2y2           0.6       0.1       0.0       0.3       0.1       0.1
 0 C  dxy             1.2       0.2       0.0       0.1       0.2       0.1
 1 O  s               0.2       0.5       0.4       0.5       0.4       0.2
 1 O  pz              0.3       0.1       0.3       0.0       0.0       0.1
 1 O  px              1.0       1.9       0.2       0.4       0.2       0.6
 1 O  py              0.4       0.6       0.4       0.2       0.0       0.1
 1 O  dz2             0.3       0.0       0.0       0.0       0.0       0.0
 1 O  dxy             0.3       0.1       0.1       0.0       0.0       0.0
 2 C  s               5.8       2.0       2.5       1.6       0.2       0.0
 2 C  pz              2.9      22.8       0.7       3.1       0.9       0.4
 2 C  px              0.3       0.9       0.8       1.3       0.2       1.1
 2 C  py             25.6       5.7       2.1       2.3       0.5       1.4
 2 C  dz2             0.0       0.3       0.0       0.0       0.0       0.0
 2 C  dxz             0.2       0.7       0.0       0.2       0.1       0.2
 2 C  dyz             1.6       0.8       0.1       0.1       0.0       0.2
 2 C  dx2y2           0.0       0.5       0.2       0.0       0.0       0.0
 2 C  dxy             0.8       0.8       0.3       0.1       0.1       0.5
 3 O  s               0.7       0.0       0.2       1.4       0.2       0.0
 3 O  pz              1.7       4.9       0.3       1.8       0.2       1.2
 3 O  px              1.0       0.5       0.1       0.7       0.1       1.2
 3 O  py              5.1       1.9       0.7       1.1       0.1       0.5
 3 O  dxz             0.7       0.5       0.1       0.4       0.0       0.1
 3 O  dyz             1.4       1.8       0.5       0.7       0.1       0.2
 3 O  dx2y2           0.2       0.2       0.0       0.0       0.0       0.0
 3 O  dxy             0.6       0.6       0.1       0.5       0.0       0.1
 4 C  s               0.0       0.2      21.3       0.0       0.7       0.0
 4 C  pz              0.1       6.4      21.7       0.7       0.9       6.0
 4 C  px              7.9       4.4       0.0       3.4       1.3       0.6
 4 C  py              2.3       0.8      11.4       6.0       4.6       7.6
 4 C  dz2             0.0       3.0       0.3       0.9       0.4       0.3
 4 C  dxz             0.2       0.0       0.0       0.1       0.1       0.0
 4 C  dyz             0.1       0.2       0.0       0.1       0.0       0.0
 4 C  dx2y2           0.1       0.3       0.8       0.6       0.2       0.2
[...]
 4 C  pz              0.0       0.1       0.1       0.4       0.0       0.1
 4 C  px              0.0       0.3       0.0       1.2       0.0       0.0
 4 C  py              0.0       0.1       0.0       0.7       0.1       0.1
 4 C  dz2             0.1       0.0       0.9       0.4       1.5       3.0
 4 C  dxz             0.0       0.1       0.2       4.2       1.3       0.4
 4 C  dyz             0.0       0.2       0.1       1.9       0.1       1.7
 4 C  dx2y2           0.0       0.0       0.1       0.0       2.5       3.1
 4 C  dxy             0.0       0.2       1.5       3.3       0.8       0.9
 5 C  s               0.0       0.2       0.0       0.9       0.0       0.0
 5 C  pz              0.0       0.0       0.1       1.2       0.3       0.5
 5 C  px              0.0       0.5       0.0       1.6       0.1       0.5
 5 C  py              0.0       0.1       0.0       1.4       1.0       0.0
 5 C  dz2             0.0       0.2       0.6       1.3       5.6      10.7
 5 C  dxz             0.1       1.5       0.0       6.1       8.6       0.8
 5 C  dyz             0.1       2.8       0.0       3.9       0.1       8.2
 5 C  dx2y2           0.0       0.2       0.0       0.4      14.8       9.5
 5 C  dxy             0.1       1.1       1.1      10.9       3.6       1.9
 6 N  s               0.1       1.2       0.2       8.7       0.0       0.0
 6 N  pz              0.0       0.4       0.1       1.1       0.5       0.7
 6 N  px              0.0       0.3       0.1       2.4       0.2       0.7
 6 N  py              0.0       0.3       0.1       1.7       1.0       0.1
 6 N  dz2             0.1       0.9       1.7       2.0       9.8      15.4
 6 N  dxz             0.1       2.3       0.1       7.7      13.7       1.1
 6 N  dyz             0.1       4.2       0.0       4.9       0.3      11.4
 6 N  dx2y2           0.0       1.0       0.0       0.7      23.5      13.7
 6 N  dxy             0.0       0.6       1.1      15.1       5.7       2.8
 8 H  s               0.1       0.0       0.0       0.0       0.0       0.0
11 H  s               0.0       0.0       0.1       0.0       0.1       0.0

                    102       103       104       105       106       107   
                   3.04733   3.11091   3.28362   3.39496   3.46813   3.54727
                   0.00000   0.00000   0.00000   0.00000   0.00000   0.00000
                  --------  --------  --------  --------  --------  --------
 0 C  s               0.4       0.0       1.1       0.0       0.3       0.0
 0 C  pz              0.1       0.0       0.4       0.0       0.1       0.0
 0 C  px              0.5       0.0       1.4       0.0       0.3       0.0
 0 C  dz2             0.0       0.4       0.2       0.0       0.2       0.0
 0 C  dxz             1.8       0.1       2.6       0.0       0.0       0.4
 0 C  dyz             0.0       0.0       0.2       0.0       0.2       0.0
 0 C  dx2y2           0.8       0.2       2.5       0.0       0.2       0.1
 0 C  dxy             0.0       0.1       0.3       0.0       0.6       0.1
 1 O  s               7.1       0.1       0.1       0.1       0.5       0.6
 1 O  pz              0.3       0.0       0.0       0.0       0.0       0.1
 1 O  px              0.1       0.0       1.1       0.0       1.7       0.3
 1 O  py              0.8       0.0       1.3       0.1       1.7       0.2
 1 O  dz2            10.8       0.0       0.9       0.3       2.7       3.3
 1 O  dxz             3.9       4.8       9.2       0.2       5.7       0.1
 1 O  dyz             6.5       3.9      12.3       0.2       2.9       0.3
 1 O  dx2y2           0.0       5.3      27.0       0.7      11.9       0.0
 1 O  dxy            23.9       0.1       4.3       0.6       8.7      11.7
 2 C  s               1.0       0.0       3.2       0.2       0.1       7.1
 2 C  pz              0.4       0.2       0.2       0.1       1.2       1.4
 2 C  px              0.5       0.1       1.1       0.1       0.0       1.1
 2 C  py              2.5       0.2       0.2       0.3       3.3       1.1
 2 C  dz2             0.1      12.8       0.4       0.2       1.0       0.0
 2 C  dxz             4.4       0.0       0.7       0.2       4.9       0.0
 2 C  dyz             0.2       2.0       1.6       0.1       0.3       7.4
 2 C  dx2y2           0.9       1.2       2.7       0.1       6.4       6.2
 2 C  dxy             0.4       4.6       1.9       0.3       5.0       0.3
 3 O  s               0.4       0.0       1.6       0.1       1.2       3.7
 3 O  pz              0.2       0.6       0.2       0.0       0.3       1.3
 3 O  px              0.6       0.2       0.0       0.0       0.0       1.1
 3 O  py              0.0       0.2       0.7       0.1       1.1       0.8
 3 O  dz2             0.3      42.5       0.2       0.0       0.0       0.9
 3 O  dxz             9.5       0.2       0.0       0.0       0.6      17.9
 3 O  dyz             0.4       2.3      10.6       1.1      14.6      16.3
 3 O  dx2y2           9.7       0.6       8.2       1.0      14.4       0.1
 3 O  dxy             6.9      12.9       0.1       0.1       0.4      14.9
 4 C  s               0.4       0.0       0.2       1.3       0.0       0.2
 4 C  pz              0.0       0.0       0.0       0.3       0.0       0.1
 4 C  px              0.1       0.0       0.1       0.7       0.5       0.1
 4 C  py              0.1       0.0       0.0       0.6       0.1       0.0
 4 C  dz2             0.3       0.0       0.0       0.1       0.1       0.0
 4 C  dxz             0.1       0.2       0.3       1.0       0.3       0.2
 4 C  dyz             0.0       0.3       0.0       0.7       0.1       0.0
 4 C  dx2y2           0.6       0.9       0.4       0.0       0.2       0.2
 4 C  dxy             0.9       0.0       0.2       0.9       1.2       0.1
 5 C  s               0.0       0.0       0.0      13.9       0.8       0.1
 5 C  pz              0.0       0.0       0.0       1.4       0.1       0.0
 5 C  px              0.0       0.0       0.0       2.9       0.1       0.0
 5 C  py              0.1       0.0       0.0       2.1       0.1       0.0
 5 C  dz2             0.0       0.0       0.0       0.7       0.0       0.0
 5 C  dxz             0.1       0.0       0.0       7.4       0.5       0.0
 5 C  dyz             0.1       0.3       0.0       5.8       0.3       0.0
 5 C  dx2y2           0.4       1.0       0.0       0.3       0.0       0.0
 5 C  dxy             0.0       0.1       0.0      10.9       0.9       0.0
 6 N  s               0.0       0.1       0.0       7.0       0.4       0.0
 6 N  pz              0.0       0.0       0.0       1.8       0.1       0.0
 6 N  px              0.0       0.0       0.0       3.3       0.2       0.0
 6 N  py              0.0       0.0       0.0       2.6       0.1       0.0
 6 N  dz2             0.0       0.0       0.0       0.6       0.0       0.0
 6 N  dxz             0.3       0.0       0.0       8.4       0.4       0.0
 6 N  dyz             0.0       0.3       0.0       6.5       0.2       0.0
 6 N  dx2y2           0.5       0.9       0.0       0.2       0.0       0.0
 6 N  dxy             0.1       0.0       0.0      12.0       0.6       0.0



                      *****************************
                      * MAYER POPULATION ANALYSIS *
                      *****************************

  NA   - Mulliken gross atomic population
  ZA   - Total nuclear charge
  QA   - Mulliken gross atomic charge
  VA   - Mayer's total valence
  BVA  - Mayer's bonded valence
  FA   - Mayer's free valence

  ATOM       NA         ZA         QA         VA         BVA        FA
  0 C      6.1275     6.0000    -0.1275     3.8477     3.8477     0.0000
  1 O      8.2380     8.0000    -0.2380     2.2644     2.2644     0.0000
  2 C      5.9030     6.0000     0.0970     4.4117     4.4117     0.0000
  3 O      8.1665     8.0000    -0.1665     2.3352     2.3352    -0.0000
  4 C      6.0498     6.0000    -0.0498     3.9217     3.9217     0.0000
  5 C      6.2727     6.0000    -0.2727     4.3501     4.3501     0.0000
  6 N      6.9349     7.0000     0.0651     3.1830     3.1830     0.0000
  7 H      0.8643     1.0000     0.1357     0.9807     0.9807    -0.0000
  8 H      0.8732     1.0000     0.1268     0.9537     0.9537     0.0000
  9 H      0.8661     1.0000     0.1339     0.9547     0.9547    -0.0000
 10 H      0.8508     1.0000     0.1492     0.9584     0.9584    -0.0000
 11 H      0.8531     1.0000     0.1469     0.9661     0.9661     0.0000

  Mayer bond orders larger than 0.100000
B(  0-C ,  1-O ) :   0.9329 B(  0-C ,  7-H ) :   0.9370 B(  0-C ,  8-H ) :   0.9585 
B(  0-C ,  9-H ) :   0.9582 B(  1-O ,  2-C ) :   1.2138 B(  1-O ,  3-O ) :   0.1017 
B(  2-C ,  3-O ) :   2.1097 B(  2-C ,  4-C ) :   0.9598 B(  4-C ,  5-C ) :   1.1641 
B(  4-C , 10-H ) :   0.8701 B(  4-C , 11-H ) :   0.8707 B(  5-C ,  6-N ) :   3.0633 


-------
TIMINGS
-------

Total SCF time: 0 days 0 hours 1 min 6 sec 

Total time                  ....      66.431 sec
Sum of individual times     ....      66.188 sec  ( 99.6%)

SCF preparation             ....       1.251 sec  (  1.9%)
Fock matrix formation       ....       2.234 sec  (  3.4%)
  Startup                   ....       0.008 sec  (  0.4% of F)
  Split-RI-J                ....       0.676 sec  ( 30.3% of F)
  XC integration            ....       1.457 sec  ( 65.2% of F)
    XC Preparation          ....       0.000 sec  (  0.0% of XC)
    Basis function eval.    ....       0.416 sec  ( 28.5% of XC)
    Density eval.           ....       0.184 sec  ( 12.6% of XC)
    XC-Functional eval.     ....       0.099 sec  (  6.8% of XC)
    XC-Potential eval.      ....       0.202 sec  ( 13.8% of XC)
Diagonalization             ....       0.000 sec  (  0.0%)
Density matrix formation    ....       0.031 sec  (  0.0%)
Total Energy calculation    ....       0.001 sec  (  0.0%)
Population analysis         ....       0.572 sec  (  0.9%)
Orbital Transformation      ....       0.011 sec  (  0.0%)
Orbital Orthonormalization  ....       0.000 sec  (  0.0%)
DIIS solution               ....      44.712 sec  ( 67.3%)
  MO trafo                  ....       0.000 sec  (  0.0 % of DIIS)
  Orb grad                  ....       0.000 sec  (  0.0 % of DIIS)
  Energy W gradient         ....       0.000 sec  (  0.0 % of DIIS)
  DIIS error                ....       0.001 sec  (  0.0 % of DIIS)
  DIIS work                 ....      44.704 sec  (100.0 % of DIIS)
  Form Q                    ....       0.000 sec  (  0.0 % of DIIS)
  Form QpQm                 ....       0.000 sec  (  0.0 % of DIIS)
  Exp/Cayley                ....       0.000 sec  (  0.0 % of DIIS)
  Orb update                ....       0.000 sec  (  0.0 % of DIIS)
  Wake-sleep                ....       0.001 sec  (  0.0 % of DIIS)
SOSCF solution              ....      17.376 sec  ( 26.2%)
  MO trafo                  ....       0.010 sec  (  0.1 % of SOSCF)
  Orb grad                  ....       0.000 sec  (  0.0 % of SOSCF)
  Rot update                ....      17.361 sec  ( 99.9 % of SOSCF)
  Step                      ....       0.004 sec  (  0.0 % of SOSCF)
Finished LeanSCF after  67.9 sec

Maximum memory used throughout the entire LEANSCF-calculation: 9.7 MB


-------------------------------------------------------------------------------
                          DFT DISPERSION CORRECTION                            
                                                                               
                                DFTD4 V3.4.0                                   
-------------------------------------------------------------------------------
The PBE functional is recognized
Active option DFTDOPT                   ...         5   

-------------------------   ----------------
Dispersion correction           -0.008742113
-------------------------   ----------------

------------------   -----------------
gCP correction             0.051559338
------------------   -----------------

-------------------------   --------------------
FINAL SINGLE POINT ENERGY      -359.878242684604
-------------------------   --------------------


------------------------------------------------------------------------------
                              ORCA PROPERTY CALCULATIONS
------------------------------------------------------------------------------

GBWName                                 ... sp.gbw
Number of atoms                         ...     12
Number of basis functions               ...    108
Max core memory                         ...   1024 MB

Electric properties:
Dipole moment                           ... YES
Quadrupole moment                       ...  NO
Static polarizability (Dipole/Dipole)   ...  NO
Static polarizability (Dipole/Quad.)    ...  NO
Static polarizability (Quad./Quad.)     ...  NO
Static polarizability (Velocity)        ...  NO

Atomic electric properties:
Dipole moment                           ...  NO
Quadrupole moment                       ...  NO
Static polarizability                   ...  NO

Choice of electric origin               ... Center of mass
Position of electric origin             ...     0.000019    -0.000012     0.000002

General magnetic properties:
Magnetizability                         ...  NO

EPR properties:
g-Tensor (aka g-matrix)                 ...  NO
Zero-Field splitting spin-orbit         ...  NO
Zero-field splitting spin-spin          ...  NO
Hyperfine couplings                     ...  NO (   0 nuclei)
Quadrupole couplings                    ...  NO (   0 nuclei)
Contact density                         ...  NO (   0 nuclei)

NMR properties:
Chemical shifts                         ...  NO (   0 nuclei)
Spin-rotation constants                 ...  NO (   0 nuclei)
Spin-spin couplings                     ...  NO (   0 nuclei,    0 pairs)

Choice of magnetic origin               ... GIAO
Position of magnetic origin             ...     0.000000     0.000000     0.000000

Properties with geometric perturbations:
SCF Hessian                             ...  NO
IR spectrum                             ...  NO
VCD spectrum                            ...  NO
X-ray spectroscopy properties:
SCF XES/XAS/RIXS spectra                ...  NO


-------------
DIPOLE MOMENT
-------------

Method             : SCF
Type of density    : Electron Density
Multiplicity       :   1
Irrep              :   0
Energy             :  -359.9210599094782310 Eh
Relativity type    : 
Basis              : AO
                                X                 Y                 Z
Electronic contribution:      4.236763173       1.107003985      -0.575827008
Nuclear contribution   :     -5.356441621      -1.021124124       1.468598036
                        -----------------------------------------
Total Dipole Moment    :     -1.119678448       0.085879861       0.892771027
                        -----------------------------------------
Magnitude (a.u.)       :      1.434606317
Magnitude (Debye)      :      3.646479466



--------------------
Rotational spectrum 
--------------------
 
Rotational constants in cm-1:             0.172216             0.058130             0.050195 
Rotational constants in MHz :          5162.902586          1742.693477          1504.810942 

Dipole components along the rotational axes: 
x,y,z [a.u.] :    -1.101419     0.042862    -0.918224 
x,y,z [Debye]:    -2.799584     0.108948    -2.333940 

 

Dipole moment calculation done in   0.4 sec 

Maximum memory used throughout the entire PROP-calculation: 6.4 MB

--------------------------------
SUGGESTED CITATIONS FOR THIS RUN
--------------------------------

Below you find a list of papers that are relevant to this ORCA run
We neither can nor want to force you to cite these papers, but we appreciate if you do
You receive ORCA, which is the product of decades of hard work by many enthusiastic individuals, for free
The only thing we kindly ask in return is that you cite our papers,
We deeply appreciate it, if you show your appreciation for ORCA by not just citing the generic ORCA reference.

Please note that relegating all ORCA citations to the supporting information does *not* help us.
SI sections are not indexed - citations you put there will not count into any citation statistics
But we need these citations in order to attract the funding resources that allow us to do what we are doing

Therefore, if you are a happy ORCA user, please consider citing a few of the papers listed below in the main body of your paper

In addition to the list printed below, the program has created the file sp.bibtex that contains the list in bibtex format
You can import this file easily into all common literature databanks and citation aid programs


List of essential papers. We consider these as the minimum necessary citations

  1. Neese,F.
     Software update: the ORCA program system, version 5.0
     WIRES Comput. Molec. Sci., 2022 12(1)e1606
     doi.org/10.1002/wcms.1606

List of papers to cite with high priority. The work reported in these papers was absolutely
necessary for this run to complete.
Our perspective: the developers of density functionals and basis sets usually get cited in chemistry papers
Good! But without the algorithms to do something with them, the functionals or basis sets would not do anything.
Hence, in our opinion, the algorithm design and method developments papers are equally worthy of getting cited

  1. Neese,F.
     An improvement of the resolution of the identity approximation for the formation of the Coulomb matrix
     J. Comp. Chem., 2003 24(14)1740-1747
     doi.org/10.1002/jcc.10318
  2. Neese,F.
     The SHARK Integral Generation and Digestion System
     J. Comp. Chem., 2022  1-16
     doi.org/10.1002/jcc.26942
  3. Caldeweyher,E.; Bannwarth,C.; Grimme,S.
     Extension of the D3 dispersion coefficient model
     J. Chem. Phys., 2017 147 034112
     doi.org/10.1063/1.4993215
  4. Caldeweyher,E.; Ehlert,S.; Hansen,A.; Neugebauer,H.; Spicher,S.; Bannwarth,C.; Grimme,S.
     A generally applicable atomic-charge dependent London dispersion correction
     J. Chem. Phys., 2019 150 154122
     doi.org/10.1063/1.5090222
  5. Caldeweyher,E.; Mewes,J.; Ehlert,S.; Grimme,S.
     Extension and evaluation of the D4 London-dispersion model for periodic systems
     Phys. Chem. Chem. Phys., 2020 22(16)8499-8512
     doi.org/10.1039/D0CP00502A
  6. Wittmann,L.; Gordiy,I.; Friede,M.; Helmich-Paris,B.; Grimme,S.; Hansen,A.; Bursch,M.
     Extension of the D3 and D4 London Dispersion Corrections to the full Actinides Series
     Phys. Chem. Chem. Phys., 2024 26(32)21379-21394
     doi.org/https://doi.org/10.1039/D4CP01514B 

List of suggested additional citations. These are papers that are important in the 'surrounding' of 
of this run, or papers that preceded the highly important papers. If you like your results we are grateful for a citation.

  1. Neese,F.
     The ORCA program system
     WIRES Comput. Molec. Sci., 2012 2(1)73-78
     doi.org/10.1002/wcms.81
  2. Neese,F.
     Software update: the ORCA program system, version 4.0
     WIRES Comput. Molec. Sci., 2018 8(1)1-6
     doi.org/10.1002/wcms.1327
  3. Neese,F.; Wennmohs,F.; Becker,U.; Riplinger,C.
     The ORCA quantum chemistry program package
     J. Chem. Phys., 2020 152 Art. No. L224108
     doi.org/10.1063/5.0004608

List of optional additional citations

  1. Neese,F.
     Approximate second-order SCF convergence for spin unrestricted wavefunctions
     Chem. Phys. Lett., 2000 325(1-3)93-98
     doi.org/10.1016/s0009-2614(00)00662-x

Timings for individual modules:

Sum of individual times          ...       74.233 sec (=   1.237 min)
Startup calculation              ...        2.283 sec (=   0.038 min)   3.1 %
SCF iterations                   ...       68.148 sec (=   1.136 min)  91.8 %
Property calculations            ...        3.802 sec (=   0.063 min)   5.1 %
                             ****ORCA TERMINATED NORMALLY****
TOTAL RUN TIME: 0 days 0 hours 1 minutes 14 seconds 944 msec
