24
 energy: -32.435677316207 gnorm: 0.030298128889 xtb: 6.7.1 (edcfbbe)
C           -3.60210740697448        0.12795810976904       -0.35754441565912
O           -2.22558697411200        0.17368312494417       -0.79157515308941
C           -1.31673107359598       -0.08738910844335        0.18091856578990
O           -1.62266976309170       -0.34484169594674        1.32307637412379
C            0.09916996976568        0.00605216982724       -0.33461897521615
C            0.86941352408841       -1.28187864365469       -0.00192995656625
C            2.32828468792200       -1.17811838833788       -0.44894868712116
C            3.01487498994541        0.03619703972555        0.17893763974680
C            2.25063662234884        1.32167443948749       -0.14312002038008
C            0.79139672972074        1.22527340898406        0.30434940992278
H           -4.19547872842006        0.33771031962453       -1.24729365162006
H           -3.78248541885534        0.88039515561161        0.41467334213312
H           -3.84145841358394       -0.85965504319879        0.04474847296023
H            0.06745200230651        0.14360151103399       -1.42191747577824
H            0.81780515388109       -1.44338219846653        1.08169457210818
H            0.38204489893184       -2.14013436146204       -0.47914899490841
H            2.86217444223913       -2.09799113036353       -0.18492941006897
H            2.36932524843097       -1.09133121350886       -1.54380212776281
H            3.05576556786782       -0.09606003969170        1.26887096754935
H            4.05040925616023        0.11161321056159       -0.17184986914862
H            2.72874466538376        2.18209792088544        0.33869645685339
H            2.28757222658772        1.50357687730394       -1.22625617707662
H            0.74035015681620        1.11690394539478        1.39516779320609
H            0.24825111374024        2.14088596150978        0.04248427453116
24
 energy: -32.436747751487 gnorm: 0.010689585832 xtb: 6.7.1 (edcfbbe)
C           -3.58951843765882        0.12769034610680       -0.36045051709518
O           -2.21988079601228        0.17183487253418       -0.77560364813188
C           -1.31160775850057       -0.08417486009951        0.18577377796504
O           -1.61308784102411       -0.34401267965155        1.32117867314539
C            0.10106112733217        0.00780851014563       -0.34109433318535
C            0.86900077853745       -1.27437293927627        0.00180477939905
C            2.32112273446395       -1.17134466852479       -0.45240499390964
C            3.00313746932986        0.03501442552231        0.18504466990947
C            2.24381271661776        1.31516241299658       -0.14875520494292
C            0.79184919250564        1.21716750408990        0.30727296887150
H           -4.18009294751129        0.33672172833356       -1.24917833725137
H           -3.76890528540705        0.87839814373241        0.41052683180628
H           -3.82585321002856       -0.85870742688818        0.04085210950250
H            0.06196706882063        0.14503197918306       -1.42654960559292
H            0.82370365937894       -1.43235062902280        1.08290114153104
H            0.38709971415678       -2.12914922960032       -0.48024166944728
H            2.85401301013344       -2.08619716170400       -0.18103254614192
H            2.35781215637567       -1.07876837121095       -1.54285251164737
H            3.03756748806565       -0.09662210204730        1.27097648548525
H            4.03325948430085        0.11102823367093       -0.17243930484037
H            2.72131255313686        2.16891330955202        0.33888979888496
H            2.27722402289127        1.49013111321320       -1.22906530924469
H            0.74785198938078        1.10664493925500        1.39464763904426
H            0.25430458821803        2.13099392127914        0.04048206041506
24
 energy: -32.436891747436 gnorm: 0.003889147280 xtb: 6.7.1 (edcfbbe)
C           -3.57930331044725        0.12827929830687       -0.36227233396727
O           -2.21430035950325        0.17000015884702       -0.76594432232331
C           -1.30963700829842       -0.08697870409643        0.19059729930835
O           -1.60939884649768       -0.34403433870766        1.32579972131592
C            0.10193043600157        0.00800766120524       -0.34116581136429
C            0.86742155443791       -1.27374152839116        0.00041839917807
C            2.31876516366881       -1.17016446908848       -0.45319990788851
C            2.99959432606522        0.03516041637093        0.18550238601233
C            2.24152368483401        1.31465800876494       -0.14995075278517
C            0.79025282145660        1.21685075863484        0.30564839540377
H           -4.16678654441080        0.33764327279939       -1.25164261475910
H           -3.76392311997854        0.87764562917154        0.40860560080679
H           -3.82032899480911       -0.85732404822874        0.03804631255953
H            0.05756388762129        0.14467383343638       -1.42510899791220
H            0.82403453941891       -1.42639409400694        1.08026377820733
H            0.38636188456015       -2.12822935374788       -0.48061029660612
H            2.85086201367621       -2.08411427314299       -0.18237257189284
H            2.35295103842817       -1.07212553580058       -1.54074982459707
H            3.02605643398357       -0.09631249965214        1.26908469121870
H            4.02949401246830        0.11070121991514       -0.16930035004454
H            2.71850642947050        2.16773251638212        0.33660376212358
H            2.27264266731044        1.48313713422352       -1.22882150845144
H            0.74944610614737        1.10128382949229        1.39043448745602
H            0.25342466189909        2.13048647890185        0.04081741353035
24
 energy: -32.436909832555 gnorm: 0.001322477173 xtb: 6.7.1 (edcfbbe)
C           -3.57662821905269        0.12813858932806       -0.36342068037880
O           -2.21269120020348        0.17010259178926       -0.76300332601078
C           -1.30957939794441       -0.08551240390998        0.19336967927776
O           -1.60815592454648       -0.34449643814184        1.32925619897971
C            0.10185624219791        0.00809431412721       -0.34042392292441
C            0.86756665221687       -1.27364621699146        0.00022717041266
C            2.31902974212505       -1.17009989257711       -0.45462556400580
C            2.99904395221025        0.03495591010139        0.18664735566163
C            2.24162444335854        1.31470321116792       -0.15158919355562
C            0.79047513923743        1.21662341130745        0.30592815956104
H           -4.16262720287853        0.33756071748297       -1.25395099623835
H           -3.76587069475523        0.87714188740307        0.40755316499946
H           -3.82126465440811       -0.85724788743207        0.03692060473585
H            0.05458031710913        0.14486940681469       -1.42415417541233
H            0.82455814426565       -1.42590967503430        1.08009352140018
H            0.38588528892145       -2.12799294940827       -0.48022606410626
H            2.85129345748039       -2.08441035888713       -0.18588189830213
H            2.35231947106518       -1.06971559560227       -1.54186375045068
H            3.02187584199846       -0.09648460866185        1.27021889998873
H            4.02986830914682        0.11018003660523       -0.16513593756651
H            2.71866142321062        2.16881285366440        0.33277658921850
H            2.27174585574343        1.48063241107439       -1.23076663229629
H            0.75051951893048        1.10041172178189        1.39064335961257
H            0.25306697207433        2.13013033558741        0.04209039192878
24
 energy: -32.436914821802 gnorm: 0.001428552802 xtb: 6.7.1 (edcfbbe)
C           -3.57562804312913        0.12862478871710       -0.36481853348640
O           -2.21186224827352        0.16959389365438       -0.76005136287437
C           -1.31008995261057       -0.08728317221743        0.19613126034854
O           -1.60675447073086       -0.34480537219881        1.33358312657862
C            0.10164520507121        0.00775404241518       -0.33844093485446
C            0.86824395778491       -1.27412376013486        0.00032773398389
C            2.31963924176856       -1.16934889168289       -0.45615680098659
C            2.99926698391561        0.03501472469322        0.18794701515895
C            2.24218698860505        1.31467989839265       -0.15343374151472
C            0.79113366742133        1.21690177601436        0.30624470295709
H           -4.15959295345716        0.33871727323508       -1.25712871780098
H           -3.76964715396112        0.87716591975390        0.40645246913952
H           -3.82475360216439       -0.85670497634957        0.03492264365630
H            0.05140716312570        0.14443649258157       -1.42217827667795
H            0.82631333353970       -1.42743251698911        1.08038748767149
H            0.38594453931079       -2.12849684843040       -0.47984088994800
H            2.85254630012386       -2.08449637610944       -0.19125980646230
H            2.35173460545563       -1.06574529000294       -1.54340853184553
H            3.01699339454831       -0.09651422586992        1.27187727185494
H            4.03195774546079        0.10964155003188       -0.15883843198182
H            2.71989584999778        2.17082487709708        0.32684938150906
H            2.27080909827028        1.47688617832957       -1.23348979604486
H            0.75291343208992        1.10107796800206        1.39138292684553
H            0.25285039534042        2.13047341865642        0.04362275930295
24
 energy: -32.436916502670 gnorm: 0.000466187962 xtb: 6.7.1 (edcfbbe)
C           -3.57666111402381        0.12831727438710       -0.36478781319170
O           -2.21226621715877        0.16984417012422       -0.76012813321957
C           -1.31012304920935       -0.08577565772601        0.19666532354046
O           -1.60699864779479       -0.34480165850905        1.33337140495225
C            0.10171917383782        0.00783961850639       -0.33793174898121
C            0.86844361021572       -1.27421084178098        0.00028755215335
C            2.31967284246617       -1.16928801363549       -0.45604962590590
C            2.99914034901010        0.03490821140025        0.18789345076154
C            2.24218899677981        1.31432686379041       -0.15344101713722
C            0.79144714699034        1.21701124660318        0.30652928681413
H           -4.16035074316290        0.33829471018761       -1.25725736534811
H           -3.77004556790752        0.87711701823287        0.40607014272797
H           -3.82487875531952       -0.85707395959005        0.03473616667315
H            0.05216530568354        0.14473711290571       -1.42171996840218
H            0.82684480162968       -1.42814353748994        1.08029072099614
H            0.38625753452650       -2.12849803584110       -0.48022345450371
H            2.85280651492088       -2.08450945417947       -0.19162671355702
H            2.35163088756737       -1.06532243346209       -1.54331879823050
H            3.01677097504126       -0.09658398870937        1.27185089078123
H            4.03194116302157        0.10951130166314       -0.15857648149733
H            2.72008267432539        2.17071237750298        0.32631675421116
H            2.27062383044088        1.47616732792400       -1.23360894592790
H            0.75344871113351        1.10167873130196        1.39174307868093
H            0.25329305448920        2.13058298798281        0.04359824813894
24
 energy: -32.436916797052 gnorm: 0.000210297579 xtb: 6.7.1 (edcfbbe)
C           -3.57685372102470        0.12837232505418       -0.36467007209303
O           -2.21217702834703        0.16958718346348       -0.76016361128037
C           -1.31002613817936       -0.08656297613109        0.19671377558104
O           -1.60715794314347       -0.34463241127511        1.33339293206685
C            0.10179099272694        0.00783832294220       -0.33777476172103
C            0.86851825136102       -1.27413741795182        0.00048767373334
C            2.31952517923846       -1.16898815525081       -0.45615063871752
C            2.99883760335543        0.03493043455439        0.18811657692626
C            2.24212713571219        1.31420088841597       -0.15361269787955
C            0.79160093109363        1.21698005486809        0.30667284039681
H           -4.16020578795343        0.33852200986876       -1.25721092579557
H           -3.76969169311216        0.87719181882538        0.40606480979808
H           -3.82478796819173       -0.85706770871449        0.03445145306231
H            0.05255166282303        0.14469379997613       -1.42158452969029
H            0.82703215756785       -1.42839250546709        1.08040780225195
H            0.38637328855734       -2.12821113727354       -0.48034666380320
H            2.85271111975326       -2.08423063399372       -0.19199591230164
H            2.35133700823112       -1.06473550761805       -1.54337232556215
H            3.01621644610279       -0.09656530880851        1.27204966846858
H            4.03167603553333        0.10946612844325       -0.15813538472218
H            2.72019135906701        2.17069361526370        0.32574236227885
H            2.27033003396985        1.47559878895752       -1.23382211104600
H            0.75379171995750        1.10185276413655        1.39186427841236
H            0.25344283240421        2.13043699930371        0.04355841616500
24
 energy: -32.436916903360 gnorm: 0.000053853433 xtb: 6.7.1 (edcfbbe)
C           -3.57668228545938        0.12829852024594       -0.36479323271534
O           -2.21198041625418        0.16957650015625       -0.75991474947900
C           -1.30998677836578       -0.08634924632288        0.19708115483399
O           -1.60714742248777       -0.34455550065189        1.33377243732695
C            0.10179097021761        0.00787163614736       -0.33755378349841
C            0.86850813477307       -1.27421001795352        0.00041568550219
C            2.31954102956929       -1.16894934754159       -0.45626716468316
C            2.99884263115618        0.03490570709434        0.18822802601091
C            2.24214323326500        1.31415675478865       -0.15378270000963
C            0.79163611686198        1.21707822573869        0.30672653851738
H           -4.15980716127636        0.33852221444882       -1.25748606803436
H           -3.76983672412208        0.87705065863757        0.40597336453798
H           -3.82485451663287       -0.85715149447380        0.03424423312725
H            0.05223129611304        0.14476259886288       -1.42133129212285
H            0.82714920760211       -1.42852409571428        1.08032060119254
H            0.38625881276905       -2.12824248085095       -0.48040100478097
H            2.85278387514247       -2.08426622966601       -0.19250397534416
H            2.35119370031614       -1.06430692540668       -1.54344145318314
H            3.01561193522568       -0.09658681071521        1.27216400146372
H            4.03187460250167        0.10936727112010       -0.15749619379190
H            2.72030128385636        2.17084198449756        0.32512307534718
H            2.27014248000091        1.47509098165910       -1.23405512683140
H            0.75404510478221        1.10192505916821        1.39191388942763
H            0.25339436794873        2.13053540832040        0.04374669171552
24
 energy: -32.436916846147 gnorm: 0.000181017489 xtb: 6.7.1 (edcfbbe)
C           -3.57650791790690        0.12822090300636       -0.36492014485835
O           -2.21178023683042        0.16955977154252       -0.75966179567553
C           -1.30994725777423       -0.08613753167351        0.19745541188056
O           -1.60713927204580       -0.34446882126685        1.33416127722264
C            0.10178985279186        0.00790826043471       -0.33732702274222
C            0.86849946823907       -1.27427961239232        0.00034505831698
C            2.31955692097232       -1.16890903354951       -0.45639003259136
C            2.99884250062184        0.03487969045559        0.18834570546429
C            2.24216289374748        1.31411357728483       -0.15396040136083
C            0.79167777997645        1.21717682712788        0.30678381657001
H           -4.15940092934385        0.33852683962607       -1.25776630337890
H           -3.76998156260276        0.87689968681814        0.40588401234002
H           -3.82492387952065       -0.85724143471554        0.03402579226742
H            0.05190167769671        0.14483537206680       -1.42107161020490
H            0.82727039128220       -1.42865642074392        1.08023472591211
H            0.38614318376884       -2.12826795031901       -0.48045614118954
H            2.85285703803604       -2.08430316433079       -0.19302939188787
H            2.35104559699654       -1.06386405047555       -1.54351576215003
H            3.01498111960881       -0.09660927573846        1.27228459270387
H            4.03207393312572        0.10926325640834       -0.15683184806178
H            2.72041961696961        2.17099741032615        0.32447994177875
H            2.26994952697721        1.47456622744038       -1.23429843470259
H            0.75431230230571        1.10199613412942        1.39196729879513
H            0.25335073041130        2.13063471012734        0.04394421008102
24
 energy: -32.436916912396 gnorm: 0.000033481939 xtb: 6.7.1 (edcfbbe)
C           -3.57666157047205        0.12822762125365       -0.36482865984521
O           -2.21194449460081        0.16953897924849       -0.75990740728722
C           -1.30998349489820       -0.08625912276096        0.19716034978740
O           -1.60722026088591       -0.34439746612655        1.33386315901287
C            0.10177190937534        0.00791611296905       -0.33747681601467
C            0.86851291768130       -1.27418883951676        0.00040284091420
C            2.31955337080544       -1.16896608535376       -0.45632397038923
C            2.99879613923865        0.03488223200353        0.18828705876256
C            2.24219030393111        1.31417443942814       -0.15385192854677
C            0.79170003371504        1.21709995829569        0.30676545322790
H           -4.15975668946706        0.33853009096352       -1.25752422581100
H           -3.76983681373289        0.87690478081993        0.40601715965317
H           -3.82485218489220       -0.85725612081617        0.03413767633007
H            0.05211584662653        0.14483298612186       -1.42124343158975
H            0.82716292891235       -1.42856567247383        1.08030465088345
H            0.38623166558665       -2.12818356388969       -0.48044509079334
H            2.85279632261125       -2.08431321810385       -0.19267199274917
H            2.35117978475893       -1.06420497975457       -1.54348786948028
H            3.01537786748118       -0.09660721690817        1.27222592697070
H            4.03188603323767        0.10930380861723       -0.15725100495631
H            2.72039587569785        2.17091886048243        0.32489626851111
H            2.27012105181863        1.47494463092265       -1.23415124110760
H            0.75416396888034        1.10194476341685        1.39196013915442
H            0.25345296609395        2.13056439275036        0.04382590989160
