 Entering Gaussian System
 *********************************************
 Gaussian 98:
 frequency output generated by the xtb code
 *********************************************
                         Standard orientation:
 --------------------------------------------------------------------
  Center     Atomic     Atomic              Coordinates (Angstroms)
  Number     Number      Type              X           Y           Z
 --------------------------------------------------------------------
    1          6             0       -0.821431   -2.287727    0.000110
    2          6             0        0.071459   -1.084223    0.000079
    3          6             0        1.449658   -1.253367   -0.000169
    4          6             0        2.312544   -0.170528   -0.000224
    5          6             0        1.809826    1.121153   -0.000047
    6          6             0        0.444350    1.311819    0.000186
    7          6             0       -0.434528    0.225630    0.000268
    8          6             0       -1.873103    0.516763    0.000581
    9          8             0       -2.350545    1.625081    0.000376
   10          1             0       -1.460405   -2.296927   -0.881721
   11          1             0       -0.226399   -3.197822   -0.000284
   12          1             0       -1.459801   -2.297303    0.882377
   13          1             0        1.857253   -2.254407   -0.000327
   14          1             0        3.379796   -0.336792   -0.000408
   15          1             0        2.479771    1.967523   -0.000086
   16          1             0        0.017734    2.304050    0.000332
   17          1             0       -2.531296   -0.371199    0.000988
 --------------------------------------------------------------------
     1 basis functions        1 primitive gaussians
     1 alpha electrons        1 beta electrons
 
 Harmonic frequencies (cm**-1), IR intensities (km*mol⁻¹),
 Raman scattering activities (A**4/amu), Raman depolarization ratios,
 reduced masses (AMU), force constants (mDyne/A) and normal coordinates:
                      1                      2                      3
                        a                      a                      a 
 Frequencies --    83.7728               129.4645               163.8717
 Red. masses --    10.7004                 7.6701                 3.0658
 Frc consts  --     0.0000                 0.0000                 0.0000
 IR Inten    --    11.3281                 0.6269                 0.0270
 Raman Activ --     0.0000                 0.0000                 0.0000
 Depolar     --     0.0000                 0.0000                 0.0000
 Atom AN      X      Y      Z        X      Y      Z        X      Y      Z
   1   6     0.00  -0.00   0.04    -0.00   0.00  -0.33     0.00  -0.00   0.24
   2   6    -0.00  -0.00  -0.05     0.00   0.00  -0.02    -0.00  -0.00  -0.11
   3   6     0.00  -0.00   0.18     0.00  -0.00   0.32    -0.00   0.00  -0.14
   4   6     0.00   0.00   0.15     0.00  -0.00   0.30    -0.00   0.00   0.01
   5   6    -0.00   0.00  -0.07     0.00  -0.00  -0.20    -0.00   0.00   0.17
   6   6    -0.00  -0.00  -0.24    -0.00   0.00  -0.37    -0.00  -0.00   0.04
   7   6    -0.00  -0.00  -0.25     0.00   0.00  -0.13    -0.00  -0.00  -0.11
   8   6    -0.00  -0.00  -0.40     0.00   0.00   0.31    -0.00   0.00  -0.23
   9   8     0.00   0.00   0.63    -0.00  -0.00   0.10     0.00   0.00   0.04
  10   1     0.08  -0.07  -0.04    -0.13   0.16   0.00    -0.40   0.17   0.36
  11   1     0.00  -0.00   0.14    -0.00   0.00  -0.35    -0.00   0.00  -0.37
  12   1    -0.08   0.07  -0.04     0.13  -0.16   0.00     0.40  -0.17   0.36
  13   1     0.00  -0.00   0.11     0.00  -0.00   0.16    -0.00   0.00  -0.06
  14   1     0.00   0.00   0.09     0.00  -0.00   0.17    -0.00   0.00   0.01
  15   1    -0.00   0.00  -0.03     0.00  -0.00  -0.11    -0.00   0.00   0.10
  16   1    -0.00  -0.00  -0.11    -0.00   0.00  -0.17    -0.00  -0.00   0.02
  17   1    -0.00  -0.00  -0.43     0.00   0.00   0.31    -0.00   0.00  -0.16
                      4                      5                      6
                        a                      a                      a 
 Frequencies --   218.0022               235.8983               331.6273
 Red. masses --    12.6338                 8.3623                10.4363
 Frc consts  --     0.0000                 0.0000                 0.0000
 IR Inten    --     5.3388                 2.9007                 1.8377
 Raman Activ --     0.0000                 0.0000                 0.0000
 Depolar     --     0.0000                 0.0000                 0.0000
 Atom AN      X      Y      Z        X      Y      Z        X      Y      Z
   1   6     0.18  -0.32  -0.00     0.00  -0.00   0.22    -0.45   0.31   0.00
   2   6    -0.01  -0.18   0.00    -0.00  -0.00  -0.31     0.11  -0.11  -0.00
   3   6     0.02   0.04   0.00    -0.00   0.00  -0.33     0.12  -0.01  -0.00
   4   6    -0.11   0.14  -0.00    -0.00   0.00   0.23    -0.07   0.18   0.00
   5   6    -0.24   0.09  -0.00    -0.00   0.00   0.32    -0.14   0.16   0.00
   6   6    -0.25  -0.12   0.00    -0.00  -0.00  -0.27    -0.14   0.02  -0.00
   7   6    -0.13  -0.22   0.00    -0.00  -0.00  -0.36     0.12  -0.16  -0.00
   8   6    -0.05   0.13   0.00     0.00   0.00   0.23     0.16  -0.27  -0.00
   9   8     0.54   0.41  -0.00     0.00   0.00   0.02     0.40  -0.22   0.00
  10   1     0.05  -0.12   0.00     0.04  -0.16   0.04    -0.13   0.20  -0.00
  11   1     0.09  -0.07  -0.00     0.00  -0.00   0.26    -0.28  -0.01  -0.00
  12   1     0.05  -0.12  -0.00    -0.04   0.16   0.04    -0.13   0.20   0.00
  13   1     0.05   0.03   0.00     0.00   0.00  -0.13     0.08   0.01  -0.00
  14   1    -0.03   0.08  -0.00    -0.00   0.00   0.18    -0.01   0.09   0.00
  15   1    -0.10   0.05  -0.00    -0.00   0.00   0.23    -0.05   0.06   0.00
  16   1    -0.12  -0.06   0.00    -0.00  -0.00  -0.10    -0.10  -0.02  -0.00
  17   1    -0.11   0.11  -0.00    -0.00   0.00   0.31     0.01  -0.04  -0.00
                      7                      8                      9
                        a                      a                      a 
 Frequencies --   408.5570               460.3309               462.7669
 Red. masses --     8.8779                10.9324                 9.3164
 Frc consts  --     0.0000                 0.0000                 0.0000
 IR Inten    --     3.4165                 2.9762                 0.7953
 Raman Activ --     0.0000                 0.0000                 0.0000
 Depolar     --     0.0000                 0.0000                 0.0000
 Atom AN      X      Y      Z        X      Y      Z        X      Y      Z
   1   6    -0.00   0.00   0.03    -0.05  -0.30   0.00    -0.00  -0.00  -0.04
   2   6     0.00  -0.00  -0.33    -0.31  -0.03  -0.00    -0.00  -0.00   0.49
   3   6     0.00  -0.00   0.40    -0.35   0.06  -0.00    -0.00   0.00   0.13
   4   6    -0.00   0.00  -0.23    -0.34   0.05   0.00    -0.00   0.00  -0.39
   5   6    -0.00   0.00  -0.07     0.10   0.23  -0.00     0.00   0.00   0.43
   6   6     0.00  -0.00   0.38     0.13   0.28   0.00     0.00   0.00  -0.22
   7   6    -0.00  -0.00  -0.49     0.22   0.16   0.00     0.00   0.00  -0.33
   8   6     0.00   0.00   0.03     0.33  -0.10   0.00     0.00  -0.00  -0.04
   9   8    -0.00   0.00   0.02     0.20  -0.21  -0.00     0.00  -0.00   0.06
  10   1    -0.04  -0.08   0.04    -0.01  -0.17  -0.00     0.07   0.13  -0.07
  11   1    -0.00  -0.00   0.07     0.10  -0.01   0.00     0.00  -0.00  -0.10
  12   1     0.04   0.08   0.04    -0.01  -0.17   0.00    -0.07  -0.13  -0.07
  13   1     0.00  -0.00   0.32    -0.07   0.03   0.00    -0.00   0.00   0.00
  14   1    -0.00   0.00  -0.10    -0.11  -0.06   0.00    -0.00  -0.00  -0.29
  15   1    -0.00   0.00   0.00     0.09   0.01  -0.00     0.00   0.00   0.25
  16   1     0.00  -0.00   0.32    -0.00   0.06   0.00    -0.00   0.00  -0.13
  17   1     0.00   0.00   0.20     0.14  -0.07  -0.00     0.00  -0.00   0.13
                     10                     11                     12
                        a                      a                      a 
 Frequencies --   532.3360               614.1479               663.1810
 Red. masses --    11.1880                11.6840                10.4879
 Frc consts  --     0.0000                 0.0000                 0.0000
 IR Inten    --     1.4628                12.7905                 0.1927
 Raman Activ --     0.0000                 0.0000                 0.0000
 Depolar     --     0.0000                 0.0000                 0.0000
 Atom AN      X      Y      Z        X      Y      Z        X      Y      Z
   1   6    -0.34  -0.30   0.00     0.02   0.10  -0.00     0.00   0.00   0.06
   2   6    -0.09  -0.30  -0.00    -0.23   0.22  -0.00     0.00   0.00   0.47
   3   6     0.05   0.25  -0.00    -0.23   0.42   0.00    -0.00   0.00  -0.34
   4   6     0.20   0.24   0.00     0.26   0.01  -0.00     0.00  -0.00   0.30
   5   6     0.30   0.25  -0.00     0.20  -0.04   0.00    -0.00  -0.00  -0.33
   6   6     0.21  -0.27   0.00     0.12  -0.25  -0.00     0.00  -0.00   0.32
   7   6     0.04  -0.18   0.00    -0.27   0.02   0.00    -0.00   0.00  -0.46
   8   6     0.01   0.18  -0.00    -0.27  -0.32   0.00    -0.00  -0.00  -0.09
   9   8    -0.28   0.10   0.00     0.35  -0.13  -0.00     0.00  -0.00   0.04
  10   1    -0.10  -0.03   0.00     0.01  -0.02  -0.00     0.08   0.12  -0.04
  11   1    -0.16  -0.13   0.00     0.07   0.07   0.00     0.00   0.00  -0.06
  12   1    -0.10  -0.03  -0.00     0.01  -0.02   0.00    -0.08  -0.12  -0.04
  13   1     0.09   0.10  -0.00    -0.13   0.09   0.00    -0.00   0.00  -0.13
  14   1     0.05   0.01   0.00     0.06  -0.10  -0.00     0.00  -0.00   0.14
  15   1     0.02   0.12  -0.00    -0.01   0.04   0.00    -0.00   0.00  -0.08
  16   1     0.01  -0.10  -0.00     0.09  -0.05  -0.00     0.00  -0.00   0.18
  17   1     0.02   0.04  -0.00    -0.13  -0.05   0.00     0.00   0.00   0.13
                     13                     14                     15
                        a                      a                      a 
 Frequencies --   765.5367               808.9285               826.3676
 Red. masses --     2.7824                10.4645                10.6868
 Frc consts  --     0.0000                 0.0000                 0.0000
 IR Inten    --    21.4428                 3.6149                23.3414
 Raman Activ --     0.0000                 0.0000                 0.0000
 Depolar     --     0.0000                 0.0000                 0.0000
 Atom AN      X      Y      Z        X      Y      Z        X      Y      Z
   1   6     0.00   0.00  -0.04     0.29   0.37  -0.00    -0.09  -0.05   0.00
   2   6    -0.00   0.00  -0.08    -0.03  -0.01   0.00    -0.12   0.08   0.00
   3   6    -0.00   0.00   0.15    -0.24   0.04   0.00    -0.06   0.32   0.00
   4   6     0.00  -0.00   0.22    -0.35   0.04  -0.00     0.37  -0.03  -0.00
   5   6     0.00  -0.00   0.15     0.06   0.12  -0.00    -0.35  -0.35   0.00
   6   6     0.00  -0.00   0.19     0.06  -0.50  -0.00    -0.22  -0.07   0.00
   7   6    -0.00  -0.00  -0.10     0.04  -0.24   0.00     0.04   0.02   0.00
   8   6     0.00  -0.00  -0.10     0.28   0.15  -0.00     0.50   0.18  -0.00
   9   8     0.00  -0.00   0.04    -0.11  -0.02   0.00    -0.06  -0.08   0.00
  10   1    -0.05  -0.08   0.03     0.08   0.12   0.00    -0.02  -0.05  -0.00
  11   1     0.00   0.00   0.05     0.08   0.10  -0.00     0.03   0.02  -0.00
  12   1     0.05   0.08   0.03     0.08   0.12  -0.00    -0.02  -0.05   0.00
  13   1    -0.00   0.00  -0.41    -0.05   0.02   0.00    -0.10   0.06   0.00
  14   1    -0.00   0.00  -0.49    -0.11  -0.08   0.00     0.11   0.04   0.00
  15   1    -0.00   0.00  -0.51    -0.03   0.06   0.00    -0.20  -0.02   0.00
  16   1    -0.00  -0.00  -0.36    -0.10  -0.19   0.00    -0.03  -0.01   0.00
  17   1     0.00   0.00   0.16     0.11   0.01  -0.00     0.22  -0.02  -0.00
                     16                     17                     18
                        a                      a                      a 
 Frequencies --   887.7072               916.1899               929.7919
 Red. masses --     3.4168                 5.3910                 4.2720
 Frc consts  --     0.0000                 0.0000                 0.0000
 IR Inten    --     0.1147                 0.5707                 0.0360
 Raman Activ --     0.0000                 0.0000                 0.0000
 Depolar     --     0.0000                 0.0000                 0.0000
 Atom AN      X      Y      Z        X      Y      Z        X      Y      Z
   1   6    -0.00   0.00  -0.03    -0.00  -0.00  -0.03    -0.00   0.00  -0.02
   2   6    -0.00  -0.00  -0.01    -0.00   0.00  -0.02    -0.00   0.00  -0.03
   3   6     0.00  -0.00   0.32     0.00   0.00   0.15     0.00  -0.00   0.07
   4   6     0.00   0.00   0.13    -0.00  -0.00  -0.20     0.00   0.00   0.03
   5   6    -0.00   0.00  -0.21    -0.00  -0.00  -0.15    -0.00   0.00  -0.28
   6   6    -0.00  -0.00  -0.23     0.00   0.00   0.16     0.00  -0.00   0.31
   7   6    -0.00   0.00   0.00     0.00  -0.00   0.20    -0.00   0.00  -0.14
   8   6     0.00   0.00   0.05    -0.00  -0.00  -0.47     0.00   0.00   0.29
   9   8    -0.00  -0.00  -0.02     0.00   0.00   0.14    -0.00  -0.00  -0.08
  10   1    -0.03  -0.04   0.01    -0.03  -0.04   0.01    -0.01  -0.02   0.01
  11   1    -0.00  -0.00   0.03     0.00  -0.00   0.03     0.00   0.00   0.00
  12   1     0.03   0.04   0.01     0.03   0.04   0.01     0.01   0.02   0.01
  13   1    -0.00   0.00  -0.62    -0.00   0.00  -0.24    -0.00  -0.00  -0.03
  14   1    -0.00   0.00  -0.21     0.00  -0.00   0.36    -0.00   0.00  -0.11
  15   1     0.00  -0.00   0.35     0.00  -0.00   0.25     0.00  -0.00   0.51
  16   1     0.00  -0.00   0.47    -0.00   0.00  -0.25    -0.00   0.00  -0.58
  17   1    -0.00  -0.00  -0.08     0.00   0.00   0.53    -0.00  -0.00  -0.31
                     19                     20                     21
                        a                      a                      a 
 Frequencies --   932.8901              1006.3934              1023.4004
 Red. masses --     4.3466                 4.5365                 4.7416
 Frc consts  --     0.0000                 0.0000                 0.0000
 IR Inten    --     0.0612                 0.9184                10.4821
 Raman Activ --     0.0000                 0.0000                 0.0000
 Depolar     --     0.0000                 0.0000                 0.0000
 Atom AN      X      Y      Z        X      Y      Z        X      Y      Z
   1   6    -0.00  -0.00  -0.02     0.33  -0.22  -0.00     0.00  -0.00   0.43
   2   6    -0.00   0.00  -0.02     0.06  -0.13  -0.00    -0.00   0.00  -0.38
   3   6    -0.00   0.00  -0.22    -0.20   0.25   0.00     0.00  -0.00   0.07
   4   6     0.00  -0.00   0.33    -0.03  -0.03   0.00    -0.00   0.00   0.04
   5   6    -0.00   0.00  -0.16    -0.00  -0.12  -0.00    -0.00  -0.00  -0.01
   6   6    -0.00   0.00  -0.08    -0.04   0.16   0.00     0.00  -0.00   0.02
   7   6     0.00  -0.00   0.20     0.00   0.02  -0.00     0.00  -0.00   0.05
   8   6    -0.00  -0.00  -0.26     0.00  -0.01   0.00    -0.00  -0.00  -0.04
   9   8     0.00   0.00   0.07     0.00  -0.01  -0.00    -0.00   0.00   0.01
  10   1    -0.02  -0.03   0.01     0.04   0.38   0.02     0.33   0.41  -0.14
  11   1     0.00  -0.00   0.02    -0.43  -0.39  -0.00     0.00   0.00  -0.23
  12   1     0.02   0.03   0.01     0.04   0.38  -0.02    -0.33  -0.41  -0.14
  13   1     0.00  -0.00   0.41    -0.11   0.05   0.00     0.00   0.00  -0.08
  14   1    -0.00   0.00  -0.58    -0.03  -0.13  -0.00    -0.00   0.00  -0.07
  15   1     0.00  -0.00   0.32     0.07  -0.09  -0.00    -0.00   0.00   0.01
  16   1     0.00   0.00   0.06     0.04   0.07  -0.00    -0.00  -0.00  -0.04
  17   1     0.00   0.00   0.29    -0.03   0.02  -0.00     0.00   0.00   0.05
                     22                     23                     24
                        a                      a                      a 
 Frequencies --  1096.1314              1112.3324              1179.6285
 Red. masses --     6.2251                 7.3390                 1.5882
 Frc consts  --     0.0000                 0.0000                 0.0000
 IR Inten    --     0.4733                10.6629                 0.7478
 Raman Activ --     0.0000                 0.0000                 0.0000
 Depolar     --     0.0000                 0.0000                 0.0000
 Atom AN      X      Y      Z        X      Y      Z        X      Y      Z
   1   6     0.06   0.07   0.00     0.04  -0.21  -0.00     0.01   0.06   0.00
   2   6    -0.07  -0.05   0.00    -0.01   0.29   0.00     0.04  -0.16  -0.00
   3   6    -0.10  -0.14   0.00     0.05  -0.37  -0.00    -0.03  -0.02   0.00
   4   6     0.38  -0.20  -0.00     0.04   0.04  -0.00     0.02  -0.07  -0.00
   5   6     0.15   0.32   0.00     0.02   0.22   0.00    -0.06   0.05   0.00
   6   6    -0.23   0.22   0.00     0.06  -0.24  -0.00    -0.03   0.08   0.00
   7   6     0.07  -0.14  -0.00    -0.29   0.27   0.00     0.05   0.01  -0.00
   8   6    -0.00   0.00   0.00     0.15   0.03  -0.00    -0.01  -0.00   0.00
   9   8    -0.03   0.02  -0.00     0.06  -0.07   0.00    -0.01   0.01  -0.00
  10   1     0.02   0.01   0.00    -0.02   0.07   0.02     0.01  -0.00  -0.00
  11   1     0.02   0.02  -0.00    -0.19  -0.18  -0.00     0.05   0.05   0.00
  12   1     0.02   0.01  -0.00    -0.02   0.07  -0.02     0.01  -0.00   0.00
  13   1    -0.31  -0.16   0.00    -0.24  -0.21   0.00     0.24   0.10  -0.00
  14   1     0.07  -0.29  -0.00     0.05   0.18   0.00    -0.08  -0.58  -0.00
  15   1    -0.01   0.14   0.00    -0.29   0.30   0.00    -0.47   0.38   0.00
  16   1    -0.52  -0.13   0.00     0.13  -0.02  -0.00     0.36   0.18  -0.00
  17   1    -0.04   0.03  -0.00     0.13  -0.06   0.00    -0.02   0.01  -0.00
                     25                     26                     27
                        a                      a                      a 
 Frequencies --  1205.2902              1241.7881              1264.4568
 Red. masses --     5.9322                 8.5473                 4.5805
 Frc consts  --     0.0000                 0.0000                 0.0000
 IR Inten    --    14.6088                62.1647                 5.2448
 Raman Activ --     0.0000                 0.0000                 0.0000
 Depolar     --     0.0000                 0.0000                 0.0000
 Atom AN      X      Y      Z        X      Y      Z        X      Y      Z
   1   6     0.10   0.14  -0.00     0.09   0.16   0.00     0.15   0.04  -0.00
   2   6    -0.18  -0.29   0.00    -0.21  -0.28  -0.00    -0.39  -0.12   0.00
   3   6    -0.21  -0.05   0.00     0.02  -0.13  -0.00    -0.09  -0.17  -0.00
   4   6     0.12   0.05  -0.00     0.16   0.02  -0.00     0.12  -0.10  -0.00
   5   6    -0.09  -0.04   0.00     0.09   0.20  -0.00     0.10  -0.08  -0.00
   6   6     0.16   0.10  -0.00    -0.17   0.16   0.00     0.06   0.05  -0.00
   7   6     0.37  -0.16  -0.00    -0.51  -0.21   0.00    -0.06   0.20   0.00
   8   6    -0.16  -0.05   0.00     0.26   0.07  -0.00    -0.01  -0.02  -0.00
   9   8    -0.04   0.05  -0.00     0.01  -0.07   0.00     0.03  -0.02  -0.00
  10   1     0.04   0.04  -0.00     0.02   0.04   0.00     0.02   0.14   0.01
  11   1     0.07   0.06  -0.00     0.07   0.07  -0.00     0.00  -0.00  -0.00
  12   1     0.04   0.04   0.00     0.02   0.04  -0.00     0.02   0.14  -0.01
  13   1    -0.32  -0.13   0.00     0.03  -0.03  -0.00     0.61   0.21  -0.00
  14   1     0.10   0.47   0.00     0.06   0.06  -0.00     0.08   0.27   0.00
  15   1    -0.24   0.16   0.00     0.28  -0.14  -0.00    -0.15   0.12   0.00
  16   1     0.25   0.11  -0.00     0.37   0.23  -0.00    -0.31  -0.12   0.00
  17   1    -0.15   0.07   0.00     0.05   0.01  -0.00     0.03  -0.03   0.00
                     28                     29                     30
                        a                      a                      a 
 Frequencies --  1321.0534              1391.8053              1401.3239
 Red. masses --    11.2306                 4.0638                 3.0955
 Frc consts  --     0.0000                 0.0000                 0.0000
 IR Inten    --     5.8055                34.9016                 5.8432
 Raman Activ --     0.0000                 0.0000                 0.0000
 Depolar     --     0.0000                 0.0000                 0.0000
 Atom AN      X      Y      Z        X      Y      Z        X      Y      Z
   1   6     0.04  -0.07  -0.00     0.06   0.12   0.00    -0.30  -0.30   0.00
   2   6    -0.30   0.30   0.00    -0.14  -0.11   0.00    -0.01   0.04   0.00
   3   6     0.36   0.16  -0.00     0.13   0.06  -0.00     0.04  -0.01  -0.00
   4   6    -0.09  -0.38  -0.00     0.01  -0.09  -0.00     0.00  -0.01  -0.00
   5   6    -0.29   0.21   0.00    -0.17   0.09   0.00    -0.05   0.04   0.00
   6   6     0.37   0.13  -0.00     0.13   0.02  -0.00     0.02  -0.02  -0.00
   7   6    -0.03  -0.38  -0.00     0.02  -0.07   0.00     0.01  -0.00  -0.00
   8   6     0.08   0.02  -0.00    -0.27  -0.04   0.00    -0.03  -0.00   0.00
   9   8    -0.04  -0.05   0.00     0.05   0.22  -0.00     0.01   0.02  -0.00
  10   1    -0.05   0.05   0.04     0.04  -0.05  -0.02     0.31   0.38  -0.25
  11   1    -0.05  -0.05  -0.00    -0.11  -0.06   0.00     0.37   0.23  -0.00
  12   1    -0.05   0.05  -0.04     0.04  -0.05   0.02     0.31   0.38   0.25
  13   1     0.04   0.02  -0.00    -0.06  -0.02   0.00    -0.04  -0.02   0.00
  14   1    -0.01   0.01   0.00    -0.00  -0.04  -0.00    -0.00  -0.03  -0.00
  15   1    -0.04   0.02   0.00     0.02  -0.03  -0.00     0.02  -0.02  -0.00
  16   1     0.00  -0.01   0.00     0.01  -0.01   0.00     0.01  -0.01  -0.00
  17   1    -0.18   0.14  -0.00     0.65  -0.53  -0.00     0.06  -0.05  -0.00
                     31                     32                     33
                        a                      a                      a 
 Frequencies --  1428.3694              1471.0677              1482.1582
 Red. masses --     8.9596                 9.1570                 1.5654
 Frc consts  --     0.0000                 0.0000                 0.0000
 IR Inten    --    32.2236                15.0568                 6.3383
 Raman Activ --     0.0000                 0.0000                 0.0000
 Depolar     --     0.0000                 0.0000                 0.0000
 Atom AN      X      Y      Z        X      Y      Z        X      Y      Z
   1   6     0.12  -0.04  -0.00    -0.06  -0.07   0.00    -0.00   0.00  -0.22
   2   6    -0.35   0.08   0.00     0.15   0.40   0.00    -0.00  -0.00  -0.04
   3   6     0.05  -0.24  -0.00    -0.34  -0.05   0.00     0.00  -0.00  -0.00
   4   6     0.23   0.26  -0.00     0.11  -0.29  -0.00     0.00   0.00   0.00
   5   6    -0.33   0.17   0.00     0.09   0.23   0.00    -0.00   0.00   0.00
   6   6    -0.07  -0.29  -0.00    -0.35  -0.09   0.00     0.00  -0.00   0.00
   7   6     0.36   0.19  -0.00     0.26  -0.27  -0.00    -0.00   0.00   0.00
   8   6    -0.09  -0.02   0.00    -0.06   0.01   0.00     0.00   0.00   0.00
   9   8     0.01  -0.02   0.00    -0.02   0.06  -0.00    -0.00  -0.00  -0.00
  10   1    -0.09   0.09   0.08     0.06  -0.05  -0.05    -0.14   0.44   0.08
  11   1     0.01  -0.01  -0.00    -0.11  -0.09   0.00     0.00  -0.00   0.72
  12   1    -0.09   0.09  -0.08     0.06  -0.05   0.05     0.14  -0.44   0.08
  13   1     0.06  -0.05  -0.00     0.27   0.14  -0.00     0.00  -0.00   0.00
  14   1     0.01  -0.27  -0.00     0.08   0.19   0.00     0.00  -0.00  -0.00
  15   1     0.26  -0.23  -0.00     0.10   0.02  -0.00     0.00  -0.00  -0.00
  16   1     0.15  -0.01  -0.00     0.23   0.12  -0.00    -0.00  -0.00  -0.00
  17   1    -0.09   0.05   0.00     0.07  -0.06  -0.00    -0.00   0.00  -0.01
                     34                     35                     36
                        a                      a                      a 
 Frequencies --  1492.3222              1574.0986              1593.5436
 Red. masses --     2.2290                11.4537                11.4608
 Frc consts  --     0.0000                 0.0000                 0.0000
 IR Inten    --     9.5121                11.3950                51.2080
 Raman Activ --     0.0000                 0.0000                 0.0000
 Depolar     --     0.0000                 0.0000                 0.0000
 Atom AN      X      Y      Z        X      Y      Z        X      Y      Z
   1   6     0.08  -0.21  -0.00    -0.02   0.03   0.00     0.03   0.03   0.00
   2   6     0.11   0.05  -0.00     0.27  -0.35  -0.00    -0.32  -0.08   0.00
   3   6    -0.02   0.05   0.00    -0.09   0.20   0.00     0.47   0.21  -0.00
   4   6    -0.05  -0.07   0.00     0.04  -0.48  -0.00    -0.22  -0.23   0.00
   5   6     0.11  -0.01  -0.00    -0.29   0.38   0.00     0.35  -0.03  -0.00
   6   6    -0.10   0.02   0.00     0.07  -0.19  -0.00    -0.48  -0.14   0.00
   7   6     0.01  -0.08  -0.00    -0.05   0.44   0.00     0.21   0.20  -0.00
   8   6    -0.05  -0.01   0.00     0.01  -0.02  -0.00    -0.05   0.06  -0.00
   9   8     0.01   0.05  -0.00     0.02  -0.03   0.00     0.03  -0.06   0.00
  10   1    -0.42   0.24   0.30    -0.03  -0.02   0.02     0.04   0.01  -0.03
  11   1     0.37   0.22   0.00     0.06   0.05  -0.00    -0.03  -0.02  -0.00
  12   1    -0.42   0.24  -0.30    -0.03  -0.02  -0.02     0.04   0.01   0.03
  13   1    -0.03   0.01   0.00    -0.01   0.06   0.00    -0.12  -0.04   0.00
  14   1    -0.00   0.06   0.00     0.05   0.11  -0.00    -0.04   0.08   0.00
  15   1    -0.03   0.04   0.00     0.10  -0.04  -0.00    -0.03   0.09   0.00
  16   1     0.03   0.03  -0.00     0.03  -0.05  -0.00     0.09   0.06  -0.00
  17   1     0.15  -0.12  -0.00    -0.08   0.06   0.00    -0.02   0.02   0.00
                     37                     38                     39
                        a                      a                      a 
 Frequencies --  1732.7988              2792.4244              3012.0894
 Red. masses --    13.4621                 1.6813                 1.9421
 Frc consts  --     0.0000                 0.0000                 0.0000
 IR Inten    --   370.8018               109.6485                19.1507
 Raman Activ --     0.0000                 0.0000                 0.0000
 Depolar     --     0.0000                 0.0000                 0.0000
 Atom AN      X      Y      Z        X      Y      Z        X      Y      Z
   1   6     0.00  -0.00  -0.00     0.01  -0.00  -0.00     0.00  -0.00  -0.29
   2   6    -0.05   0.02   0.00    -0.00  -0.00  -0.00     0.00   0.00  -0.01
   3   6     0.05   0.01  -0.00    -0.00   0.00   0.00    -0.00   0.00  -0.00
   4   6    -0.02  -0.01   0.00    -0.00   0.00  -0.00    -0.00   0.00   0.00
   5   6     0.03  -0.00  -0.00     0.00  -0.00  -0.00    -0.00  -0.00   0.00
   6   6    -0.05  -0.04   0.00    -0.00   0.00   0.00     0.00  -0.00  -0.00
   7   6    -0.01   0.06  -0.00    -0.01  -0.01   0.00     0.00  -0.00   0.00
   8   6     0.34  -0.69   0.00    -0.16  -0.19   0.00     0.00   0.00  -0.00
   9   8    -0.25   0.57  -0.00     0.00  -0.03   0.00    -0.00  -0.00   0.00
  10   1     0.00   0.00  -0.00    -0.00  -0.00  -0.01     0.41  -0.01   0.53
  11   1    -0.00  -0.00  -0.00    -0.00   0.01   0.00    -0.00   0.00  -0.04
  12   1     0.00   0.00   0.00    -0.00  -0.00   0.01    -0.41   0.01   0.54
  13   1    -0.01  -0.00   0.00     0.00  -0.00   0.00     0.00  -0.00  -0.00
  14   1    -0.00   0.00  -0.00     0.00   0.00  -0.00     0.00  -0.00  -0.00
  15   1     0.00   0.00  -0.00    -0.00   0.00   0.00     0.00   0.00  -0.00
  16   1     0.02   0.00  -0.00     0.00   0.00  -0.00    -0.00   0.00  -0.00
  17   1    -0.08  -0.01   0.00     0.57   0.79  -0.00    -0.00  -0.00  -0.00
                     40                     41                     42
                        a                      a                      a 
 Frequencies --  3021.1546              3044.6147              3072.7879
 Red. masses --     1.5998                 1.6012                 1.7804
 Frc consts  --     0.0000                 0.0000                 0.0000
 IR Inten    --    13.4763                14.9688                15.4947
 Raman Activ --     0.0000                 0.0000                 0.0000
 Depolar     --     0.0000                 0.0000                 0.0000
 Atom AN      X      Y      Z        X      Y      Z        X      Y      Z
   1   6     0.23  -0.04   0.00     0.10  -0.21  -0.00    -0.01   0.01   0.00
   2   6     0.01   0.00   0.00     0.00  -0.01  -0.00     0.00   0.01   0.00
   3   6    -0.00   0.01   0.00    -0.01   0.02   0.00    -0.09   0.22   0.00
   4   6    -0.00  -0.00  -0.00     0.00  -0.00  -0.00     0.12  -0.02  -0.00
   5   6    -0.00   0.00   0.00    -0.00  -0.00   0.00    -0.01  -0.02   0.00
   6   6     0.00  -0.00  -0.00     0.00   0.00  -0.00    -0.00   0.00   0.00
   7   6    -0.00  -0.00  -0.00    -0.00   0.00   0.00    -0.00  -0.00   0.00
   8   6     0.00   0.00  -0.00     0.00   0.00  -0.00     0.00   0.00  -0.00
   9   8    -0.00  -0.00   0.00    -0.00  -0.00   0.00    -0.00   0.00  -0.00
  10   1    -0.37  -0.00  -0.57     0.09  -0.03   0.10    -0.00   0.00   0.00
  11   1    -0.07   0.13   0.00    -0.54   0.79   0.00     0.04  -0.06  -0.00
  12   1    -0.37  -0.00   0.57     0.09  -0.03  -0.10    -0.00   0.00  -0.00
  13   1     0.01  -0.02  -0.00     0.03  -0.07  -0.00     0.32  -0.78  -0.00
  14   1     0.00  -0.00   0.00    -0.01   0.00   0.00    -0.45   0.07   0.00
  15   1    -0.00  -0.00   0.00     0.00   0.00  -0.00     0.07   0.09  -0.00
  16   1    -0.00   0.00   0.00     0.00  -0.00   0.00     0.01  -0.02  -0.00
  17   1    -0.01  -0.01   0.00    -0.00  -0.00   0.00    -0.00  -0.00   0.00
                     43                     44                     45
                        a                      a                      a 
 Frequencies --  3083.3331              3090.2408              3098.3851
 Red. masses --     1.8019                 1.8390                 1.9110
 Frc consts  --     0.0000                 0.0000                 0.0000
 IR Inten    --    22.7882                24.9896                30.2815
 Raman Activ --     0.0000                 0.0000                 0.0000
 Depolar     --     0.0000                 0.0000                 0.0000
 Atom AN      X      Y      Z        X      Y      Z        X      Y      Z
   1   6    -0.00   0.00   0.00    -0.00   0.00   0.00     0.00  -0.00  -0.00
   2   6     0.00   0.00  -0.00     0.00   0.00  -0.00    -0.00  -0.00  -0.00
   3   6    -0.05   0.11   0.00    -0.03   0.06   0.00     0.01  -0.03  -0.00
   4   6    -0.16   0.03   0.00    -0.15   0.02   0.00     0.10  -0.02  -0.00
   5   6     0.10   0.13  -0.00    -0.05  -0.07   0.00     0.12   0.16  -0.00
   6   6     0.03  -0.07  -0.00    -0.08   0.18   0.00    -0.07   0.16   0.00
   7   6     0.00  -0.00  -0.00    -0.00   0.00   0.00    -0.00   0.00   0.00
   8   6     0.00  -0.00   0.00     0.00   0.00  -0.00    -0.00   0.00  -0.00
   9   8    -0.00   0.00  -0.00     0.00  -0.00   0.00     0.00  -0.00   0.00
  10   1     0.00   0.00   0.00    -0.00   0.00  -0.00    -0.00  -0.00  -0.00
  11   1     0.01  -0.02  -0.00     0.01  -0.01  -0.00    -0.00   0.01   0.00
  12   1     0.00   0.00  -0.00    -0.00   0.00   0.00    -0.00  -0.00   0.00
  13   1     0.15  -0.36  -0.00     0.09  -0.21  -0.00    -0.04   0.10   0.00
  14   1     0.57  -0.09  -0.00     0.52  -0.08  -0.00    -0.33   0.05   0.00
  15   1    -0.38  -0.47   0.00     0.20   0.25  -0.00    -0.41  -0.52   0.00
  16   1    -0.11   0.26   0.00     0.27  -0.65  -0.00     0.23  -0.54  -0.00
  17   1     0.00  -0.00  -0.00    -0.00  -0.00  -0.00     0.00   0.00  -0.00
