      -----------------------------------------------------------      
     |                   =====================                   |     
     |                           x T B                           |     
     |                   =====================                   |     
     |                         S. Grimme                         |     
     |          Mulliken Center for Theoretical Chemistry        |     
     |                    University of Bonn                     |     
      -----------------------------------------------------------      

   * xtb version 6.7.1 (edcfbbe) compiled by 'albert@albert-system' on 2024-07-22

   xtb is free software: you can redistribute it and/or modify it under
   the terms of the GNU Lesser General Public License as published by
   the Free Software Foundation, either version 3 of the License, or
   (at your option) any later version.
   
   xtb is distributed in the hope that it will be useful,
   but WITHOUT ANY WARRANTY; without even the implied warranty of
   MERCHANTABILITY or FITNESS FOR A PARTICULAR PURPOSE.  See the
   GNU Lesser General Public License for more details.
   
   Cite this work as:
   * C. Bannwarth, E. Caldeweyher, S. Ehlert, A. Hansen, P. Pracht,
     J. Seibert, S. Spicher, S. Grimme, WIREs Comput. Mol. Sci., 2020, 11,
     e01493. DOI: 10.1002/wcms.1493
   
   for GFN2-xTB:
   * C. Bannwarth, S. Ehlert and S. Grimme., J. Chem. Theory Comput., 2019,
     15, 1652-1671. DOI: 10.1021/acs.jctc.8b01176
   for GFN1-xTB:
   * S. Grimme, C. Bannwarth, P. Shushkov, J. Chem. Theory Comput., 2017,
     13, 1989-2009. DOI: 10.1021/acs.jctc.7b00118
   for GFN0-xTB:
   * P. Pracht, E. Caldeweyher, S. Ehlert, S. Grimme, ChemRxiv, 2019, preprint.
     DOI: 10.26434/chemrxiv.8326202.v1
   for GFN-FF:
   * S. Spicher and S. Grimme, Angew. Chem. Int. Ed., 2020, 59, 15665-15673.
     DOI: 10.1002/anie.202004239
   
   for ALPB and GBSA implicit solvation:
   * S. Ehlert, M. Stahn, S. Spicher, S. Grimme, J. Chem. Theory Comput.,
     2021, 17, 4250-4261. DOI: 10.1021/acs.jctc.1c00471
   
   for ddCOSMO and CPCM-X implicit solvation:
   * M. Stahn, S. Ehlert, S. Grimme, J. Phys. Chem. A,
     2023, XX, XXXX-XXXX. DOI: 10.1021/acs.jpca.3c04382
   
   for DFT-D4:
   * E. Caldeweyher, C. Bannwarth and S. Grimme, J. Chem. Phys., 2017,
     147, 034112. DOI: 10.1063/1.4993215
   * E. Caldeweyher, S. Ehlert, A. Hansen, H. Neugebauer, S. Spicher,
     C. Bannwarth and S. Grimme, J. Chem. Phys., 2019, 150, 154122.
     DOI: 10.1063/1.5090222
   * E. Caldeweyher, J.-M. Mewes, S. Ehlert and S. Grimme, Phys. Chem. Chem. Phys.
     2020, 22, 8499-8512. DOI: 10.1039/D0CP00502A
   
   for sTDA-xTB:
   * S. Grimme and C. Bannwarth, J. Chem. Phys., 2016, 145, 054103.
     DOI: 10.1063/1.4959605
   
   in the mass-spec context:
   * V. Asgeirsson, C. Bauer and S. Grimme, Chem. Sci., 2017, 8, 4879.
     DOI: 10.1039/c7sc00601b
   * J. Koopman and S. Grimme, ACS Omega 2019, 4, 12, 15120-15133.
     DOI: 10.1021/acsomega.9b02011
   
   for metadynamics refer to:
   * S. Grimme, J. Chem. Theory Comput., 2019, 155, 2847-2862
     DOI: 10.1021/acs.jctc.9b00143
   
   for SPH calculations refer to:
   * S. Spicher and S. Grimme, J. Chem. Theory Comput., 2021, 17, 1701-1714
     DOI: 10.1021/acs.jctc.0c01306
   
   for ONIOM refer to:
   * C. Plett, A. Katbashev, S. Ehlert, S. Grimme, M. Bursch,
     Phys. Chem. Chem. Phys., 2023, 25, 17860-17868. DOI: 10.1039/D3CP02178E
   
   for DIPRO refer to:
   * J. Kohn, N. Gildemeister, S. Grimme, D. Fazzi, A. Hansen,
     J. Chem. Phys., 2023, just accepted.
   
   for PTB refer to:
   * S. Grimme, M. Mueller, A. Hansen, J. Chem. Phys., 2023, 158, 124111.
     DOI: 10.1063/5.0137838
   
   with help from (in alphabetical order)
   P. Atkinson, C. Bannwarth, F. Bohle, G. Brandenburg, E. Caldeweyher
   M. Checinski, S. Dohm, S. Ehlert, S. Ehrlich, I. Gerasimov, C. Hölzer
   A. Katbashev, J. Kohn, J. Koopman, C. Lavigne, S. Lehtola, F. März, M. Müller,
   F. Musil, H. Neugebauer, J. Pisarek, C. Plett, P. Pracht, F. Pultar,
   J. Seibert, P. Shushkov, S. Spicher, M. Stahn, M. Steiner, T. Strunk,
   J. Stückrath, T. Rose, and J. Unsleber
   
 * started run on 2025/04/15 at 19:54:59.886     
   ID    Z sym.   atoms
    1    6 C      1-9
    2    1 H      10-21

           -------------------------------------------------
          |                Calculation Setup                |
           -------------------------------------------------

          program call               : /software/projects/pawsey0265/mwang1/xtb/bin/xtb xtb_opt.coord --opt normal --orca -I xtb_opt-xcontrol-inp
          hostname                   : nid002793
          coordinate file            : xtb_opt.coord
          omp threads                :                    16

           -------------------------------------------------
          |                   Orca driver                   |
           -------------------------------------------------
orca executable           : /software/projects/pawsey0265/mwang1/orca_avx2/orca
orca input file           : xtb_opt.inp
orca input line           : 
orca parallel             : true
orca number of threads    : 16
                         * ORCA takes the control...
  ------------------------------------------------------------------------

                                 *****************
                                 * O   R   C   A *
                                 *****************

                                            #,                                       
                                            ###                                      
                                            ####                                     
                                            #####                                    
                                            ######                                   
                                           ########,                                 
                                     ,,################,,,,,                         
                               ,,#################################,,                 
                          ,,##########################################,,             
                       ,#########################################, ''#####,          
                    ,#############################################,,   '####,        
                  ,##################################################,,,,####,       
                ,###########''''           ''''###############################       
              ,#####''   ,,,,##########,,,,          '''####'''          '####       
            ,##' ,,,,###########################,,,                        '##       
           ' ,,###''''                  '''############,,,                           
         ,,##''                                '''############,,,,        ,,,,,,###''
      ,#''                                            '''#######################'''  
     '                                                          ''''####''''         
             ,#######,   #######,   ,#######,      ##                                
            ,#'     '#,  ##    ##  ,#'     '#,    #''#        ,####,   ,####,        
            ##       ##  ##   ,#'  ##            #'  '#       #'       #'  '#        
            ##       ##  #######   ##           ,######,      #####,   #    #        
            '#,     ,#'  ##    ##  '#,     ,#' ,#      #,     #,   #   #,  ,#        
             '#######'   ##     ##  '#######'  #'      '#     '####' # '####'        



                #########################################################
                #                        -***-                          #
                #          Department of theory and spectroscopy        #
                #                                                       #
                #                      Frank Neese                      #
                #                                                       #
                #     Directorship, Architecture, Infrastructure        #
                #                    SHARK, DRIVERS                     #
                #        Core code/Algorithms in most modules           #
                #                                                       #
                #        Max Planck Institute fuer Kohlenforschung      #
                #                Kaiser Wilhelm Platz 1                 #
                #                 D-45470 Muelheim/Ruhr                 #
                #                      Germany                          #
                #                                                       #
                #                  All rights reserved                  #
                #                        -***-                          #
                #########################################################


                         Program Version 6.0.1  -  RELEASE   -


 With contributions from (in alphabetic order):
[Max-Planck-Institut fuer Kohlenforschung]                               
  Daniel Aravena         : Magnetic Suceptibility                        
  Michael Atanasov       : Ab Initio Ligand Field Theory (pilot matlab implementation)
  Alexander A. Auer      : GIAO ZORA, VPT2 properties, NMR spectrum      
  Ute Becker             : All parallelization in ORCA, NUMFREQ, NUMCALC 
  Giovanni Bistoni       : ED, misc. LED, open-shell LED, HFLD           
  Martin Brehm           : Molecular dynamics                            
  Dmytro Bykov           : pre 5.0 version of the SCF Hessian            
  Marcos Casanova-Páez   : Triplet and SCS-CIS(D). UHF-(DLPNO)-IP/EA/STEOM-CCSD. UHF-CVS-IP/STEOM-CCSD   
  Vijay G. Chilkuri      : MRCI spin determinant printing, contributions to CSF-ICE 
  Pauline Colinet        : FMM embedding                                 
  Dipayan Datta          : RHF DLPNO-CCSD density                        
  Achintya Kumar Dutta   : EOM-CC, STEOM-CC                              
  Nicolas Foglia         : Exact transition moments, OPA infrastructure, MCD improvements    
  Dmitry Ganyushin       : Spin-Orbit,Spin-Spin,Magnetic field MRCI      
  Miquel Garcia-Rates    : C-PCM and meta-GGA Hessian, CCSD/C-PCM, Gaussian charge scheme 
  Tiago L. C. Gouveia    : GS-ROHF, GS-ROCIS                             
  Yang Guo               : DLPNO-NEVPT2, F12-NEVPT2, CIM, IAO-localization        
  Andreas Hansen         : Spin unrestricted coupled pair/coupled cluster methods 
  Ingolf Harden          : AUTO-CI MPn and infrastructure                
  Benjamin Helmich-Paris : MC-RPA, TRAH-(SCF,CASSCF), AVAS, COSX integrals, SCF dyn. polar. 
  Lee Huntington         : MR-EOM, pCC                                   
  Robert Izsak           : Overlap fitted RIJCOSX, COSX-SCS-MP3, EOM     
  Riya Kayal             : Wick's Theorem for AUTO-CI, AUTO-CI UHF-CCSDT 
  Emily Kempfer          : AUTO-CI, RHF CISDT and CCSDT                  
  Christian Kollmar      : KDIIS, OOCD, Brueckner-CCSD(T), CCSD density, CASPT2, CASPT2-K, improved NEVPT2 
  Axel Koslowski         : Symmetry handling                             
  Simone Kossmann        : meta-GGA functionals, TD-DFT gradient, OOMP2, (MP2 Hessian; deprecated post 5.0) 
  Lucas Lang             : DCDCAS                                        
  Marvin Lechner         : AUTO-CI (C++ implementation), FIC-MRCC        
  Spencer Leger          : CASSCF response                               
  Dagmar Lenk            : GEPOL surface, SMD, ORCA-2-JSON               
  Dimitrios Liakos       : Extrapolation schemes; Compound Job, initial MDCI parallelization 
  Dimitrios Manganas     : Further ROCIS development; embedding schemes. LFT, Crystal Embedding 
  Dimitrios Pantazis     : SARC Basis sets                               
  Anastasios Papadopoulos: AUTO-CI, single reference methods and gradients 
  Taras Petrenko         : pre 6.0 DFT Hessian and TD-DFT gradient, (ASA, deprecated), ECA, 1-Electron XAS/XES, NRVS 
  Peter Pinski           : DLPNO-MP2, DLPNO-MP2 Gradient                 
  Christoph Reimann      : Effective Core Potentials                     
  Marius Retegan         : Local ZFS, SOC                                
  Christoph Riplinger    : Optimizer, TS searches, QM/MM, DLPNO-CCSD(T), (RO)-DLPNO pert. Triples 
  Michael Roemelt        : Original ROCIS implementation                 
  Masaaki Saitow         : Open-shell DLPNO-CCSD energy and density      
  Barbara Sandhoefer     : DKH picture change effects                    
  Kantharuban Sivalingam : CASSCF convergence/infrastructure, NEVPT2 and variants, FIC-MRCI 
  Bernardo de Souza      : ESD, SOC TD-DFT                               
  Georgi L. Stoychev     : AutoAux, RI-MP2 NMR, DLPNO-MP2 response, X2C  
  Van Anh Tran           : RI-MP2 g-tensors                              
  Willem Van den Heuvel  : Paramagnetic NMR                              
  Zikuan Wang            : NOTCH, Electric field optimization            
  Frank Wennmohs         : Technical directorship and infrastructure     
  Hang Xu                : AUTO-CI-Response properties                   
                                                                         
[FACCTs GmbH]                                                            
  Markus Bursch, Miquel Garcia-Rates, Christoph Riplinger, Bernardo de Souza, Georgi L. Stoychev 
                                                                 
  APM, Basis sets (HGBS, AHGBS, def-TZVP (Ac-Lr), def2-XVPD (La-Lu)), CI-OPT, improved COSX, DLPNO-Multilevel,           
  DOCKER, DRACO, updates on ESD, GOAT, IRC, LR-CPCM, MBIS, meta-GGA TD-DFT gradient, ML-optimized integration grids, 
  MM, NACMEs, nearIR, NEB, NEB-TS, NL-DFT gradient (VV10), 2- and 3-layer-ONIOM, interface openCOSMO-RS, QMMM,   
  Crystal-QMMM, SF, symmetry and pop. for TD-DFT, r2SCAN hybrids, SOLVATOR                                   
                                                                         
[Other institutions]                                                     
  V. Asgeirsson          : NEB                                           
  Christoph Bannwarth    : sTDA-DFT, sTD-DFT, PBEh-3c, B97-3c, D3        
  Sebastian Ehlert       : rSCAN, r2SCAN, r2SCAN-3c, D4, dhf basis sets  
  Marvin Friede          : D4 for Fr, Ra, Ac-Lr                          
  Lars Goerigk           : TD-DFT with DH, B97 family of functionals     
  Stefan Grimme          : VdW corrections, initial TS optimization, DFT functionals, gCP, sTDA/sTD-DF 
  Waldemar Hujo          : DFT-NL                                        
  H. Jonsson             : NEB                                           
  Holger Kruse           : gCP                                           
  Marcel Mueller         : wB97X-3c, vDZP basis set                      
  Hagen Neugebauer       : wr2SCAN                                       
  Tobias Risthaus        : range-separated hybrid DFT                    
  Lukas Wittmann         : regularized MP2, r2SCAN double-hybrids, wr2SCAN        
                                                                         
We gratefully acknowledge several colleagues who have allowed us to      
interface, adapt or use parts of their codes:                            
  Ed Valeev, F. Pavosevic, A. Kumar             : LibInt (2-el integral package), F12 methods 
  Garnet Chan, S. Sharma, J. Yang, R. Olivares  : DMRG                   
  Ulf Ekstrom                                   : XCFun DFT Library      
  Mihaly Kallay                                 : mrcc  (arbitrary order and MRCC methods)
  Frank Weinhold                                : gennbo (NPA and NBO analysis)           
  Simon Mueller                                 : openCOSMO-RS                            
  Christopher J. Cramer and Donald G. Truhlar   : smd solvation model                     
  S Lehtola, MJT Oliveira, MAL Marques          : LibXC Library                           
  Liviu Ungur et al                             : ANISO software                          


 Your calculation uses the libint2 library for the computation of 2-el integrals
 For citations please refer to: http://libint.valeyev.net

 Your ORCA version has been built with support for libXC version: 6.2.2
 For citations please refer to: https://libxc.gitlab.io

 This ORCA versions uses:
   CBLAS   interface :  Fast vector & matrix operations
   LAPACKE interface :  Fast linear algebra routines
   SCALAPACK package :  Parallel linear algebra routines
   Shared memory     :  Shared parallel matrices
   BLAS/LAPACK       :  OpenBLAS 0.3.27  USE64BITINT DYNAMIC_ARCH NO_AFFINITY Zen SINGLE_THREADED
        Core in use  :  Zen
   Copyright (c) 2011-2014, The OpenBLAS Project




***************************************
The coordinates will be read from file: xtb_opt.xyz
***************************************


Your calculation utilizes the geometrical counterpoise correction gCP
Please cite in your paper:
H.Kruse, S. Grimme J.Chem.Phys., 136, (2012), 154101 
   

Your calculation utilizes the atom-pairwise dispersion correction
based on EEQ partial charges (D4)


================================================================================

----- Orbital basis set information -----
Your calculation utilizes the basis: def2-mTZVPP
   Stefan Grimme, Andreas Hansen, Sebastian Ehlert, and Jan-Michael Mewes 
   J. Chem. Phys. 154, 064103 (2021). DOI: 10.1063/5.0040021

----- AuxJ basis set information -----
Your calculation utilizes the auxiliary basis: def2/J
   F. Weigend, Phys. Chem. Chem. Phys. 8, 1057 (2006).

================================================================================
                                        WARNINGS
                       Please study these warnings very carefully!
================================================================================

WARNING: Old DensityContainer found on disk!
         Will remove this file - 
         If you want to keep old densities, please start your calculation with a different basename. 



WARNING: SCAN, rSCAN, or r2SCAN functional requested.
  ===> : libXC variant has now been activated.



================================================================================
                                       INPUT FILE
================================================================================
NAME = xtb_opt.inp
|  1> ! r2scan-3c def2/J RI DEFGRID2 scfconv7 ENGRAD tightSCF miniprint
|  2> * xyzfile 0 1 xtb_opt.xyz
|  3> 
|  4>                          ****END OF INPUT****
================================================================================

                     *******************************
                     * Energy+Gradient Calculation *
                     *******************************

---------------------------------
CARTESIAN COORDINATES (ANGSTROEM)
---------------------------------
  C     -2.681092   -0.597518    0.730113
  C     -1.860493   -0.488977   -0.562611
  C     -0.386350   -0.324050   -0.289965
  C      0.430376   -1.454784   -0.223550
  C      1.788494   -1.355515    0.058971
  C      2.349463   -0.104144    0.285831
  C      1.544088    1.027448    0.233091
  C      0.179853    0.940706   -0.053317
  C     -0.636442    2.203487   -0.148340
  H     -3.748528   -0.694243    0.511010
  H     -2.540652    0.282126    1.366156
  H     -2.367287   -1.471072    1.308199
  H     -2.230571    0.346002   -1.165388
  H     -2.012440   -1.395398   -1.158430
  H     -0.010877   -2.432715   -0.402158
  H      2.403083   -2.249133    0.097712
  H      3.408269   -0.007111    0.502631
  H      1.981233    2.006329    0.411751
  H     -0.811018    2.478450   -1.196773
  H     -1.617084    2.106261    0.326754
  H     -0.112904    3.036082    0.330894

----------------------------
CARTESIAN COORDINATES (A.U.)
----------------------------
  NO LB      ZA    FRAG     MASS         X           Y           Z
   0 C     6.0000    0    12.011   -5.066529   -1.129146    1.379714
   1 C     6.0000    0    12.011   -3.515822   -0.924033   -1.063181
   2 C     6.0000    0    12.011   -0.730095   -0.612366   -0.547955
   3 C     6.0000    0    12.011    0.813293   -2.749143   -0.422448
   4 C     6.0000    0    12.011    3.379764   -2.561552    0.111439
   5 C     6.0000    0    12.011    4.439842   -0.196804    0.540143
   6 C     6.0000    0    12.011    2.917904    1.941596    0.440478
   7 C     6.0000    0    12.011    0.339873    1.777677   -0.100754
   8 C     6.0000    0    12.011   -1.202701    4.163987   -0.280323
   9 H     1.0000    0     1.008   -7.083692   -1.311929    0.965669
  10 H     1.0000    0     1.008   -4.801136    0.533140    2.581660
  11 H     1.0000    0     1.008   -4.473523   -2.779924    2.472138
  12 H     1.0000    0     1.008   -4.215168    0.653849   -2.202265
  13 H     1.0000    0     1.008   -3.802961   -2.636920   -2.189115
  14 H     1.0000    0     1.008   -0.020554   -4.597164   -0.759968
  15 H     1.0000    0     1.008    4.541169   -4.250246    0.184649
  16 H     1.0000    0     1.008    6.440696   -0.013437    0.949836
  17 H     1.0000    0     1.008    3.743987    3.791412    0.778097
  18 H     1.0000    0     1.008   -1.532602    4.683592   -2.261573
  19 H     1.0000    0     1.008   -3.055846    3.980256    0.617476
  20 H     1.0000    0     1.008   -0.213357    5.737363    0.625299

------------------------------------------------------------------------------
                   ___                                                        
                  /   \      - P O W E R E D   B Y -                         
                 /     \                                                     
                 |  |  |   _    _      __       _____    __    __             
                 |  |  |  | |  | |    /  \     |  _  \  |  |  /  |          
                  \  \/   | |  | |   /    \    | | | |  |  | /  /          
                 / \  \   | |__| |  /  /\  \   | |_| |  |  |/  /          
                |  |  |   |  __  | /  /__\  \  |    /   |      \           
                |  |  |   | |  | | |   __   |  |    \   |  |\   \          
                \     /   | |  | | |  |  |  |  | |\  \  |  | \   \       
                 \___/    |_|  |_| |__|  |__|  |_| \__\ |__|  \__/        
                                                                              
                      - O R C A' S   B I G   F R I E N D -                    
                                      &                                       
                       - I N T E G R A L  F E E D E R -                       
                                                                              
 v1 FN, 2020, v2 2021, v3 2022-2024                                           
------------------------------------------------------------------------------


----------------------
SHARK INTEGRAL PACKAGE
----------------------

Number of atoms                             ...     21
Number of basis functions                   ...    231
Number of shells                            ...    117
Maximum angular momentum                    ...      2
Integral batch strategy                     ... SHARK/LIBINT Hybrid
RI-J (if used) integral strategy            ... SPLIT-RIJ (Revised 2003 algorithm where possible)
Printlevel                                  ...      1
Contraction scheme used                     ... SEGMENTED contraction
Prescreening option                         ... SCHWARTZ
   Thresh                                   ... 3.000e-11
   Tcut                                     ... 1.000e-12
   Tpresel                                  ... 1.000e-12 
Coulomb Range Separation                    ... NOT USED
Exchange Range Separation                   ... NOT USED
Multipole approximations                    ... NOT USED
Finite Nucleus Model                        ... NOT USED
CABS basis                                  ... NOT available
Auxiliary Coulomb fitting basis             ... AVAILABLE
   # of basis functions in Aux-J            ...    573
   # of shells in Aux-J                     ...    195
   Maximum angular momentum in Aux-J        ...      4
Auxiliary J/K fitting basis                 ... NOT available
Auxiliary Correlation fitting basis         ... NOT available
Auxiliary 'external' fitting basis          ... NOT available

Checking pre-screening integrals            ... done (  0.0 sec) Dimension = 117
Check shell pair data                       ... done (  0.0 sec)
Shell pair information
Shell pair cut-off parameter TPreSel        ...   1.0e-12
Total number of shell pairs                 ...      6903
Shell pairs after pre-screening             ...      6231
Total number of primitive shell pairs       ...     24987
Primitive shell pairs kept                  ...     15924
          la=0 lb=0:   2144 shell pairs
          la=1 lb=0:   2426 shell pairs
          la=1 lb=1:    720 shell pairs
          la=2 lb=0:    569 shell pairs
          la=2 lb=1:    328 shell pairs
          la=2 lb=2:     44 shell pairs

Calculating one electron integrals          ... done (  0.0 sec)
Calculating RI/J V-Matrix + Cholesky decomp.... done (  0.0 sec)
Calculating Nuclear repulsion               ... done (  0.0 sec) ENN=    425.661586872202 Eh

Diagonalization of the overlap matrix:
Smallest eigenvalue                        ... 2.573e-05
Time for diagonalization                   ...    0.005 sec
Threshold for overlap eigenvalues          ... 1.000e-07
Number of eigenvalues below threshold      ... 0
Time for construction of square roots      ...    0.005 sec
Total time needed                          ...    0.010 sec

-------------------
DFT GRID GENERATION
-------------------

General Integration Accuracy     IntAcc      ... 4.388
Radial Grid Type                 RadialGrid  ... OptM3 with GC (2021)
Angular Grid (max. ang.)         AngularGrid ... 4 (Lebedev-302)
Angular grid pruning method      GridPruning ... 4 (adaptive)
Weight generation scheme         WeightScheme... mBecke (2022)
Basis function cutoff            BFCut       ... 1.0000e-11
Integration weight cutoff        WCut        ... 1.0000e-14
Partially contracted basis set               ... off
Rotationally invariant grid construction     ... off
Angular grids for H and He will be reduced by one unit

Total number of grid points                  ...    92338
Total number of batches                      ...     1453
Average number of points per batch           ...       63
Average number of grid points per atom       ...     4397
Initializing property integral containers    ... done (  0.0 sec)

SHARK setup successfully completed in   0.9 seconds

Maximum memory used throughout the entire STARTUP-calculation: 41.8 MB
Occupation numbers will be reassigned to an Aufbau configuration
             **** ENERGY FILE WAS UPDATED (xtb_opt.en.tmp) ****
Finished Guess after   0.1 sec
Maximum memory used throughout the entire GUESS-calculation: 17.4 MB
----------------------------------------D-I-I-S--------------------------------------------
Iteration    Energy (Eh)           Delta-E    RMSDP     MaxDP     DIISErr   Damp  Time(sec)
-------------------------------------------------------------------------------------------
               ***  Starting incremental Fock matrix formation  ***
                              *** Initializing SOSCF ***
---------------------------------------S-O-S-C-F--------------------------------------
Iteration    Energy (Eh)           Delta-E    RMSDP     MaxDP     MaxGrad    Time(sec)
--------------------------------------------------------------------------------------
    1    -350.0828007386108993     0.00e+00  2.11e-06  3.35e-05  1.64e-05     2.2
               *** Restarting incremental Fock matrix formation ***
    2    -350.0828007387552816    -1.44e-10  3.38e-06  6.10e-05  2.45e-05     2.2
                  *** Gradient check signals convergence ***

               *****************************************************
               *                     SUCCESS                       *
               *           SCF CONVERGED AFTER   2 CYCLES          *
               *****************************************************

             **** ENERGY FILE WAS UPDATED (xtb_opt.en.tmp) ****

----------------
TOTAL SCF ENERGY
----------------

Total Energy       :       -350.08280073875528 Eh           -9526.23731 eV

Components:
Nuclear Repulsion  :        425.66158687220218 Eh           11582.84064 eV
Electronic Energy  :       -775.74438761095746 Eh          -21109.07795 eV
One Electron Energy:      -1314.25296746521963 Eh          -35762.64138 eV
Two Electron Energy:        538.50857985426217 Eh           14653.56343 eV

Virial components:
Potential Energy   :       -698.45755071720191 Eh          -19005.99620 eV
Kinetic Energy     :        348.37474997844669 Eh            9479.75889 eV
Virial Ratio       :          2.00490291205208

DFT components:
N(Alpha)           :       32.999988279949 electrons
N(Beta)            :       32.999988279949 electrons
N(Total)           :       65.999976559898 electrons
E(X)               :      -51.102856093678 Eh       
E(C)               :       -2.083140962465 Eh       
E(XC)              :      -53.185997056144 Eh       

---------------
SCF CONVERGENCE
---------------

  Last Energy change         ...    1.4438e-10  Tolerance :   1.0000e-07
  Last MAX-Density change    ...    6.1021e-05  Tolerance :   1.0000e-07
  Last RMS-Density change    ...    3.3812e-06  Tolerance :   5.0000e-09
  Last DIIS Error            ...    5.1148e-05  Tolerance :   1.0000e-07
  Last Orbital Gradient      ...    2.4454e-05  Tolerance :   1.0000e-04
  Last Orbital Rotation      ...    1.2734e-04  Tolerance :   1.0000e-04


----------------
ORBITAL ENERGIES
----------------

  NO   OCC          E(Eh)            E(eV) 
   0   2.0000     -10.040918      -273.2273 
   1   2.0000     -10.037619      -273.1375 
   2   2.0000     -10.034202      -273.0445 
   3   2.0000     -10.029780      -272.9242 
   4   2.0000     -10.029425      -272.9145 
   5   2.0000     -10.029211      -272.9087 
   6   2.0000     -10.029136      -272.9067 
   7   2.0000     -10.028720      -272.8953 
   8   2.0000     -10.024234      -272.7733 
   9   2.0000      -0.824917       -22.4471 
  10   2.0000      -0.753145       -20.4941 
  11   2.0000      -0.733167       -19.9505 
  12   2.0000      -0.689575       -18.7643 
  13   2.0000      -0.650181       -17.6923 
  14   2.0000      -0.597424       -16.2567 
  15   2.0000      -0.560253       -15.2453 
  16   2.0000      -0.533872       -14.5274 
  17   2.0000      -0.466579       -12.6963 
  18   2.0000      -0.443999       -12.0818 
  19   2.0000      -0.420094       -11.4313 
  20   2.0000      -0.397684       -10.8215 
  21   2.0000      -0.393332       -10.7031 
  22   2.0000      -0.382446       -10.4069 
  23   2.0000      -0.374826       -10.1995 
  24   2.0000      -0.360325        -9.8049 
  25   2.0000      -0.350369        -9.5340 
  26   2.0000      -0.338810        -9.2195 
  27   2.0000      -0.320530        -8.7221 
  28   2.0000      -0.316919        -8.6238 
  29   2.0000      -0.297418        -8.0932 
  30   2.0000      -0.292180        -7.9506 
  31   2.0000      -0.225986        -6.1494 
  32   2.0000      -0.217247        -5.9116 
  33   0.0000      -0.026793        -0.7291 
  34   0.0000      -0.025209        -0.6860 
  35   0.0000       0.077328         2.1042 
  36   0.0000       0.090762         2.4697 
  37   0.0000       0.097568         2.6550 
  38   0.0000       0.108592         2.9549 
  39   0.0000       0.124839         3.3970 
  40   0.0000       0.128815         3.5052 
  41   0.0000       0.142456         3.8764 
  42   0.0000       0.145636         3.9630 
  43   0.0000       0.151015         4.1093 
*Only the first 10 virtual orbitals were printed.
Total SCF time: 0 days 0 hours 0 min 5 sec 
Finished LeanSCF after   7.1 sec

Maximum memory used throughout the entire LEANSCF-calculation: 27.5 MB


-------------------------------------------------------------------------------
                          DFT DISPERSION CORRECTION                            
                                                                               
                                DFTD4 V3.4.0                                   
-------------------------------------------------------------------------------
-------------------------   ----------------
Dispersion correction           -0.007067214
-------------------------   ----------------

------------------   -----------------
gCP correction             0.007244735
------------------   -----------------

-------------------------   --------------------
FINAL SINGLE POINT ENERGY      -350.082623217949
-------------------------   --------------------

------------------------------------------------------------------------------
                         ORCA SCF GRADIENT CALCULATION
------------------------------------------------------------------------------

Nuc. rep. gradient        (SHARK) ... done (  0.0 sec)
HCore & Overlap gradient  (SHARK) ... done (  0.3 sec)
Split-RIJ-J gradient      (SHARK) ... done (  1.7 sec)
XC gradient                       ... done (  6.5 sec)
Dispersion correction             ... done (  0.0 sec)

-------------------
DISPERSION GRADIENT
-------------------

   1   C   :   -0.000117116   -0.000034252    0.000041849
   2   C   :   -0.000095991   -0.000032395   -0.000034075
   3   C   :   -0.000016656   -0.000025420   -0.000020757
   4   C   :    0.000043702   -0.000100044   -0.000019708
   5   C   :    0.000102399   -0.000076364    0.000003245
   6   C   :    0.000120537   -0.000013737    0.000017394
   7   C   :    0.000097775    0.000057957    0.000014804
   8   C   :    0.000025261    0.000063879   -0.000008246
   9   C   :   -0.000027646    0.000128511   -0.000012304
  10   H   :   -0.000042813   -0.000013118    0.000011929
  11   H   :   -0.000051853   -0.000008099    0.000026702
  12   H   :   -0.000047156   -0.000022370    0.000023980
  13   H   :   -0.000040348   -0.000001501   -0.000019492
  14   H   :   -0.000037511   -0.000026597   -0.000019769
  15   H   :    0.000008333   -0.000051771   -0.000011149
  16   H   :    0.000031119   -0.000033112    0.000002055
  17   H   :    0.000042564   -0.000000843    0.000008613
  18   H   :    0.000034254    0.000033545    0.000009306
  19   H   :   -0.000009234    0.000053000   -0.000019801
  20   H   :   -0.000017681    0.000048607    0.000002236
  21   H   :   -0.000001941    0.000054122    0.000003188

Difference to translation invariance:
           :    0.0000000000    0.0000000000   -0.0000000000

Difference to rotation invariance:
           :    0.0000000000    0.0000000000   -0.0000000000

Norm of the Dispersion gradient    ...    0.0003741447
RMS gradient                       ...    0.0000471378
MAX gradient                       ...    0.0001285111
gCP correction                   ... done

------------------
CARTESIAN GRADIENT
------------------

   1   C   :   -0.000159669   -0.000337729   -0.000254803
   2   C   :   -0.000335852    0.000306751   -0.000012494
   3   C   :    0.000173284    0.000009452   -0.000487245
   4   C   :   -0.000440248    0.000175699   -0.000063662
   5   C   :    0.000337415    0.000138312    0.000075391
   6   C   :    0.000017644    0.000186367   -0.000265438
   7   C   :    0.000026839   -0.000127774    0.000224267
   8   C   :   -0.000205493   -0.000645591    0.000268519
   9   C   :    0.000287028   -0.000484877   -0.000313659
  10   H   :    0.000390109    0.000101408   -0.000032799
  11   H   :    0.000030669    0.000192508    0.000246524
  12   H   :   -0.000083950    0.000436766   -0.000270791
  13   H   :    0.000284923   -0.000466327    0.000358703
  14   H   :    0.000188870    0.000064844    0.000229131
  15   H   :   -0.000035970   -0.000215840    0.000118401
  16   H   :   -0.000053721    0.000059438   -0.000004174
  17   H   :   -0.000126815    0.000083622   -0.000221717
  18   H   :   -0.000160349    0.000047831    0.000006434
  19   H   :    0.000140759    0.000081748   -0.000575115
  20   H   :   -0.000650418   -0.000042339    0.000112064
  21   H   :    0.000374945    0.000435733    0.000862464

Difference to translation invariance:
           :   -0.0000000000    0.0000000000    0.0000000000

Difference to rotation invariance:
           :    0.0006955166    0.0000766690    0.0000358559

Norm of the Cartesian gradient     ...    0.0022928110
RMS gradient                       ...    0.0002888670
MAX gradient                       ...    0.0008624637

-------
TIMINGS
-------

Total SCF gradient time     ....        8.568 sec

Densities                   ....       0.000 sec  (  0.0%)
One electron gradient       ....       0.310 sec  (  3.6%)
RI-J Coulomb gradient       ....       1.720 sec  ( 20.1%)
XC gradient                 ....       6.502 sec  ( 75.9%)

Maximum memory used throughout the entire SCFGRAD-calculation: 37.7 MB

------------------------------------------------------------------------------
                              ORCA PROPERTY CALCULATIONS
------------------------------------------------------------------------------

GBWName                                 ... xtb_opt.gbw
Number of atoms                         ...     21
Number of basis functions               ...    231
Max core memory                         ...   1024 MB

Electric properties:
Dipole moment                           ... YES
Quadrupole moment                       ...  NO
Static polarizability (Dipole/Dipole)   ...  NO
Static polarizability (Dipole/Quad.)    ...  NO
Static polarizability (Quad./Quad.)     ...  NO
Static polarizability (Velocity)        ...  NO

Atomic electric properties:
Dipole moment                           ...  NO
Quadrupole moment                       ...  NO
Static polarizability                   ...  NO

Choice of electric origin               ... Center of mass
Position of electric origin             ...     0.016080     0.002826     0.020483

General magnetic properties:
Magnetizability                         ...  NO

EPR properties:
g-Tensor (aka g-matrix)                 ...  NO
Zero-Field splitting spin-orbit         ...  NO
Zero-field splitting spin-spin          ...  NO
Hyperfine couplings                     ...  NO (   0 nuclei)
Quadrupole couplings                    ...  NO (   0 nuclei)
Contact density                         ...  NO (   0 nuclei)

NMR properties:
Chemical shifts                         ...  NO (   0 nuclei)
Spin-rotation constants                 ...  NO (   0 nuclei)
Spin-spin couplings                     ...  NO (   0 nuclei,    0 pairs)

Choice of magnetic origin               ... GIAO
Position of magnetic origin             ...     0.000000     0.000000     0.000000

Properties with geometric perturbations:
SCF Hessian                             ...  NO
IR spectrum                             ...  NO
VCD spectrum                            ...  NO
X-ray spectroscopy properties:
SCF XES/XAS/RIXS spectra                ...  NO


-------------
DIPOLE MOMENT
-------------

Method             : SCF
Type of density    : Electron Density
Multiplicity       :   1
Irrep              :   0
Energy             :  -350.0828007387552816 Eh
Relativity type    : 
Basis              : AO
                                X                 Y                 Z
Electronic contribution:      7.035173082      -1.757010184      -0.786098648
Nuclear contribution   :     -7.281078255       1.864746938       0.752685762
                        -----------------------------------------
Total Dipole Moment    :     -0.245905173       0.107736755      -0.033412885
                        -----------------------------------------
Magnitude (a.u.)       :      0.270542017
Magnitude (Debye)      :      0.687663159



--------------------
Rotational spectrum 
--------------------
 
Rotational constants in cm-1:             0.084253             0.047694             0.033161 
Rotational constants in MHz :          2525.854607          1429.841043           994.129214 

Dipole components along the rotational axes: 
x,y,z [a.u.] :     0.248632     0.102215    -0.030452 
x,y,z [Debye]:     0.631972     0.259809    -0.077402 

 

Dipole moment calculation done in   0.4 sec 

Maximum memory used throughout the entire PROP-calculation: 16.3 MB

--------------------------------
SUGGESTED CITATIONS FOR THIS RUN
--------------------------------

Below you find a list of papers that are relevant to this ORCA run
We neither can nor want to force you to cite these papers, but we appreciate if you do
You receive ORCA, which is the product of decades of hard work by many enthusiastic individuals, for free
The only thing we kindly ask in return is that you cite our papers,
We deeply appreciate it, if you show your appreciation for ORCA by not just citing the generic ORCA reference.

Please note that relegating all ORCA citations to the supporting information does *not* help us.
SI sections are not indexed - citations you put there will not count into any citation statistics
But we need these citations in order to attract the funding resources that allow us to do what we are doing

Therefore, if you are a happy ORCA user, please consider citing a few of the papers listed below in the main body of your paper

In addition to the list printed below, the program has created the file xtb_opt.bibtex that contains the list in bibtex format
You can import this file easily into all common literature databanks and citation aid programs


List of essential papers. We consider these as the minimum necessary citations

  1. Neese,F.
     Software update: the ORCA program system, version 5.0
     WIRES Comput. Molec. Sci., 2022 12(1)e1606
     doi.org/10.1002/wcms.1606
  2. Grimme,S.; Hansen,A.; Ehlert,S.; Mewes,J.
     r2SCAN-3c: A 'Swiss army knife' composite electronic-structure method
     J. Chem. Phys., 2021 154 064103
     doi.org/10.1063/5.0040021

List of papers to cite with high priority. The work reported in these papers was absolutely
necessary for this run to complete.
Our perspective: the developers of density functionals and basis sets usually get cited in chemistry papers
Good! But without the algorithms to do something with them, the functionals or basis sets would not do anything.
Hence, in our opinion, the algorithm design and method developments papers are equally worthy of getting cited

  1. Neese,F.
     An improvement of the resolution of the identity approximation for the formation of the Coulomb matrix
     J. Comp. Chem., 2003 24(14)1740-1747
     doi.org/10.1002/jcc.10318
  2. Neese,F.
     The SHARK Integral Generation and Digestion System
     J. Comp. Chem., 2022  1-16
     doi.org/10.1002/jcc.26942
  3. Lehtola,S.; Steigemann,C.; Oliveira,M.; Marques,M.
     Recent developments in Libxc - A comprehensive library of functionals for density functional theory
     Software X, 2018 7 
     doi.org/10.1016/j.softx.2017.11.002
  4. Caldeweyher,E.; Bannwarth,C.; Grimme,S.
     Extension of the D3 dispersion coefficient model
     J. Chem. Phys., 2017 147 034112
     doi.org/10.1063/1.4993215
  5. Caldeweyher,E.; Ehlert,S.; Hansen,A.; Neugebauer,H.; Spicher,S.; Bannwarth,C.; Grimme,S.
     A generally applicable atomic-charge dependent London dispersion correction
     J. Chem. Phys., 2019 150 154122
     doi.org/10.1063/1.5090222
  6. Caldeweyher,E.; Mewes,J.; Ehlert,S.; Grimme,S.
     Extension and evaluation of the D4 London-dispersion model for periodic systems
     Phys. Chem. Chem. Phys., 2020 22(16)8499-8512
     doi.org/10.1039/D0CP00502A
  7. Wittmann,L.; Gordiy,I.; Friede,M.; Helmich-Paris,B.; Grimme,S.; Hansen,A.; Bursch,M.
     Extension of the D3 and D4 London Dispersion Corrections to the full Actinides Series
     Phys. Chem. Chem. Phys., 2024 26(32)21379-21394
     doi.org/https://doi.org/10.1039/D4CP01514B 

List of suggested additional citations. These are papers that are important in the 'surrounding' of 
of this run, or papers that preceded the highly important papers. If you like your results we are grateful for a citation.

  1. Neese,F.
     The ORCA program system
     WIRES Comput. Molec. Sci., 2012 2(1)73-78
     doi.org/10.1002/wcms.81
  2. Neese,F.
     Software update: the ORCA program system, version 4.0
     WIRES Comput. Molec. Sci., 2018 8(1)1-6
     doi.org/10.1002/wcms.1327
  3. Neese,F.; Wennmohs,F.; Becker,U.; Riplinger,C.
     The ORCA quantum chemistry program package
     J. Chem. Phys., 2020 152 Art. No. L224108
     doi.org/10.1063/5.0004608

List of optional additional citations

  1. Neese,F.
     Approximate second-order SCF convergence for spin unrestricted wavefunctions
     Chem. Phys. Lett., 2000 325(1-3)93-98
     doi.org/10.1016/s0009-2614(00)00662-x

Timings for individual modules:

Sum of individual times          ...       17.549 sec (=   0.292 min)
Startup calculation              ...        0.957 sec (=   0.016 min)   5.5 %
SCF iterations                   ...        7.264 sec (=   0.121 min)  41.4 %
Property calculations            ...        0.455 sec (=   0.008 min)   2.6 %
SCF Gradient evaluation          ...        8.873 sec (=   0.148 min)  50.6 %
                             ****ORCA TERMINATED NORMALLY****
TOTAL RUN TIME: 0 days 0 hours 0 minutes 19 seconds 868 msec
  ------------------------------------------------------------------------
          * successful ORCA run, taking over control again...

         :::::::::::::::::::::::::::::::::::::::::::::::::::::
         ::                  ORCA SUMMARY                   ::
         :::::::::::::::::::::::::::::::::::::::::::::::::::::
         :: total energy            -350.082623217949 Eh    ::
         :: gradient norm              0.002292811039 Eh/a0 ::
         :: HOMO-LUMO gap              0.000000000000 eV    ::
         :::::::::::::::::::::::::::::::::::::::::::::::::::::

      ----------------------------------------------------------- 
     |                       L-ANC optimizer                     |
      ----------------------------------------------------------- 
          low memory version by Sebastian Ehlert

          ...................................................
          :                      SETUP                      :
          :.................................................:
          :   energy convergence        0.5000000E-05 Eh    :
          :   grad. convergence         0.1000000E-02 Eh/a0 :
          :   optimization log               true           :
          :   writing optlog all                1     steps :
          :   Hessian reset                     8     steps :
          :   maximium step len.        1.0000000     a0    :
          :   LBFGS images                      8           :
          ...................................................
 * calculating model hessian...
Using Lindh-Hessian (1995)
 Shifting diagonal of input Hessian by   1.000000000000000E-002
 Lowest  eigenvalues of input Hessian
    0.000000    0.000000    0.000000    0.000000    0.000000    0.000000
    0.012264    0.013552    0.015566    0.017047    0.019175    0.022202
    0.023737    0.030070    0.032393    0.034124    0.049289    0.052383
 Highest eigenvalues
    1.374565    1.538146    1.576804    1.837715    1.941050    1.963832
 

........................................................................
.............................. CYCLE    1 ..............................
........................................................................
                         * ORCA takes the control...
  ------------------------------------------------------------------------

                                 *****************
                                 * O   R   C   A *
                                 *****************

                                            #,                                       
                                            ###                                      
                                            ####                                     
                                            #####                                    
                                            ######                                   
                                           ########,                                 
                                     ,,################,,,,,                         
                               ,,#################################,,                 
                          ,,##########################################,,             
                       ,#########################################, ''#####,          
                    ,#############################################,,   '####,        
                  ,##################################################,,,,####,       
                ,###########''''           ''''###############################       
              ,#####''   ,,,,##########,,,,          '''####'''          '####       
            ,##' ,,,,###########################,,,                        '##       
           ' ,,###''''                  '''############,,,                           
         ,,##''                                '''############,,,,        ,,,,,,###''
      ,#''                                            '''#######################'''  
     '                                                          ''''####''''         
             ,#######,   #######,   ,#######,      ##                                
            ,#'     '#,  ##    ##  ,#'     '#,    #''#        ,####,   ,####,        
            ##       ##  ##   ,#'  ##            #'  '#       #'       #'  '#        
            ##       ##  #######   ##           ,######,      #####,   #    #        
            '#,     ,#'  ##    ##  '#,     ,#' ,#      #,     #,   #   #,  ,#        
             '#######'   ##     ##  '#######'  #'      '#     '####' # '####'        



                #########################################################
                #                        -***-                          #
                #          Department of theory and spectroscopy        #
                #                                                       #
                #                      Frank Neese                      #
                #                                                       #
                #     Directorship, Architecture, Infrastructure        #
                #                    SHARK, DRIVERS                     #
                #        Core code/Algorithms in most modules           #
                #                                                       #
                #        Max Planck Institute fuer Kohlenforschung      #
                #                Kaiser Wilhelm Platz 1                 #
                #                 D-45470 Muelheim/Ruhr                 #
                #                      Germany                          #
                #                                                       #
                #                  All rights reserved                  #
                #                        -***-                          #
                #########################################################


                         Program Version 6.0.1  -  RELEASE   -


 With contributions from (in alphabetic order):
[Max-Planck-Institut fuer Kohlenforschung]                               
  Daniel Aravena         : Magnetic Suceptibility                        
  Michael Atanasov       : Ab Initio Ligand Field Theory (pilot matlab implementation)
  Alexander A. Auer      : GIAO ZORA, VPT2 properties, NMR spectrum      
  Ute Becker             : All parallelization in ORCA, NUMFREQ, NUMCALC 
  Giovanni Bistoni       : ED, misc. LED, open-shell LED, HFLD           
  Martin Brehm           : Molecular dynamics                            
  Dmytro Bykov           : pre 5.0 version of the SCF Hessian            
  Marcos Casanova-Páez   : Triplet and SCS-CIS(D). UHF-(DLPNO)-IP/EA/STEOM-CCSD. UHF-CVS-IP/STEOM-CCSD   
  Vijay G. Chilkuri      : MRCI spin determinant printing, contributions to CSF-ICE 
  Pauline Colinet        : FMM embedding                                 
  Dipayan Datta          : RHF DLPNO-CCSD density                        
  Achintya Kumar Dutta   : EOM-CC, STEOM-CC                              
  Nicolas Foglia         : Exact transition moments, OPA infrastructure, MCD improvements    
  Dmitry Ganyushin       : Spin-Orbit,Spin-Spin,Magnetic field MRCI      
  Miquel Garcia-Rates    : C-PCM and meta-GGA Hessian, CCSD/C-PCM, Gaussian charge scheme 
  Tiago L. C. Gouveia    : GS-ROHF, GS-ROCIS                             
  Yang Guo               : DLPNO-NEVPT2, F12-NEVPT2, CIM, IAO-localization        
  Andreas Hansen         : Spin unrestricted coupled pair/coupled cluster methods 
  Ingolf Harden          : AUTO-CI MPn and infrastructure                
  Benjamin Helmich-Paris : MC-RPA, TRAH-(SCF,CASSCF), AVAS, COSX integrals, SCF dyn. polar. 
  Lee Huntington         : MR-EOM, pCC                                   
  Robert Izsak           : Overlap fitted RIJCOSX, COSX-SCS-MP3, EOM     
  Riya Kayal             : Wick's Theorem for AUTO-CI, AUTO-CI UHF-CCSDT 
  Emily Kempfer          : AUTO-CI, RHF CISDT and CCSDT                  
  Christian Kollmar      : KDIIS, OOCD, Brueckner-CCSD(T), CCSD density, CASPT2, CASPT2-K, improved NEVPT2 
  Axel Koslowski         : Symmetry handling                             
  Simone Kossmann        : meta-GGA functionals, TD-DFT gradient, OOMP2, (MP2 Hessian; deprecated post 5.0) 
  Lucas Lang             : DCDCAS                                        
  Marvin Lechner         : AUTO-CI (C++ implementation), FIC-MRCC        
  Spencer Leger          : CASSCF response                               
  Dagmar Lenk            : GEPOL surface, SMD, ORCA-2-JSON               
  Dimitrios Liakos       : Extrapolation schemes; Compound Job, initial MDCI parallelization 
  Dimitrios Manganas     : Further ROCIS development; embedding schemes. LFT, Crystal Embedding 
  Dimitrios Pantazis     : SARC Basis sets                               
  Anastasios Papadopoulos: AUTO-CI, single reference methods and gradients 
  Taras Petrenko         : pre 6.0 DFT Hessian and TD-DFT gradient, (ASA, deprecated), ECA, 1-Electron XAS/XES, NRVS 
  Peter Pinski           : DLPNO-MP2, DLPNO-MP2 Gradient                 
  Christoph Reimann      : Effective Core Potentials                     
  Marius Retegan         : Local ZFS, SOC                                
  Christoph Riplinger    : Optimizer, TS searches, QM/MM, DLPNO-CCSD(T), (RO)-DLPNO pert. Triples 
  Michael Roemelt        : Original ROCIS implementation                 
  Masaaki Saitow         : Open-shell DLPNO-CCSD energy and density      
  Barbara Sandhoefer     : DKH picture change effects                    
  Kantharuban Sivalingam : CASSCF convergence/infrastructure, NEVPT2 and variants, FIC-MRCI 
  Bernardo de Souza      : ESD, SOC TD-DFT                               
  Georgi L. Stoychev     : AutoAux, RI-MP2 NMR, DLPNO-MP2 response, X2C  
  Van Anh Tran           : RI-MP2 g-tensors                              
  Willem Van den Heuvel  : Paramagnetic NMR                              
  Zikuan Wang            : NOTCH, Electric field optimization            
  Frank Wennmohs         : Technical directorship and infrastructure     
  Hang Xu                : AUTO-CI-Response properties                   
                                                                         
[FACCTs GmbH]                                                            
  Markus Bursch, Miquel Garcia-Rates, Christoph Riplinger, Bernardo de Souza, Georgi L. Stoychev 
                                                                 
  APM, Basis sets (HGBS, AHGBS, def-TZVP (Ac-Lr), def2-XVPD (La-Lu)), CI-OPT, improved COSX, DLPNO-Multilevel,           
  DOCKER, DRACO, updates on ESD, GOAT, IRC, LR-CPCM, MBIS, meta-GGA TD-DFT gradient, ML-optimized integration grids, 
  MM, NACMEs, nearIR, NEB, NEB-TS, NL-DFT gradient (VV10), 2- and 3-layer-ONIOM, interface openCOSMO-RS, QMMM,   
  Crystal-QMMM, SF, symmetry and pop. for TD-DFT, r2SCAN hybrids, SOLVATOR                                   
                                                                         
[Other institutions]                                                     
  V. Asgeirsson          : NEB                                           
  Christoph Bannwarth    : sTDA-DFT, sTD-DFT, PBEh-3c, B97-3c, D3        
  Sebastian Ehlert       : rSCAN, r2SCAN, r2SCAN-3c, D4, dhf basis sets  
  Marvin Friede          : D4 for Fr, Ra, Ac-Lr                          
  Lars Goerigk           : TD-DFT with DH, B97 family of functionals     
  Stefan Grimme          : VdW corrections, initial TS optimization, DFT functionals, gCP, sTDA/sTD-DF 
  Waldemar Hujo          : DFT-NL                                        
  H. Jonsson             : NEB                                           
  Holger Kruse           : gCP                                           
  Marcel Mueller         : wB97X-3c, vDZP basis set                      
  Hagen Neugebauer       : wr2SCAN                                       
  Tobias Risthaus        : range-separated hybrid DFT                    
  Lukas Wittmann         : regularized MP2, r2SCAN double-hybrids, wr2SCAN        
                                                                         
We gratefully acknowledge several colleagues who have allowed us to      
interface, adapt or use parts of their codes:                            
  Ed Valeev, F. Pavosevic, A. Kumar             : LibInt (2-el integral package), F12 methods 
  Garnet Chan, S. Sharma, J. Yang, R. Olivares  : DMRG                   
  Ulf Ekstrom                                   : XCFun DFT Library      
  Mihaly Kallay                                 : mrcc  (arbitrary order and MRCC methods)
  Frank Weinhold                                : gennbo (NPA and NBO analysis)           
  Simon Mueller                                 : openCOSMO-RS                            
  Christopher J. Cramer and Donald G. Truhlar   : smd solvation model                     
  S Lehtola, MJT Oliveira, MAL Marques          : LibXC Library                           
  Liviu Ungur et al                             : ANISO software                          


 Your calculation uses the libint2 library for the computation of 2-el integrals
 For citations please refer to: http://libint.valeyev.net

 Your ORCA version has been built with support for libXC version: 6.2.2
 For citations please refer to: https://libxc.gitlab.io

 This ORCA versions uses:
   CBLAS   interface :  Fast vector & matrix operations
   LAPACKE interface :  Fast linear algebra routines
   SCALAPACK package :  Parallel linear algebra routines
   Shared memory     :  Shared parallel matrices
   BLAS/LAPACK       :  OpenBLAS 0.3.27  USE64BITINT DYNAMIC_ARCH NO_AFFINITY Zen SINGLE_THREADED
        Core in use  :  Zen
   Copyright (c) 2011-2014, The OpenBLAS Project




***************************************
The coordinates will be read from file: xtb_opt.xyz
***************************************


Your calculation utilizes the geometrical counterpoise correction gCP
Please cite in your paper:
H.Kruse, S. Grimme J.Chem.Phys., 136, (2012), 154101 
   

Your calculation utilizes the atom-pairwise dispersion correction
based on EEQ partial charges (D4)


================================================================================

----- Orbital basis set information -----
Your calculation utilizes the basis: def2-mTZVPP
   Stefan Grimme, Andreas Hansen, Sebastian Ehlert, and Jan-Michael Mewes 
   J. Chem. Phys. 154, 064103 (2021). DOI: 10.1063/5.0040021

----- AuxJ basis set information -----
Your calculation utilizes the auxiliary basis: def2/J
   F. Weigend, Phys. Chem. Chem. Phys. 8, 1057 (2006).

================================================================================
                                        WARNINGS
                       Please study these warnings very carefully!
================================================================================

WARNING: Old DensityContainer found on disk!
         Will remove this file - 
         If you want to keep old densities, please start your calculation with a different basename. 



WARNING: SCAN, rSCAN, or r2SCAN functional requested.
  ===> : libXC variant has now been activated.



================================================================================
                                       INPUT FILE
================================================================================
NAME = xtb_opt.inp
|  1> ! r2scan-3c def2/J RI DEFGRID2 scfconv7 ENGRAD tightSCF miniprint
|  2> * xyzfile 0 1 xtb_opt.xyz
|  3> 
|  4>                          ****END OF INPUT****
================================================================================

                     *******************************
                     * Energy+Gradient Calculation *
                     *******************************

---------------------------------
CARTESIAN COORDINATES (ANGSTROEM)
---------------------------------
  C     -2.681020   -0.599913    0.730289
  C     -1.860609   -0.488068   -0.562830
  C     -0.386423   -0.322679   -0.288484
  C      0.430262   -1.453762   -0.223698
  C      1.787887   -1.355875    0.060194
  C      2.349359   -0.105010    0.288718
  C      1.545705    1.027922    0.231081
  C      0.181159    0.942490   -0.055122
  C     -0.636353    2.204540   -0.148944
  H     -3.749065   -0.697210    0.512071
  H     -2.540908    0.279406    1.366288
  H     -2.366365   -1.474202    1.307928
  H     -2.231740    0.348207   -1.164568
  H     -2.012988   -1.393358   -1.160720
  H     -0.011172   -2.430830   -0.405341
  H      2.402031   -2.249927    0.098618
  H      3.407818   -0.009286    0.508698
  H      1.984154    2.006163    0.410075
  H     -0.818497    2.476350   -1.196167
  H     -1.613021    2.107819    0.332688
  H     -0.111094    3.039454    0.321810

----------------------------
CARTESIAN COORDINATES (A.U.)
----------------------------
  NO LB      ZA    FRAG     MASS         X           Y           Z
   0 C     6.0000    0    12.011   -5.066393   -1.133671    1.380046
   1 C     6.0000    0    12.011   -3.516042   -0.922314   -1.063594
   2 C     6.0000    0    12.011   -0.730234   -0.609774   -0.545156
   3 C     6.0000    0    12.011    0.813078   -2.747212   -0.422729
   4 C     6.0000    0    12.011    3.378617   -2.562233    0.113749
   5 C     6.0000    0    12.011    4.439645   -0.198439    0.545597
   6 C     6.0000    0    12.011    2.920959    1.942491    0.436680
   7 C     6.0000    0    12.011    0.342342    1.781048   -0.104166
   8 C     6.0000    0    12.011   -1.202532    4.165976   -0.281463
   9 H     1.0000    0     1.008   -7.084707   -1.317536    0.967674
  10 H     1.0000    0     1.008   -4.801620    0.528000    2.581910
  11 H     1.0000    0     1.008   -4.471783   -2.785838    2.471625
  12 H     1.0000    0     1.008   -4.217377    0.658015   -2.200715
  13 H     1.0000    0     1.008   -3.803995   -2.633065   -2.193444
  14 H     1.0000    0     1.008   -0.021111   -4.593603   -0.765983
  15 H     1.0000    0     1.008    4.539180   -4.251747    0.186361
  16 H     1.0000    0     1.008    6.439844   -0.017549    0.961301
  17 H     1.0000    0     1.008    3.749508    3.791099    0.774929
  18 H     1.0000    0     1.008   -1.546735    4.679623   -2.260427
  19 H     1.0000    0     1.008   -3.048168    3.983202    0.628690
  20 H     1.0000    0     1.008   -0.209938    5.743736    0.608132

------------------------------------------------------------------------------
                   ___                                                        
                  /   \      - P O W E R E D   B Y -                         
                 /     \                                                     
                 |  |  |   _    _      __       _____    __    __             
                 |  |  |  | |  | |    /  \     |  _  \  |  |  /  |          
                  \  \/   | |  | |   /    \    | | | |  |  | /  /          
                 / \  \   | |__| |  /  /\  \   | |_| |  |  |/  /          
                |  |  |   |  __  | /  /__\  \  |    /   |      \           
                |  |  |   | |  | | |   __   |  |    \   |  |\   \          
                \     /   | |  | | |  |  |  |  | |\  \  |  | \   \       
                 \___/    |_|  |_| |__|  |__|  |_| \__\ |__|  \__/        
                                                                              
                      - O R C A' S   B I G   F R I E N D -                    
                                      &                                       
                       - I N T E G R A L  F E E D E R -                       
                                                                              
 v1 FN, 2020, v2 2021, v3 2022-2024                                           
------------------------------------------------------------------------------


----------------------
SHARK INTEGRAL PACKAGE
----------------------

Number of atoms                             ...     21
Number of basis functions                   ...    231
Number of shells                            ...    117
Maximum angular momentum                    ...      2
Integral batch strategy                     ... SHARK/LIBINT Hybrid
RI-J (if used) integral strategy            ... SPLIT-RIJ (Revised 2003 algorithm where possible)
Printlevel                                  ...      1
Contraction scheme used                     ... SEGMENTED contraction
Prescreening option                         ... SCHWARTZ
   Thresh                                   ... 3.000e-11
   Tcut                                     ... 1.000e-12
   Tpresel                                  ... 1.000e-12 
Coulomb Range Separation                    ... NOT USED
Exchange Range Separation                   ... NOT USED
Multipole approximations                    ... NOT USED
Finite Nucleus Model                        ... NOT USED
CABS basis                                  ... NOT available
Auxiliary Coulomb fitting basis             ... AVAILABLE
   # of basis functions in Aux-J            ...    573
   # of shells in Aux-J                     ...    195
   Maximum angular momentum in Aux-J        ...      4
Auxiliary J/K fitting basis                 ... NOT available
Auxiliary Correlation fitting basis         ... NOT available
Auxiliary 'external' fitting basis          ... NOT available

Checking pre-screening integrals            ... done (  0.0 sec) Dimension = 117
Check shell pair data                       ... done (  0.0 sec)
Shell pair information
Shell pair cut-off parameter TPreSel        ...   1.0e-12
Total number of shell pairs                 ...      6903
Shell pairs after pre-screening             ...      6229
Total number of primitive shell pairs       ...     24987
Primitive shell pairs kept                  ...     15919
          la=0 lb=0:   2144 shell pairs
          la=1 lb=0:   2424 shell pairs
          la=1 lb=1:    720 shell pairs
          la=2 lb=0:    569 shell pairs
          la=2 lb=1:    328 shell pairs
          la=2 lb=2:     44 shell pairs

Calculating one electron integrals          ... done (  0.0 sec)
Calculating RI/J V-Matrix + Cholesky decomp.... done (  0.0 sec)
Calculating Nuclear repulsion               ... done (  0.0 sec) ENN=    425.604946106470 Eh

Diagonalization of the overlap matrix:
Smallest eigenvalue                        ... 2.571e-05
Time for diagonalization                   ...    0.005 sec
Threshold for overlap eigenvalues          ... 1.000e-07
Number of eigenvalues below threshold      ... 0
Time for construction of square roots      ...    0.005 sec
Total time needed                          ...    0.011 sec

-------------------
DFT GRID GENERATION
-------------------

General Integration Accuracy     IntAcc      ... 4.388
Radial Grid Type                 RadialGrid  ... OptM3 with GC (2021)
Angular Grid (max. ang.)         AngularGrid ... 4 (Lebedev-302)
Angular grid pruning method      GridPruning ... 4 (adaptive)
Weight generation scheme         WeightScheme... mBecke (2022)
Basis function cutoff            BFCut       ... 1.0000e-11
Integration weight cutoff        WCut        ... 1.0000e-14
Partially contracted basis set               ... off
Rotationally invariant grid construction     ... off
Angular grids for H and He will be reduced by one unit

Total number of grid points                  ...    92339
Total number of batches                      ...     1454
Average number of points per batch           ...       63
Average number of grid points per atom       ...     4397
Initializing property integral containers    ... done (  0.0 sec)

SHARK setup successfully completed in   0.9 seconds

Maximum memory used throughout the entire STARTUP-calculation: 41.8 MB
Occupation numbers will be reassigned to an Aufbau configuration
             **** ENERGY FILE WAS UPDATED (xtb_opt.en.tmp) ****
Finished Guess after   0.1 sec
Maximum memory used throughout the entire GUESS-calculation: 17.4 MB
----------------------------------------D-I-I-S--------------------------------------------
Iteration    Energy (Eh)           Delta-E    RMSDP     MaxDP     DIISErr   Damp  Time(sec)
-------------------------------------------------------------------------------------------
               ***  Starting incremental Fock matrix formation  ***
                              *** Initializing SOSCF ***
---------------------------------------S-O-S-C-F--------------------------------------
Iteration    Energy (Eh)           Delta-E    RMSDP     MaxDP     MaxGrad    Time(sec)
--------------------------------------------------------------------------------------
    1    -350.0828003990334309     0.00e+00  1.75e-04  4.10e-03  1.35e-04     2.2
               *** Restarting incremental Fock matrix formation ***
    2    -350.0828263861242249    -2.60e-05  4.63e-05  1.12e-03  1.18e-04     2.2
    3    -350.0828279536814307    -1.57e-06  1.92e-05  3.21e-04  1.63e-04     1.7
    4    -350.0828278596976588     9.40e-08  1.44e-05  3.14e-04  1.85e-04     1.7
                 **** Energy Check signals convergence ****

               *****************************************************
               *                     SUCCESS                       *
               *           SCF CONVERGED AFTER   4 CYCLES          *
               *****************************************************

             **** ENERGY FILE WAS UPDATED (xtb_opt.en.tmp) ****

----------------
TOTAL SCF ENERGY
----------------

Total Energy       :       -350.08282785969766 Eh           -9526.23805 eV

Components:
Nuclear Repulsion  :        425.60494610647015 Eh           11581.29937 eV
Electronic Energy  :       -775.68777396616781 Eh          -21107.53742 eV
One Electron Energy:      -1314.14122004306159 Eh          -35759.60058 eV
Two Electron Energy:        538.45344607689378 Eh           14652.06316 eV

Virial components:
Potential Energy   :       -698.45508138390369 Eh          -19005.92901 eV
Kinetic Energy     :        348.37225352420603 Eh            9479.69096 eV
Virial Ratio       :          2.00491019109067

DFT components:
N(Alpha)           :       32.999984632402 electrons
N(Beta)            :       32.999984632402 electrons
N(Total)           :       65.999969264804 electrons
E(X)               :      -51.102292071607 Eh       
E(C)               :       -2.083080961032 Eh       
E(XC)              :      -53.185373032639 Eh       

---------------
SCF CONVERGENCE
---------------

  Last Energy change         ...   -9.3984e-08  Tolerance :   1.0000e-07
  Last MAX-Density change    ...    3.1409e-04  Tolerance :   1.0000e-07
  Last RMS-Density change    ...    1.4433e-05  Tolerance :   5.0000e-09
  Last DIIS Error            ...    2.3697e-03  Tolerance :   1.0000e-07
  Last Orbital Gradient      ...    1.8461e-04  Tolerance :   1.0000e-04
  Last Orbital Rotation      ...    3.2434e-04  Tolerance :   1.0000e-04


----------------
ORBITAL ENERGIES
----------------

  NO   OCC          E(Eh)            E(eV) 
   0   2.0000     -10.040516      -273.2163 
   1   2.0000     -10.037641      -273.1381 
   2   2.0000     -10.034407      -273.0501 
   3   2.0000     -10.030080      -272.9323 
   4   2.0000     -10.029658      -272.9209 
   5   2.0000     -10.029327      -272.9119 
   6   2.0000     -10.028721      -272.8954 
   7   2.0000     -10.028699      -272.8948 
   8   2.0000     -10.024373      -272.7771 
   9   2.0000      -0.824799       -22.4439 
  10   2.0000      -0.753063       -20.4919 
  11   2.0000      -0.733101       -19.9487 
  12   2.0000      -0.689524       -18.7629 
  13   2.0000      -0.650252       -17.6943 
  14   2.0000      -0.597347       -16.2546 
  15   2.0000      -0.560184       -15.2434 
  16   2.0000      -0.533891       -14.5279 
  17   2.0000      -0.466626       -12.6975 
  18   2.0000      -0.443919       -12.0797 
  19   2.0000      -0.420122       -11.4321 
  20   2.0000      -0.397587       -10.8189 
  21   2.0000      -0.393178       -10.6989 
  22   2.0000      -0.382424       -10.4063 
  23   2.0000      -0.374879       -10.2010 
  24   2.0000      -0.360341        -9.8054 
  25   2.0000      -0.350350        -9.5335 
  26   2.0000      -0.338725        -9.2172 
  27   2.0000      -0.320567        -8.7231 
  28   2.0000      -0.316886        -8.6229 
  29   2.0000      -0.297363        -8.0916 
  30   2.0000      -0.292216        -7.9516 
  31   2.0000      -0.225984        -6.1493 
  32   2.0000      -0.217223        -5.9109 
  33   0.0000      -0.026833        -0.7302 
  34   0.0000      -0.025172        -0.6850 
  35   0.0000       0.077386         2.1058 
  36   0.0000       0.090757         2.4696 
  37   0.0000       0.097564         2.6548 
  38   0.0000       0.108685         2.9575 
  39   0.0000       0.124916         3.3991 
  40   0.0000       0.128790         3.5046 
  41   0.0000       0.142347         3.8734 
  42   0.0000       0.145557         3.9608 
  43   0.0000       0.150968         4.1081 
*Only the first 10 virtual orbitals were printed.
Total SCF time: 0 days 0 hours 0 min 8 sec 
Finished LeanSCF after   9.8 sec

Maximum memory used throughout the entire LEANSCF-calculation: 27.6 MB


-------------------------------------------------------------------------------
                          DFT DISPERSION CORRECTION                            
                                                                               
                                DFTD4 V3.4.0                                   
-------------------------------------------------------------------------------
-------------------------   ----------------
Dispersion correction           -0.007065870
-------------------------   ----------------

------------------   -----------------
gCP correction             0.007243375
------------------   -----------------

-------------------------   --------------------
FINAL SINGLE POINT ENERGY      -350.082650354354
-------------------------   --------------------

------------------------------------------------------------------------------
                         ORCA SCF GRADIENT CALCULATION
------------------------------------------------------------------------------

Nuc. rep. gradient        (SHARK) ... done (  0.0 sec)
HCore & Overlap gradient  (SHARK) ... done (  0.3 sec)
Split-RIJ-J gradient      (SHARK) ... done (  1.7 sec)
XC gradient                       ... done (  6.6 sec)
Dispersion correction             ... done (  0.0 sec)

-------------------
DISPERSION GRADIENT
-------------------

   1   C   :   -0.000117097   -0.000034412    0.000041873
   2   C   :   -0.000095998   -0.000032327   -0.000034096
   3   C   :   -0.000016673   -0.000025328   -0.000020699
   4   C   :    0.000043695   -0.000099984   -0.000019734
   5   C   :    0.000102374   -0.000076377    0.000003294
   6   C   :    0.000120503   -0.000013779    0.000017524
   7   C   :    0.000097810    0.000057899    0.000014729
   8   C   :    0.000025332    0.000063989   -0.000008334
   9   C   :   -0.000027689    0.000128489   -0.000012347
  10   H   :   -0.000042761   -0.000013138    0.000011948
  11   H   :   -0.000051852   -0.000008150    0.000026727
  12   H   :   -0.000047142   -0.000022375    0.000023967
  13   H   :   -0.000040327   -0.000001486   -0.000019463
  14   H   :   -0.000037514   -0.000026570   -0.000019798
  15   H   :    0.000008324   -0.000051737   -0.000011213
  16   H   :    0.000031102   -0.000033127    0.000002070
  17   H   :    0.000042532   -0.000000869    0.000008695
  18   H   :    0.000034292    0.000033516    0.000009268
  19   H   :   -0.000009307    0.000052977   -0.000019853
  20   H   :   -0.000017680    0.000048669    0.000002347
  21   H   :   -0.000001924    0.000054121    0.000003096

Difference to translation invariance:
           :   -0.0000000000    0.0000000000    0.0000000000

Difference to rotation invariance:
           :   -0.0000000000    0.0000000000   -0.0000000000

Norm of the Dispersion gradient    ...    0.0003741384
RMS gradient                       ...    0.0000471370
MAX gradient                       ...    0.0001284888
gCP correction                   ... done

------------------
CARTESIAN GRADIENT
------------------

   1   C   :    0.000020038   -0.000097744   -0.000113850
   2   C   :   -0.000093221    0.000129277   -0.000045667
   3   C   :   -0.000036278   -0.000083276    0.000148510
   4   C   :   -0.000090850    0.000040927   -0.000019985
   5   C   :    0.000125903    0.000085159   -0.000052778
   6   C   :   -0.000043605   -0.000026979    0.000002287
   7   C   :    0.000195821   -0.000036649   -0.000156856
   8   C   :   -0.000090566   -0.000226584    0.000024444
   9   C   :    0.000022028   -0.000132544    0.000047357
  10   H   :    0.000089950    0.000078172   -0.000016100
  11   H   :    0.000034800    0.000080824    0.000025947
  12   H   :   -0.000048939    0.000118926   -0.000015028
  13   H   :    0.000084541   -0.000143172   -0.000005158
  14   H   :   -0.000002826   -0.000025977    0.000123876
  15   H   :    0.000030327   -0.000056931    0.000038757
  16   H   :   -0.000017896    0.000041440   -0.000050485
  17   H   :   -0.000030503    0.000045496   -0.000133509
  18   H   :   -0.000118928    0.000036035    0.000071866
  19   H   :    0.000230338    0.000126033   -0.000130214
  20   H   :   -0.000274353   -0.000016815   -0.000121549
  21   H   :    0.000014219    0.000064384    0.000378135

Difference to translation invariance:
           :    0.0000000000   -0.0000000000   -0.0000000000

Difference to rotation invariance:
           :    0.0007308652    0.0000905947   -0.0000177682

Norm of the Cartesian gradient     ...    0.0008502186
RMS gradient                       ...    0.0001071175
MAX gradient                       ...    0.0003781350

-------
TIMINGS
-------

Total SCF gradient time     ....        8.609 sec

Densities                   ....       0.000 sec  (  0.0%)
One electron gradient       ....       0.309 sec  (  3.6%)
RI-J Coulomb gradient       ....       1.711 sec  ( 19.9%)
XC gradient                 ....       6.554 sec  ( 76.1%)

Maximum memory used throughout the entire SCFGRAD-calculation: 37.7 MB

[...]
  Last MAX-Density change    ...    6.4496e-05  Tolerance :   1.0000e-07
  Last RMS-Density change    ...    2.9830e-06  Tolerance :   5.0000e-09
  Last DIIS Error            ...    5.0657e-05  Tolerance :   1.0000e-07
  Last Orbital Gradient      ...    7.6546e-05  Tolerance :   1.0000e-04
  Last Orbital Rotation      ...    1.1847e-04  Tolerance :   1.0000e-04


----------------
ORBITAL ENERGIES
----------------

  NO   OCC          E(Eh)            E(eV) 
   0   2.0000     -10.041443      -273.2416 
   1   2.0000     -10.037867      -273.1443 
   2   2.0000     -10.034351      -273.0486 
   3   2.0000     -10.029611      -272.9196 
   4   2.0000     -10.029329      -272.9119 
   5   2.0000     -10.029320      -272.9117 
   6   2.0000     -10.029042      -272.9041 
   7   2.0000     -10.028845      -272.8987 
   8   2.0000     -10.024357      -272.7766 
   9   2.0000      -0.824984       -22.4489 
  10   2.0000      -0.753093       -20.4927 
  11   2.0000      -0.733423       -19.9575 
  12   2.0000      -0.689374       -18.7588 
  13   2.0000      -0.650222       -17.6934 
  14   2.0000      -0.597576       -16.2609 
  15   2.0000      -0.560062       -15.2401 
  16   2.0000      -0.534017       -14.5313 
  17   2.0000      -0.466679       -12.6990 
  18   2.0000      -0.443692       -12.0735 
  19   2.0000      -0.420218       -11.4347 
  20   2.0000      -0.398164       -10.8346 
  21   2.0000      -0.393045       -10.6953 
  22   2.0000      -0.382920       -10.4198 
  23   2.0000      -0.374746       -10.1974 
  24   2.0000      -0.360431        -9.8078 
  25   2.0000      -0.350169        -9.5286 
  26   2.0000      -0.338448        -9.2096 
  27   2.0000      -0.321235        -8.7412 
  28   2.0000      -0.316625        -8.6158 
  29   2.0000      -0.297334        -8.0909 
  30   2.0000      -0.292452        -7.9580 
  31   2.0000      -0.226081        -6.1520 
  32   2.0000      -0.217306        -5.9132 
  33   0.0000      -0.027188        -0.7398 
  34   0.0000      -0.024794        -0.6747 
  35   0.0000       0.076638         2.0854 
  36   0.0000       0.091173         2.4809 
  37   0.0000       0.097115         2.6426 
  38   0.0000       0.109318         2.9747 
  39   0.0000       0.127044         3.4570 
  40   0.0000       0.127913         3.4807 
  41   0.0000       0.141618         3.8536 
  42   0.0000       0.144780         3.9397 
  43   0.0000       0.150909         4.1064 
*Only the first 10 virtual orbitals were printed.
Total SCF time: 0 days 0 hours 0 min 6 sec 
Finished LeanSCF after   8.6 sec

Maximum memory used throughout the entire LEANSCF-calculation: 27.7 MB


-------------------------------------------------------------------------------
                          DFT DISPERSION CORRECTION                            
                                                                               
                                DFTD4 V3.4.0                                   
-------------------------------------------------------------------------------
-------------------------   ----------------
Dispersion correction           -0.007067608
-------------------------   ----------------

------------------   -----------------
gCP correction             0.007225123
------------------   -----------------

-------------------------   --------------------
FINAL SINGLE POINT ENERGY      -350.082843645531
-------------------------   --------------------

------------------------------------------------------------------------------
                         ORCA SCF GRADIENT CALCULATION
------------------------------------------------------------------------------

Nuc. rep. gradient        (SHARK) ... done (  0.0 sec)
HCore & Overlap gradient  (SHARK) ... done (  0.3 sec)
Split-RIJ-J gradient      (SHARK) ... done (  1.7 sec)
XC gradient                       ... done (  6.4 sec)
Dispersion correction             ... done (  0.0 sec)

-------------------
DISPERSION GRADIENT
-------------------

   1   C   :   -0.000116943   -0.000037169    0.000041825
   2   C   :   -0.000095912   -0.000031010   -0.000034739
   3   C   :   -0.000016867   -0.000024305   -0.000021269
   4   C   :    0.000042847   -0.000099442   -0.000019404
   5   C   :    0.000102703   -0.000076741    0.000004273
   6   C   :    0.000120619   -0.000014182    0.000018697
   7   C   :    0.000098104    0.000057735    0.000014984
   8   C   :    0.000025674    0.000064788   -0.000009060
   9   C   :   -0.000027547    0.000128880   -0.000013078
  10   H   :   -0.000042778   -0.000013536    0.000011997
  11   H   :   -0.000052204   -0.000009060    0.000027425
  12   H   :   -0.000046950   -0.000023049    0.000023089
  13   H   :   -0.000040211   -0.000000635   -0.000018850
  14   H   :   -0.000037631   -0.000026054   -0.000020662
  15   H   :    0.000007977   -0.000051459   -0.000011201
  16   H   :    0.000031166   -0.000033414    0.000002532
  17   H   :    0.000042446   -0.000001137    0.000009281
  18   H   :    0.000034552    0.000033365    0.000009288
  19   H   :   -0.000010557    0.000052391   -0.000020268
  20   H   :   -0.000016639    0.000050657    0.000004166
  21   H   :   -0.000001852    0.000053377    0.000000974

Difference to translation invariance:
           :    0.0000000000   -0.0000000000    0.0000000000

Difference to rotation invariance:
           :   -0.0000000000    0.0000000000    0.0000000000

Norm of the Dispersion gradient    ...    0.0003748241
RMS gradient                       ...    0.0000472234
MAX gradient                       ...    0.0001288803
gCP correction                   ... done

------------------
CARTESIAN GRADIENT
------------------

   1   C   :   -0.000023197   -0.000132112   -0.000045026
   2   C   :   -0.000039769    0.000135714   -0.000074374
   3   C   :    0.000049489    0.000012110   -0.000064722
   4   C   :   -0.000182369    0.000080690   -0.000054287
   5   C   :    0.000081487    0.000014554    0.000036513
   6   C   :   -0.000002675   -0.000000142   -0.000025065
   7   C   :   -0.000056790    0.000022413    0.000006525
   8   C   :   -0.000013359   -0.000183961    0.000054970
   9   C   :    0.000144034   -0.000150319   -0.000169590
  10   H   :    0.000127500    0.000001619    0.000019625
  11   H   :    0.000021458    0.000064982    0.000054290
  12   H   :    0.000031026    0.000129212   -0.000060956
  13   H   :    0.000074763   -0.000104707    0.000111261
  14   H   :   -0.000009125    0.000027646    0.000038836
  15   H   :   -0.000018074   -0.000059587    0.000025837
  16   H   :   -0.000018892   -0.000004117   -0.000002335
  17   H   :   -0.000012949    0.000008202   -0.000036755
  18   H   :   -0.000050204    0.000000420    0.000045826
  19   H   :   -0.000034397   -0.000028099   -0.000145525
  20   H   :   -0.000210929    0.000013622    0.000111731
  21   H   :    0.000142972    0.000151858    0.000173223

Difference to translation invariance:
           :   -0.0000000000    0.0000000000    0.0000000000

Difference to rotation invariance:
           :    0.0001203169    0.0001672370   -0.0004372068

Norm of the Cartesian gradient     ...    0.0006772536
RMS gradient                       ...    0.0000853259
MAX gradient                       ...    0.0002109285

-------
TIMINGS
-------

Total SCF gradient time     ....        8.455 sec

Densities                   ....       0.000 sec  (  0.0%)
One electron gradient       ....       0.315 sec  (  3.7%)
RI-J Coulomb gradient       ....       1.709 sec  ( 20.2%)
XC gradient                 ....       6.394 sec  ( 75.6%)

Maximum memory used throughout the entire SCFGRAD-calculation: 37.7 MB

------------------------------------------------------------------------------
                              ORCA PROPERTY CALCULATIONS
------------------------------------------------------------------------------

GBWName                                 ... xtb_opt.gbw
Number of atoms                         ...     21
Number of basis functions               ...    231
Max core memory                         ...   1024 MB

Electric properties:
Dipole moment                           ... YES
Quadrupole moment                       ...  NO
Static polarizability (Dipole/Dipole)   ...  NO
Static polarizability (Dipole/Quad.)    ...  NO
Static polarizability (Quad./Quad.)     ...  NO
Static polarizability (Velocity)        ...  NO

Atomic electric properties:
Dipole moment                           ...  NO
Quadrupole moment                       ...  NO
Static polarizability                   ...  NO

Choice of electric origin               ... Center of mass
Position of electric origin             ...     0.014582     0.009276     0.020305

General magnetic properties:
Magnetizability                         ...  NO

EPR properties:
g-Tensor (aka g-matrix)                 ...  NO
Zero-Field splitting spin-orbit         ...  NO
Zero-field splitting spin-spin          ...  NO
Hyperfine couplings                     ...  NO (   0 nuclei)
Quadrupole couplings                    ...  NO (   0 nuclei)
Contact density                         ...  NO (   0 nuclei)

NMR properties:
Chemical shifts                         ...  NO (   0 nuclei)
Spin-rotation constants                 ...  NO (   0 nuclei)
Spin-spin couplings                     ...  NO (   0 nuclei,    0 pairs)

Choice of magnetic origin               ... GIAO
Position of magnetic origin             ...     0.000000     0.000000     0.000000

Properties with geometric perturbations:
SCF Hessian                             ...  NO
IR spectrum                             ...  NO
VCD spectrum                            ...  NO
X-ray spectroscopy properties:
SCF XES/XAS/RIXS spectra                ...  NO


-------------
DIPOLE MOMENT
-------------

Method             : SCF
Type of density    : Electron Density
Multiplicity       :   1
Irrep              :   0
Energy             :  -350.0830011603775347 Eh
Relativity type    : 
Basis              : AO
                                X                 Y                 Z
Electronic contribution:      7.014277619      -1.688580354      -0.779466738
Nuclear contribution   :     -7.264036764       1.791350621       0.754707838
                        -----------------------------------------
Total Dipole Moment    :     -0.249759145       0.102770267      -0.024758899
                        -----------------------------------------
Magnitude (a.u.)       :      0.271209073
Magnitude (Debye)      :      0.689358681



--------------------
Rotational spectrum 
--------------------
 
Rotational constants in cm-1:             0.083462             0.047966             0.033214 
Rotational constants in MHz :          2502.116230          1437.997605           995.743527 

Dipole components along the rotational axes: 
x,y,z [a.u.] :     0.251387     0.100116    -0.018320 
x,y,z [Debye]:     0.638976     0.254473    -0.046565 

 

Dipole moment calculation done in   0.7 sec 

Maximum memory used throughout the entire PROP-calculation: 16.3 MB

--------------------------------
SUGGESTED CITATIONS FOR THIS RUN
--------------------------------

Below you find a list of papers that are relevant to this ORCA run
We neither can nor want to force you to cite these papers, but we appreciate if you do
You receive ORCA, which is the product of decades of hard work by many enthusiastic individuals, for free
The only thing we kindly ask in return is that you cite our papers,
We deeply appreciate it, if you show your appreciation for ORCA by not just citing the generic ORCA reference.

Please note that relegating all ORCA citations to the supporting information does *not* help us.
SI sections are not indexed - citations you put there will not count into any citation statistics
But we need these citations in order to attract the funding resources that allow us to do what we are doing

Therefore, if you are a happy ORCA user, please consider citing a few of the papers listed below in the main body of your paper

In addition to the list printed below, the program has created the file xtb_opt.bibtex that contains the list in bibtex format
You can import this file easily into all common literature databanks and citation aid programs


List of essential papers. We consider these as the minimum necessary citations

  1. Neese,F.
     Software update: the ORCA program system, version 5.0
     WIRES Comput. Molec. Sci., 2022 12(1)e1606
     doi.org/10.1002/wcms.1606
  2. Grimme,S.; Hansen,A.; Ehlert,S.; Mewes,J.
     r2SCAN-3c: A 'Swiss army knife' composite electronic-structure method
     J. Chem. Phys., 2021 154 064103
     doi.org/10.1063/5.0040021

List of papers to cite with high priority. The work reported in these papers was absolutely
necessary for this run to complete.
Our perspective: the developers of density functionals and basis sets usually get cited in chemistry papers
Good! But without the algorithms to do something with them, the functionals or basis sets would not do anything.
Hence, in our opinion, the algorithm design and method developments papers are equally worthy of getting cited

  1. Neese,F.
     An improvement of the resolution of the identity approximation for the formation of the Coulomb matrix
     J. Comp. Chem., 2003 24(14)1740-1747
     doi.org/10.1002/jcc.10318
  2. Neese,F.
     The SHARK Integral Generation and Digestion System
     J. Comp. Chem., 2022  1-16
     doi.org/10.1002/jcc.26942
  3. Lehtola,S.; Steigemann,C.; Oliveira,M.; Marques,M.
     Recent developments in Libxc - A comprehensive library of functionals for density functional theory
     Software X, 2018 7 
     doi.org/10.1016/j.softx.2017.11.002
  4. Caldeweyher,E.; Bannwarth,C.; Grimme,S.
     Extension of the D3 dispersion coefficient model
     J. Chem. Phys., 2017 147 034112
     doi.org/10.1063/1.4993215
  5. Caldeweyher,E.; Ehlert,S.; Hansen,A.; Neugebauer,H.; Spicher,S.; Bannwarth,C.; Grimme,S.
     A generally applicable atomic-charge dependent London dispersion correction
     J. Chem. Phys., 2019 150 154122
     doi.org/10.1063/1.5090222
  6. Caldeweyher,E.; Mewes,J.; Ehlert,S.; Grimme,S.
     Extension and evaluation of the D4 London-dispersion model for periodic systems
     Phys. Chem. Chem. Phys., 2020 22(16)8499-8512
     doi.org/10.1039/D0CP00502A
  7. Wittmann,L.; Gordiy,I.; Friede,M.; Helmich-Paris,B.; Grimme,S.; Hansen,A.; Bursch,M.
     Extension of the D3 and D4 London Dispersion Corrections to the full Actinides Series
     Phys. Chem. Chem. Phys., 2024 26(32)21379-21394
     doi.org/https://doi.org/10.1039/D4CP01514B 

List of suggested additional citations. These are papers that are important in the 'surrounding' of 
of this run, or papers that preceded the highly important papers. If you like your results we are grateful for a citation.

  1. Neese,F.
     The ORCA program system
     WIRES Comput. Molec. Sci., 2012 2(1)73-78
     doi.org/10.1002/wcms.81
  2. Neese,F.
     Software update: the ORCA program system, version 4.0
     WIRES Comput. Molec. Sci., 2018 8(1)1-6
     doi.org/10.1002/wcms.1327
  3. Neese,F.; Wennmohs,F.; Becker,U.; Riplinger,C.
     The ORCA quantum chemistry program package
     J. Chem. Phys., 2020 152 Art. No. L224108
     doi.org/10.1063/5.0004608

List of optional additional citations

  1. Neese,F.
     Approximate second-order SCF convergence for spin unrestricted wavefunctions
     Chem. Phys. Lett., 2000 325(1-3)93-98
     doi.org/10.1016/s0009-2614(00)00662-x

Timings for individual modules:

Sum of individual times          ...       19.989 sec (=   0.333 min)
Startup calculation              ...        0.968 sec (=   0.016 min)   4.8 %
SCF iterations                   ...        8.689 sec (=   0.145 min)  43.5 %
Property calculations            ...        0.754 sec (=   0.013 min)   3.8 %
SCF Gradient evaluation          ...        9.579 sec (=   0.160 min)  47.9 %
                             ****ORCA TERMINATED NORMALLY****
TOTAL RUN TIME: 0 days 0 hours 0 minutes 21 seconds 791 msec
  ------------------------------------------------------------------------
          * successful ORCA run, taking over control again...

         :::::::::::::::::::::::::::::::::::::::::::::::::::::
         ::                  ORCA SUMMARY                   ::
         :::::::::::::::::::::::::::::::::::::::::::::::::::::
         :: total energy            -350.082843645531 Eh    ::
         :: gradient norm              0.000677253604 Eh/a0 ::
         :: HOMO-LUMO gap              0.000000000000 eV    ::
         :::::::::::::::::::::::::::::::::::::::::::::::::::::

           -------------------------------------------------
          |                Property Printout                |
           -------------------------------------------------
           -------------------------------------------------
          |                Geometry Summary                 |
           -------------------------------------------------

      molecular mass/u    :      120.1919121
   center of mass at/Å    :        0.0077187       0.0049079       0.0107449
  moments of inertia/u·Å² :        0.2019746E+03   0.3514365E+03   0.5075251E+03
rotational constants/cm⁻¹ :        0.8346412E-01   0.4796779E-01   0.3321537E-01

 * 19 selected distances

     #   Z          #   Z                                           value/Å
     1   6 C        2   6 C                                       1.5357113 (max)
     3   6 C        4   6 C                                       1.3963388
     4   6 C        5   6 C                                       1.3903435
     5   6 C        6   6 C                                       1.3899052
     6   6 C        7   6 C                                       1.3905437
     3   6 C        8   6 C                                       1.4063435
     7   6 C        8   6 C                                       1.3967450
     1   6 C       10   1 H                                       1.0943730
     1   6 C       11   1 H                                       1.0944189
     1   6 C       12   1 H                                       1.0940378
     2   6 C       13   1 H                                       1.0945488
     2   6 C       14   1 H                                       1.0957048
     4   6 C       15   1 H                                       1.0875163
     5   6 C       16   1 H                                       1.0853230
     6   6 C       17   1 H                                       1.0852887 (min)
     7   6 C       18   1 H                                       1.0867673
     9   6 C       19   1 H                                       1.0966123
     9   6 C       20   1 H                                       1.0949100
     9   6 C       21   1 H                                       1.0928673

 * 2 distinct bonds (by element types)

   Z      Z             #   av. dist./Å        max./Å        min./Å
   1 H    6 C          12     1.0918640     1.0966123     1.0852887
   6 C    6 C           7     1.4151330     1.5357113     1.3899052


optimized geometry written to: xtbopt.coord


           -------------------------------------------------
          | TOTAL ENERGY             -350.082843645531 Eh   |
          | GRADIENT NORM               0.000677253604 Eh/α |
           -------------------------------------------------

------------------------------------------------------------------------
 * finished run on 2025/04/15 at 19:59:15.215     
------------------------------------------------------------------------
 total:
 * wall-time:     0 d,  0 h,  4 min, 15.328 sec
 *  cpu-time:     0 d,  0 h,  0 min,  4.422 sec
 * ratio c/w:     0.017 speedup
 SCF:
 * wall-time:     0 d,  0 h,  0 min, 19.895 sec
 *  cpu-time:     0 d,  0 h,  0 min,  1.303 sec
 * ratio c/w:     0.066 speedup
 ANC optimizer:
 * wall-time:     0 d,  0 h,  3 min, 55.352 sec
 *  cpu-time:     0 d,  0 h,  0 min,  2.688 sec
 * ratio c/w:     0.011 speedup

