19
 energy: -26.286456113830 gnorm: 0.017795780916 xtb: 6.7.1 (edcfbbe)
C           -3.37109106515614       -0.12300526745823       -0.11048672017229
C           -2.18103098408825        0.80405035057573        0.11227389968324
C           -0.81262828153879        0.16152876666538        0.02949393118447
C           -0.63199807674817       -1.21313670275984       -0.13789744863126
C            0.65268613806847       -1.74823929032122       -0.20087271296274
C            1.77185801005961       -0.93279355916863       -0.09840781592245
C            1.59287710729122        0.44151859950162        0.06924426637918
C            0.31329594368239        0.98135990619840        0.13193248714593
O            2.64563910671536        1.31102816838772        0.17676921792271
H           -3.32609041851480       -0.60195073892096       -1.09391377183537
H           -4.30552878218665        0.44265971926312       -0.05709125614858
H           -3.41653074980732       -0.91025682161721        0.64857867796686
H           -2.27436815961947        1.28366147988939        1.09578670551704
H           -2.21758193501936        1.62298913142229       -0.61757082860490
H           -1.48666906622865       -1.87353551082293       -0.22236618196952
H            0.78440396505418       -2.81785274474688       -0.33216365148607
H            2.77227323354611       -1.35547937869227       -0.14937371534821
H            0.20596638483341        2.05465426744602        0.26128927315125
H            3.46886136819890        0.81380983365986        0.11705004723604
19
 energy: -26.287123356232 gnorm: 0.006145312463 xtb: 6.7.1 (edcfbbe)
C           -3.36326228326784       -0.12335110917286       -0.11055764276557
C           -2.17686568243361        0.80284441226520        0.11190149751721
C           -0.81515364051734        0.15755486640092        0.02881609961679
C           -0.62983156491121       -1.20987142478224       -0.13799269058121
C            0.64853403506560       -1.74090310792509       -0.20063605620558
C            1.76133645245727       -0.92682124540365       -0.09845406863486
C            1.58469949953643        0.44196996222350        0.06862648694785
C            0.30495752685061        0.97492041311062        0.13085630510397
O            2.63942104302637        1.30419932149909        0.17602310326857
H           -3.31306606407040       -0.59486765315788       -1.09162592941660
H           -4.29043808029681        0.44618838971384       -0.05667415209048
H           -3.40351479406794       -0.90212423355131        0.65032379756622
H           -2.27081975005743        1.27218327591751        1.09787173188895
H           -2.21440819578778        1.61359638848431       -0.62383183565532
H           -1.47778468313481       -1.87111763595865       -0.22071532707796
H            0.78059505785214       -2.80648324643038       -0.33078069929117
H            2.75847710232205       -1.34670099920007       -0.14798974168335
H            0.19763352664640        2.04234301758352        0.26069988388316
H            3.46383423333038        0.80745081688497        0.11641364071472
19
 energy: -26.287167940136 gnorm: 0.002164035617 xtb: 6.7.1 (edcfbbe)
C           -3.36156260904708       -0.12381756092703       -0.11069748833373
C           -2.17517317882912        0.80365496270080        0.11208314426725
C           -0.81641938084398        0.15624083516380        0.02874693565670
C           -0.63011347774873       -1.20968167457540       -0.13782137092852
C            0.64681288304231       -1.73960742392712       -0.20046253134214
C            1.75766961732008       -0.92447714049541       -0.09842546237773
C            1.58263217928156        0.44344653450964        0.06876274292411
C            0.30186113206251        0.97340020767774        0.13072723626495
O            2.63807151520911        1.30155763201310        0.17565864371250
H           -3.30821157376775       -0.59357231856910       -1.09032141201954
H           -4.28714760061910        0.44575505353192       -0.05742246467735
H           -3.39927721793729       -0.89985671322419        0.65040272287462
H           -2.26799567969050        1.27031922339269        1.09803395022046
H           -2.21140727869182        1.61185954334030       -0.62465697907963
H           -1.47593393086835       -1.87198112005624       -0.22045505648634
H            0.77912463067034       -2.80386941609551       -0.33074001701800
H            2.75425881383572       -1.34290553951066       -0.14791577786669
H            0.19406876828579        2.03923041655183        0.26067010388460
H            3.46308612687837        0.80531470700020        0.11610748342980
19
 energy: -26.287171270233 gnorm: 0.000895816623 xtb: 6.7.1 (edcfbbe)
C           -3.36177707707644       -0.12379999397074       -0.11076926173773
C           -2.17493731833620        0.80407893678305        0.11223397585842
C           -0.81664342450343        0.15593869441505        0.02887684347259
C           -0.63042611616272       -1.21007111637672       -0.13775507040411
C            0.64664298686848       -1.73988055691119       -0.20059309826182
C            1.75712220379762       -0.92405150563360       -0.09854706522170
C            1.58275864945402        0.44417859064287        0.06885086151647
C            0.30144314819972        0.97332502969346        0.13085537503933
O            2.63825656931814        1.30089076698005        0.17556715564105
H           -3.30702997778594       -0.59351379067628       -1.09013301152535
H           -4.28731837050266        0.44565736176522       -0.05806477849941
H           -3.39875386460309       -0.89923008014093        0.65071344045768
H           -2.26782386404521        1.27044537906400        1.09802271666546
H           -2.21100890606627        1.61188283922056       -0.62455240588852
H           -1.47595112985010       -1.87290745347070       -0.22030929088830
H            0.77920630983672       -2.80401363545901       -0.33084411052396
H            2.75395665110262       -1.34207266210478       -0.14813722695788
H            0.19312238323018        2.03916925601645        0.26085261788526
H            3.46350488566663        0.80498414866460        0.11600673647785
19
 energy: -26.287171937250 gnorm: 0.000420876639 xtb: 6.7.1 (edcfbbe)
C           -3.36205278138165       -0.12380391199915       -0.11087937354515
C           -2.17483617121116        0.80440272102286        0.11243673826827
C           -0.81664215506399        0.15576308420999        0.02912648196026
C           -0.63075961793803       -1.21040866438294       -0.13754592061299
C            0.64663045667150       -1.74020587624755       -0.20066101051005
C            1.75677591339317       -0.92385037195481       -0.09874038898510
C            1.58319405627636        0.44485032030844        0.06893787386326
C            0.30143821243453        0.97337053317930        0.13109475259251
O            2.63866180353775        1.30033420159217        0.17545681549266
H           -3.30625202559539       -0.59398637570615       -1.08999160613843
H           -4.28759039420463        0.44573130008886       -0.05913599130998
H           -3.39916582035102       -0.89873749882839        0.65113187861346
H           -2.26803567027896        1.27076511107797        1.09811388620809
H           -2.21084788775958        1.61209055610185       -0.62436451319973
H           -1.47616938618358       -1.87367536781731       -0.22001938887950
H            0.77952099615623       -2.80431474913289       -0.33109527095196
H            2.75399265036226       -1.34155160927865       -0.14865265481686
H            0.19230682946736        2.03938263316316        0.26121334729419
H            3.46417473021087        0.80485417310457        0.11584874776239
19
 energy: -26.287172081712 gnorm: 0.000064211236 xtb: 6.7.1 (edcfbbe)
C           -3.36197088380562       -0.12377605184581       -0.11089726758372
C           -2.17487152658128        0.80422834864383        0.11243468248523
C           -0.81657140421126        0.15579000818886        0.02917230278549
C           -0.63068419347089       -1.21030126987908       -0.13750746178461
C            0.64665654627426       -1.74009869423524       -0.20067726399238
C            1.75685439217925       -0.92392706336722       -0.09878826346854
C            1.58314481913318        0.44468077535238        0.06891829585301
C            0.30155263123781        0.97335424219376        0.13113245668881
O            2.63861867355467        1.30047113680183        0.17546220265381
H           -3.30636385714477       -0.59412511900348       -1.08997338758035
H           -4.28747976189178        0.44587348328884       -0.05928516637263
H           -3.39947434389211       -0.89873000579229        0.65112277905767
H           -2.26809157349058        1.27062327347161        1.09816639222432
H           -2.21087734126191        1.61202494390029       -0.62434735370136
H           -1.47614011010188       -1.87343540545985       -0.21991167299959
H            0.77950729596180       -2.80422637849208       -0.33107583123830
H            2.75400835277666       -1.34167710273690       -0.14872700238940
H            0.19243091202215        2.03931472579461        0.26125124372859
H            3.46409511125438        0.80494636167730        0.11580471873928
19
 energy: -26.287172097577 gnorm: 0.000021936300 xtb: 6.7.1 (edcfbbe)
C           -3.36193844929317       -0.12375399798495       -0.11094818953192
C           -2.17486551420592        0.80419545226524        0.11250023178872
C           -0.81656931026755        0.15575778167791        0.02924830619163
C           -0.63068798383270       -1.21031700685013       -0.13742214833256
C            0.64666198150891       -1.74009786947558       -0.20066207354762
C            1.75684545852109       -0.92393207441540       -0.09885203436120
C            1.58312207856363        0.44467611858350        0.06890657302954
C            0.30155363884753        0.97334264711661        0.13119225468255
O            2.63860969062619        1.30048722084231        0.17542685062501
H           -3.30616960316710       -0.59429236710675       -1.08992539884600
H           -4.28742169128181        0.44597067759923       -0.05966471863342
H           -3.39972301220079       -0.89858556203887        0.65118512243607
H           -2.26810558897919        1.27056053372398        1.09824979565638
H           -2.21079453200173        1.61204338427350       -0.62423729998634
H           -1.47614097444551       -1.87344501096067       -0.21977193016088
H            0.77952003943744       -2.80421565632175       -0.33112465822539
H            2.75400656631139       -1.34163779867624       -0.14889355013043
H            0.19234927221645        2.03927887767214        0.26135243937475
H            3.46409167218492        0.80497485857727        0.11571483107643
