      -----------------------------------------------------------      
     |                   =====================                   |     
     |                           x T B                           |     
     |                   =====================                   |     
     |                         S. Grimme                         |     
     |          Mulliken Center for Theoretical Chemistry        |     
     |                    University of Bonn                     |     
      -----------------------------------------------------------      

   * xtb version 6.7.1 (edcfbbe) compiled by 'albert@albert-system' on 2024-07-22

   xtb is free software: you can redistribute it and/or modify it under
   the terms of the GNU Lesser General Public License as published by
   the Free Software Foundation, either version 3 of the License, or
   (at your option) any later version.
   
   xtb is distributed in the hope that it will be useful,
   but WITHOUT ANY WARRANTY; without even the implied warranty of
   MERCHANTABILITY or FITNESS FOR A PARTICULAR PURPOSE.  See the
   GNU Lesser General Public License for more details.
   
   Cite this work as:
   * C. Bannwarth, E. Caldeweyher, S. Ehlert, A. Hansen, P. Pracht,
     J. Seibert, S. Spicher, S. Grimme, WIREs Comput. Mol. Sci., 2020, 11,
     e01493. DOI: 10.1002/wcms.1493
   
   for GFN2-xTB:
   * C. Bannwarth, S. Ehlert and S. Grimme., J. Chem. Theory Comput., 2019,
     15, 1652-1671. DOI: 10.1021/acs.jctc.8b01176
   for GFN1-xTB:
   * S. Grimme, C. Bannwarth, P. Shushkov, J. Chem. Theory Comput., 2017,
     13, 1989-2009. DOI: 10.1021/acs.jctc.7b00118
   for GFN0-xTB:
   * P. Pracht, E. Caldeweyher, S. Ehlert, S. Grimme, ChemRxiv, 2019, preprint.
     DOI: 10.26434/chemrxiv.8326202.v1
   for GFN-FF:
   * S. Spicher and S. Grimme, Angew. Chem. Int. Ed., 2020, 59, 15665-15673.
     DOI: 10.1002/anie.202004239
   
   for ALPB and GBSA implicit solvation:
   * S. Ehlert, M. Stahn, S. Spicher, S. Grimme, J. Chem. Theory Comput.,
     2021, 17, 4250-4261. DOI: 10.1021/acs.jctc.1c00471
   
   for ddCOSMO and CPCM-X implicit solvation:
   * M. Stahn, S. Ehlert, S. Grimme, J. Phys. Chem. A,
     2023, XX, XXXX-XXXX. DOI: 10.1021/acs.jpca.3c04382
   
   for DFT-D4:
   * E. Caldeweyher, C. Bannwarth and S. Grimme, J. Chem. Phys., 2017,
     147, 034112. DOI: 10.1063/1.4993215
   * E. Caldeweyher, S. Ehlert, A. Hansen, H. Neugebauer, S. Spicher,
     C. Bannwarth and S. Grimme, J. Chem. Phys., 2019, 150, 154122.
     DOI: 10.1063/1.5090222
   * E. Caldeweyher, J.-M. Mewes, S. Ehlert and S. Grimme, Phys. Chem. Chem. Phys.
     2020, 22, 8499-8512. DOI: 10.1039/D0CP00502A
   
   for sTDA-xTB:
   * S. Grimme and C. Bannwarth, J. Chem. Phys., 2016, 145, 054103.
     DOI: 10.1063/1.4959605
   
   in the mass-spec context:
   * V. Asgeirsson, C. Bauer and S. Grimme, Chem. Sci., 2017, 8, 4879.
     DOI: 10.1039/c7sc00601b
   * J. Koopman and S. Grimme, ACS Omega 2019, 4, 12, 15120-15133.
     DOI: 10.1021/acsomega.9b02011
   
   for metadynamics refer to:
   * S. Grimme, J. Chem. Theory Comput., 2019, 155, 2847-2862
     DOI: 10.1021/acs.jctc.9b00143
   
   for SPH calculations refer to:
   * S. Spicher and S. Grimme, J. Chem. Theory Comput., 2021, 17, 1701-1714
     DOI: 10.1021/acs.jctc.0c01306
   
   for ONIOM refer to:
   * C. Plett, A. Katbashev, S. Ehlert, S. Grimme, M. Bursch,
     Phys. Chem. Chem. Phys., 2023, 25, 17860-17868. DOI: 10.1039/D3CP02178E
   
   for DIPRO refer to:
   * J. Kohn, N. Gildemeister, S. Grimme, D. Fazzi, A. Hansen,
     J. Chem. Phys., 2023, just accepted.
   
   for PTB refer to:
   * S. Grimme, M. Mueller, A. Hansen, J. Chem. Phys., 2023, 158, 124111.
     DOI: 10.1063/5.0137838
   
   with help from (in alphabetical order)
   P. Atkinson, C. Bannwarth, F. Bohle, G. Brandenburg, E. Caldeweyher
   M. Checinski, S. Dohm, S. Ehlert, S. Ehrlich, I. Gerasimov, C. Hölzer
   A. Katbashev, J. Kohn, J. Koopman, C. Lavigne, S. Lehtola, F. März, M. Müller,
   F. Musil, H. Neugebauer, J. Pisarek, C. Plett, P. Pracht, F. Pultar,
   J. Seibert, P. Shushkov, S. Spicher, M. Stahn, M. Steiner, T. Strunk,
   J. Stückrath, T. Rose, and J. Unsleber
   
 * started run on 2025/04/15 at 20:37:09.662     
   ID    Z sym.   atoms
    1    6 C      1-7, 9
    2    8 O      8, 10
    3    1 H      11-20

           -------------------------------------------------
          |                Calculation Setup                |
           -------------------------------------------------

          program call               : /software/projects/pawsey0265/mwang1/xtb/bin/xtb xtb_rrho.coord --gfn2 --ohess vtight --chrg 0 --enso --norestart -I rrho-xcontrol-inp --parallel 1
          hostname                   : nid002800
          coordinate file            : xtb_rrho.coord
          omp threads                :                     1


           -------------------------------------------------
          |                 G F N 2 - x T B                 |
           -------------------------------------------------

        Reference                      10.1021/acs.jctc.8b01176
      * Hamiltonian:
        H0-scaling (s, p, d)           1.850000    2.230000    2.230000
        zeta-weighting                 0.500000
      * Dispersion:
        s8                             2.700000
        a1                             0.520000
        a2                             5.000000
        s9                             5.000000
      * Repulsion:
        kExp                           1.500000    1.000000
        rExp                           1.000000
      * Coulomb:
        alpha                          2.000000
        third order                    shell-resolved
        anisotropic                    true
        a3                             3.000000
        a5                             4.000000
        cn-shift                       1.200000
        cn-exp                         4.000000
        max-rad                        5.000000


          ...................................................
          :                      SETUP                      :
          :.................................................:
          :  # basis functions                  50          :
          :  # atomic orbitals                  50          :
          :  # shells                           30          :
          :  # electrons                        54          :
          :  max. iterations                   250          :
          :  Hamiltonian                  GFN2-xTB          :
          :  restarted?                      false          :
          :  GBSA solvation                  false          :
          :  PC potential                    false          :
          :  electronic temp.          300.0000000     K    :
          :  accuracy                    1.0000000          :
          :  -> integral cutoff          0.2500000E+02      :
          :  -> integral neglect         0.1000000E-07      :
          :  -> SCF convergence          0.1000000E-05 Eh   :
          :  -> wf. convergence          0.1000000E-03 e    :
          :  Broyden damping             0.4000000          :
          :  net charge                          0          :
          :  unpaired electrons                  0          :
          ...................................................

 iter      E             dE          RMSdq      gap      omega  full diag
   1    -30.7319648 -0.307320E+02  0.430E+00    3.90       0.0  T
   2    -30.7581969 -0.262321E-01  0.250E+00    4.08       1.0  T
   3    -30.7552487  0.294829E-02  0.832E-01    3.89       1.0  T
   4    -30.7600765 -0.482780E-02  0.311E-01    4.10       1.0  T
   5    -30.7610715 -0.995012E-03  0.929E-02    4.05       1.0  T
   6    -30.7610823 -0.107781E-04  0.471E-02    4.04       1.0  T
   7    -30.7610978 -0.155837E-04  0.162E-02    4.05       1.4  T
   8    -30.7610986 -0.753624E-06  0.448E-03    4.05       5.0  T
   9    -30.7610986 -0.403589E-07  0.207E-03    4.05      10.8  T
  10    -30.7610987 -0.326151E-07  0.957E-04    4.05      23.4  T
  11    -30.7610987 -0.533390E-08  0.271E-04    4.05      82.6  T

   *** convergence criteria satisfied after 11 iterations ***

         #    Occupation            Energy/Eh            Energy/eV
      -------------------------------------------------------------
         1        2.0000           -0.7200622             -19.5939
       ...           ...                  ...                  ...
        21        2.0000           -0.4674366             -12.7196
        22        2.0000           -0.4522359             -12.3060
        23        2.0000           -0.4356462             -11.8545
        24        2.0000           -0.4339259             -11.8077
        25        2.0000           -0.4220954             -11.4858
        26        2.0000           -0.3888607             -10.5814
        27        2.0000           -0.3631564              -9.8820 (HOMO)
        28                         -0.2144404              -5.8352 (LUMO)
        29                         -0.2071962              -5.6381
        30                         -0.0856192              -2.3298
        31                          0.0020905               0.0569
        32                          0.0760967               2.0707
       ...                                ...                  ...
        50                          0.6477375              17.6258
      -------------------------------------------------------------
                  HL-Gap            0.1487160 Eh            4.0468 eV
             Fermi-level           -0.2887984 Eh           -7.8586 eV

 SCC (total)                   0 d,  0 h,  0 min,  0.040 sec
 SCC setup                      ...        0 min,  0.000 sec (  0.510%)
 Dispersion                     ...        0 min,  0.000 sec (  0.317%)
 classical contributions        ...        0 min,  0.000 sec (  0.089%)
 integral evaluation            ...        0 min,  0.002 sec (  5.283%)
 iterations                     ...        0 min,  0.033 sec ( 81.815%)
 molecular gradient             ...        0 min,  0.005 sec ( 11.668%)
 printout                       ...        0 min,  0.000 sec (  0.270%)

         :::::::::::::::::::::::::::::::::::::::::::::::::::::
         ::                     SUMMARY                     ::
         :::::::::::::::::::::::::::::::::::::::::::::::::::::
         :: total energy             -30.356352350956 Eh    ::
         :: gradient norm              0.023412127936 Eh/a0 ::
         :: HOMO-LUMO gap              4.046768148070 eV    ::
         ::.................................................::
         :: SCC energy               -30.761047098896 Eh    ::
         :: -> isotropic ES            0.036159525950 Eh    ::
         :: -> anisotropic ES          0.003827627757 Eh    ::
         :: -> anisotropic XC          0.008212376363 Eh    ::
         :: -> dispersion             -0.015451337551 Eh    ::
         :: repulsion energy           0.404694747940 Eh    ::
         :: add. restraining           0.000000000000 Eh    ::
         :: total charge               0.000000000000 e     ::
         :::::::::::::::::::::::::::::::::::::::::::::::::::::

      ----------------------------------------------------------- 
     |                   =====================                   |
     |                        A N C O P T                        |
     |                   =====================                   |
     |               Approximate Normal Coordinate               |
     |                Rational Function Optimizer                |
      ----------------------------------------------------------- 
      ----------------------------------------------------------- 
     |                   =====================                   |
     |                        A N C O P T                        |
     |                   =====================                   |
     |               Approximate Normal Coordinate               |
     |                Rational Function Optimizer                |
      ----------------------------------------------------------- 

          ...................................................
          :                      SETUP                      :
          :.................................................:
          :   optimization level         verytight          :
          :   max. optcycles                   400          :
          :   ANC micro-cycles                  20          :
          :   degrees of freedom                54          :
          :.................................................:
          :   RF solver                   davidson          :
          :   write xtbopt.log                true          :
          :   linear?                        false          :
          :   energy convergence         0.1000000E-06 Eh   :
          :   grad. convergence          0.2000000E-03 Eh/α :
          :   maxmium RF displ.          1.0000000          :
          :   Hlow (freq-cutoff)         0.1000000E-01      :
          :   Hmax (freq-cutoff)         5.0000000          :
          :   S6 in model hess.         20.0000000          :
          ...................................................

generating ANC from exact Hessian ...
Using Lindh-Hessian (1995)
 Shifting diagonal of input Hessian by   7.523987848930434E-003
 Lowest  eigenvalues of input Hessian
    0.000000    0.000000    0.000000    0.000000    0.000000    0.000000
    0.010000    0.011558    0.012592    0.013161    0.016196    0.021752
    0.024751    0.024811    0.031756    0.034693    0.046303    0.047740
 Highest eigenvalues
    1.528405    1.660425    1.765989    1.887864    2.027375    2.119762
 

........................................................................
.............................. CYCLE    1 ..............................
........................................................................

 iter      E             dE          RMSdq      gap      omega  full diag
   1    -30.7610987 -0.307611E+02  0.152E-04    4.05       0.0  T
   2    -30.7610987 -0.984599E-10  0.928E-05    4.05     241.0  T
   3    -30.7610987 -0.764047E-10  0.586E-05    4.05     381.8  T
     SCC iter.                  ...        0 min,  0.001 sec
     gradient                   ...        0 min,  0.005 sec
 * total energy  :   -30.3563524 Eh     change       -0.1721467E-09 Eh
   gradient norm :     0.0234147 Eh/α   predicted     0.0000000E+00 (-100.00%)
   displ. norm   :     0.0970055 α      lambda       -0.1197329E-02
   maximum displ.:     0.0707935 α      in ANC's #11, #14, #32, ...

........................................................................
.............................. CYCLE    2 ..............................
........................................................................

 iter      E             dE          RMSdq      gap      omega  full diag
   1    -30.7737041 -0.307737E+02  0.837E-02    4.08       0.0  T
   2    -30.7737085 -0.444217E-05  0.526E-02    4.08       1.0  T
   3    -30.7737024  0.610189E-05  0.202E-02    4.08       1.1  T
   4    -30.7737107 -0.823547E-05  0.372E-03    4.08       6.0  T
   5    -30.7737108 -0.922432E-07  0.189E-03    4.08      11.8  T
   6    -30.7737108 -0.217020E-08  0.976E-04    4.08      22.9  T
   7    -30.7737108 -0.705223E-08  0.295E-04    4.08      75.9  T
     SCC iter.                  ...        0 min,  0.003 sec
     gradient                   ...        0 min,  0.005 sec
 * total energy  :   -30.3570949 Eh     change       -0.7425248E-03 Eh
   gradient norm :     0.0091468 Eh/α   predicted    -0.6042993E-03 ( -18.62%)
   displ. norm   :     0.0318799 α      lambda       -0.1294637E-03
   maximum displ.:     0.0226588 α      in ANC's #11, #27, #4, ...

........................................................................
.............................. CYCLE    3 ..............................
........................................................................

 iter      E             dE          RMSdq      gap      omega  full diag
   1    -30.7772104 -0.307772E+02  0.300E-02    4.09       0.0  T
   2    -30.7772115 -0.109393E-05  0.179E-02    4.09       1.3  T
   3    -30.7772113  0.251023E-06  0.971E-03    4.09       2.3  T
   4    -30.7772120 -0.703640E-06  0.156E-03    4.09      14.3  T
   5    -30.7772120 -0.104997E-07  0.842E-04    4.09      26.6  T
   6    -30.7772120 -0.109804E-08  0.452E-04    4.09      49.4  T
     SCC iter.                  ...        0 min,  0.002 sec
     gradient                   ...        0 min,  0.005 sec
 * total energy  :   -30.3571678 Eh     change       -0.7290041E-04 Eh
   gradient norm :     0.0031274 Eh/α   predicted    -0.6482298E-04 ( -11.08%)
   displ. norm   :     0.0088809 α      lambda       -0.1090076E-04
   maximum displ.:     0.0047609 α      in ANC's #4, #1, #5, ...

........................................................................
.............................. CYCLE    4 ..............................
........................................................................

 iter      E             dE          RMSdq      gap      omega  full diag
   1    -30.7770193 -0.307770E+02  0.958E-03    4.09       0.0  T
   2    -30.7770195 -0.125421E-06  0.555E-03    4.09       4.0  T
   3    -30.7770194  0.119879E-07  0.335E-03    4.09       6.7  T
   4    -30.7770195 -0.659914E-07  0.459E-04    4.09      48.7  T
   5    -30.7770195 -0.106980E-08  0.229E-04    4.09      97.7  T
     SCC iter.                  ...        0 min,  0.002 sec
     gradient                   ...        0 min,  0.005 sec
 * total energy  :   -30.3571755 Eh     change       -0.7759213E-05 Eh
   gradient norm :     0.0012013 Eh/α   predicted    -0.5720128E-05 ( -26.28%)
   displ. norm   :     0.0126409 α      lambda       -0.2407176E-05
   maximum displ.:     0.0066638 α      in ANC's #1, #5, #4, ...

........................................................................
.............................. CYCLE    5 ..............................
........................................................................

 iter      E             dE          RMSdq      gap      omega  full diag
   1    -30.7763497 -0.307763E+02  0.937E-03    4.09       0.0  T
   2    -30.7763498 -0.851278E-07  0.550E-03    4.09       4.1  T
   3    -30.7763497  0.327356E-07  0.304E-03    4.09       7.3  T
   4    -30.7763498 -0.693277E-07  0.381E-04    4.09      58.7  T
   5    -30.7763498 -0.887020E-09  0.172E-04    4.09     130.1  T
     SCC iter.                  ...        0 min,  0.002 sec
     gradient                   ...        0 min,  0.005 sec
 * total energy  :   -30.3571773 Eh     change       -0.1718348E-05 Eh
   gradient norm :     0.0006378 Eh/α   predicted    -0.1705971E-05 (  -0.72%)
   displ. norm   :     0.0030161 α      lambda       -0.4593597E-06
   maximum displ.:     0.0021597 α      in ANC's #5, #1, #4, ...

........................................................................
.............................. CYCLE    6 ..............................
........................................................................

 iter      E             dE          RMSdq      gap      omega  full diag
   1    -30.7764851 -0.307765E+02  0.257E-03    4.09       0.0  T
   2    -30.7764852 -0.713944E-08  0.151E-03    4.09      14.8  T
   3    -30.7764851  0.269342E-08  0.840E-04    4.09      26.6  T
   4    -30.7764852 -0.551517E-08  0.106E-04    4.09     210.5  T
     SCC iter.                  ...        0 min,  0.002 sec
     gradient                   ...        0 min,  0.005 sec
 * total energy  :   -30.3571777 Eh     change       -0.4862281E-06 Eh
   gradient norm :     0.0001256 Eh/α   predicted    -0.2544233E-06 ( -47.67%)
   displ. norm   :     0.0074676 α      lambda       -0.2496386E-06
   maximum displ.:     0.0061041 α      in ANC's #5, #1, #2, ...

........................................................................
.............................. CYCLE    7 ..............................
........................................................................

 iter      E             dE          RMSdq      gap      omega  full diag
   1    -30.7765597 -0.307766E+02  0.204E-03    4.09       0.0  T
   2    -30.7765597 -0.121415E-08  0.123E-03    4.09      18.2  T
   3    -30.7765597  0.142878E-08  0.293E-04    4.09      76.3  T
   4    -30.7765597 -0.168105E-08  0.585E-05    4.09     381.9  T
     SCC iter.                  ...        0 min,  0.002 sec
     gradient                   ...        0 min,  0.005 sec
 * total energy  :   -30.3571781 Eh     change       -0.3234776E-06 Eh
   gradient norm :     0.0001180 Eh/α   predicted    -0.1252440E-06 ( -61.28%)
   displ. norm   :     0.0153261 α      lambda       -0.3751103E-06
   maximum displ.:     0.0121143 α      in ANC's #5, #1, #2, ...

........................................................................
.............................. CYCLE    8 ..............................
........................................................................

 iter      E             dE          RMSdq      gap      omega  full diag
   1    -30.7765986 -0.307766E+02  0.381E-03    4.09       0.0  T
   2    -30.7765986 -0.139658E-08  0.230E-03    4.09       9.7  T
   3    -30.7765986  0.461533E-09  0.202E-04    4.09     110.9  T
   4    -30.7765986 -0.705921E-09  0.701E-05    4.09     319.1  T
     SCC iter.                  ...        0 min,  0.002 sec
     gradient                   ...        0 min,  0.005 sec
 * total energy  :   -30.3571786 Eh     change       -0.5758075E-06 Eh
   gradient norm :     0.0002851 Eh/α   predicted    -0.2079504E-06 ( -63.89%)
   displ. norm   :     0.0226567 α      lambda       -0.5942174E-06
   maximum displ.:     0.0173828 α      in ANC's #5, #1, #2, ...

........................................................................
.............................. CYCLE    9 ..............................
........................................................................

 iter      E             dE          RMSdq      gap      omega  full diag
   1    -30.7766042 -0.307766E+02  0.566E-03    4.09       0.0  T
   2    -30.7766042 -0.123251E-08  0.341E-03    4.09       6.6  T
   3    -30.7766042  0.153896E-09  0.233E-04    4.09      95.9  T
   4    -30.7766042 -0.689610E-09  0.777E-05    4.09     287.6  T
     SCC iter.                  ...        0 min,  0.002 sec
     gradient                   ...        0 min,  0.005 sec
 * total energy  :   -30.3571795 Eh     change       -0.8627022E-06 Eh
   gradient norm :     0.0003500 Eh/α   predicted    -0.2977765E-06 ( -65.48%)
   displ. norm   :     0.0351528 α      lambda       -0.9480063E-06
   maximum displ.:     0.0268806 α      in ANC's #5, #1, #2, ...

........................................................................
.............................. CYCLE   10 ..............................
........................................................................

 iter      E             dE          RMSdq      gap      omega  full diag
   1    -30.7765686 -0.307766E+02  0.885E-03    4.09       0.0  T
   2    -30.7765686 -0.281549E-08  0.534E-03    4.09       4.2  T
   3    -30.7765686  0.149892E-08  0.398E-04    4.09      56.2  T
   4    -30.7765686 -0.299343E-08  0.124E-04    4.09     180.1  T
     SCC iter.                  ...        0 min,  0.002 sec
     gradient                   ...        0 min,  0.005 sec
 * total energy  :   -30.3571809 Eh     change       -0.1370493E-05 Eh
   gradient norm :     0.0003264 Eh/α   predicted    -0.4749162E-06 ( -65.35%)
   displ. norm   :     0.0447943 α      lambda       -0.1218130E-05
   maximum displ.:     0.0345436 α      in ANC's #5, #1, #2, ...

........................................................................
.............................. CYCLE   11 ..............................
........................................................................

 iter      E             dE          RMSdq      gap      omega  full diag
   1    -30.7765101 -0.307765E+02  0.113E-02    4.09       0.0  T
   2    -30.7765101 -0.530659E-08  0.679E-03    4.09       3.3  T
   3    -30.7765101  0.515205E-08  0.593E-04    4.09      37.7  T
   4    -30.7765101 -0.789833E-08  0.163E-04    4.09     137.3  T
     SCC iter.                  ...        0 min,  0.002 sec
     gradient                   ...        0 min,  0.005 sec
 * total energy  :   -30.3571826 Eh     change       -0.1729835E-05 Eh
   gradient norm :     0.0002615 Eh/α   predicted    -0.6108002E-06 ( -64.69%)
   displ. norm   :     0.0436830 α      lambda       -0.1199977E-05
   maximum displ.:     0.0343545 α      in ANC's #5, #1, #2, ...

........................................................................
.............................. CYCLE   12 ..............................
........................................................................

 iter      E             dE          RMSdq      gap      omega  full diag
   1    -30.7764630 -0.307765E+02  0.108E-02    4.09       0.0  T
   2    -30.7764630 -0.519832E-08  0.654E-03    4.09       3.4  T
   3    -30.7764630  0.517174E-08  0.585E-04    4.09      38.2  T
   4    -30.7764630 -0.774599E-08  0.156E-04    4.09     143.3  T
     SCC iter.                  ...        0 min,  0.002 sec
     gradient                   ...        0 min,  0.005 sec
 * total energy  :   -30.3571843 Eh     change       -0.1678369E-05 Eh
   gradient norm :     0.0002180 Eh/α   predicted    -0.6047788E-06 ( -63.97%)
   displ. norm   :     0.0378611 α      lambda       -0.1058709E-05
   maximum displ.:     0.0307190 α      in ANC's #5, #1, #2, ...

........................................................................
.............................. CYCLE   13 ..............................
........................................................................

 iter      E             dE          RMSdq      gap      omega  full diag
   1    -30.7764532 -0.307765E+02  0.916E-03    4.09       0.0  T
   2    -30.7764532 -0.373429E-08  0.553E-03    4.09       4.0  T
   3    -30.7764532  0.461153E-08  0.529E-04    4.09      42.3  T
   4    -30.7764532 -0.645163E-08  0.126E-04    4.09     177.1  T
     SCC iter.                  ...        0 min,  0.002 sec
     gradient                   ...        0 min,  0.005 sec
 * total energy  :   -30.3571858 Eh     change       -0.1507804E-05 Eh
   gradient norm :     0.0001874 Eh/α   predicted    -0.5345091E-06 ( -64.55%)
   displ. norm   :     0.0324092 α      lambda       -0.9478508E-06
   maximum displ.:     0.0273632 α      in ANC's #5, #2, #1, ...

........................................................................
.............................. CYCLE   14 ..............................
........................................................................

 iter      E             dE          RMSdq      gap      omega  full diag
   1    -30.7764692 -0.307765E+02  0.763E-03    4.09       0.0  T
   2    -30.7764692 -0.240282E-08  0.460E-03    4.09       4.9  T
   3    -30.7764692  0.333062E-08  0.445E-04    4.09      50.3  T
   4    -30.7764692 -0.453740E-08  0.984E-05    4.09     227.3  T
     SCC iter.                  ...        0 min,  0.002 sec
     gradient                   ...        0 min,  0.005 sec
 * total energy  :   -30.3571872 Eh     change       -0.1380276E-05 Eh
   gradient norm :     0.0001790 Eh/α   predicted    -0.4743325E-06 ( -65.63%)
   displ. norm   :     0.0317297 α      lambda       -0.9920835E-06
   maximum displ.:     0.0277963 α      in ANC's #5, #2, #1, ...

........................................................................
.............................. CYCLE   15 ..............................
........................................................................

 iter      E             dE          RMSdq      gap      omega  full diag
   1    -30.7764822 -0.307765E+02  0.737E-03    4.09       0.0  T
   2    -30.7764822 -0.184412E-08  0.445E-03    4.09       5.0  T
   3    -30.7764822  0.226829E-08  0.380E-04    4.09      58.9  T
   4    -30.7764822 -0.325882E-08  0.909E-05    4.09     246.0  T
     SCC iter.                  ...        0 min,  0.002 sec
     gradient                   ...        0 min,  0.005 sec
 * total energy  :   -30.3571886 Eh     change       -0.1462097E-05 Eh
   gradient norm :     0.0001726 Eh/α   predicted    -0.4964410E-06 ( -66.05%)
   displ. norm   :     0.0279613 α      lambda       -0.9582802E-06
   maximum displ.:     0.0254400 α      in ANC's #5, #2, #6, ...

........................................................................
.............................. CYCLE   16 ..............................
........................................................................

 iter      E             dE          RMSdq      gap      omega  full diag
   1    -30.7765015 -0.307765E+02  0.664E-03    4.09       0.0  T
   2    -30.7765015 -0.142471E-08  0.400E-03    4.09       5.6  T
   3    -30.7765015  0.115868E-08  0.297E-04    4.09      75.3  T
   4    -30.7765015 -0.191733E-08  0.875E-05    4.09     255.5  T
     SCC iter.                  ...        0 min,  0.002 sec
     gradient                   ...        0 min,  0.005 sec
 * total energy  :   -30.3571901 Eh     change       -0.1424394E-05 Eh
   gradient norm :     0.0001478 Eh/α   predicted    -0.4796966E-06 ( -66.32%)
   displ. norm   :     0.0295999 α      lambda       -0.1077129E-05
   maximum displ.:     0.0276094 α      in ANC's #5, #2, #6, ...

........................................................................
.............................. CYCLE   17 ..............................
........................................................................

 iter      E             dE          RMSdq      gap      omega  full diag
   1    -30.7765173 -0.307765E+02  0.732E-03    4.09       0.0  T
   2    -30.7765173 -0.182576E-08  0.440E-03    4.09       5.1  T
   3    -30.7765173  0.781220E-09  0.298E-04    4.09      75.0  T
   4    -30.7765173 -0.173984E-08  0.106E-04    4.09     211.1  T
     SCC iter.                  ...        0 min,  0.002 sec
     gradient                   ...        0 min,  0.005 sec
 * total energy  :   -30.3571917 Eh     change       -0.1601697E-05 Eh
   gradient norm :     0.0001151 Eh/α   predicted    -0.5389611E-06 ( -66.35%)
   displ. norm   :     0.0290489 α      lambda       -0.1090957E-05
   maximum displ.:     0.0275337 α      in ANC's #5, #2, #6, ...

........................................................................
.............................. CYCLE   18 ..............................
........................................................................

 iter      E             dE          RMSdq      gap      omega  full diag
   1    -30.7765226 -0.307765E+02  0.749E-03    4.09       0.0  T
   2    -30.7765226 -0.203460E-08  0.451E-03    4.09       5.0  T
   3    -30.7765226  0.957879E-09  0.322E-04    4.09      69.4  T
   4    -30.7765226 -0.204512E-08  0.116E-04    4.09     193.3  T
     SCC iter.                  ...        0 min,  0.002 sec
     gradient                   ...        0 min,  0.005 sec
 * total energy  :   -30.3571933 Eh     change       -0.1617246E-05 Eh
   gradient norm :     0.0000905 Eh/α   predicted    -0.5490429E-06 ( -66.05%)
   displ. norm   :     0.0300209 α      lambda       -0.1131742E-05
   maximum displ.:     0.0287496 α      in ANC's #5, #6, #2, ...

........................................................................
.............................. CYCLE   19 ..............................
........................................................................

 iter      E             dE          RMSdq      gap      omega  full diag
   1    -30.7765277 -0.307765E+02  0.793E-03    4.09       0.0  T
   2    -30.7765277 -0.235386E-08  0.476E-03    4.09       4.7  T
   3    -30.7765277  0.634191E-09  0.321E-04    4.09      69.7  T
   4    -30.7765277 -0.184864E-08  0.126E-04    4.09     177.5  T
     SCC iter.                  ...        0 min,  0.002 sec
     gradient                   ...        0 min,  0.005 sec
 * total energy  :   -30.3571949 Eh     change       -0.1662259E-05 Eh
   gradient norm :     0.0000810 Eh/α   predicted    -0.5676286E-06 ( -65.85%)
   displ. norm   :     0.0362436 α      lambda       -0.1331244E-05
   maximum displ.:     0.0347918 α      in ANC's #5, #6, #2, ...

........................................................................
.............................. CYCLE   20 ..............................
........................................................................

 iter      E             dE          RMSdq      gap      omega  full diag
   1    -30.7765227 -0.307765E+02  0.964E-03    4.09       0.0  T
   2    -30.7765228 -0.353660E-08  0.579E-03    4.09       3.9  T
   3    -30.7765227  0.136625E-08  0.411E-04    4.09      54.4  T
   4    -30.7765228 -0.317511E-08  0.154E-04    4.09     145.5  T
     SCC iter.                  ...        0 min,  0.002 sec
     gradient                   ...        0 min,  0.005 sec
 * total energy  :   -30.3571969 Eh     change       -0.1929360E-05 Eh
   gradient norm :     0.0001225 Eh/α   predicted    -0.6681897E-06 ( -65.37%)
   displ. norm   :     0.0531908 α      lambda       -0.1851494E-05
   maximum displ.:     0.0510554 α      in ANC's #5, #6, #2, ...
 * RMSD in coord.:     0.1116587 α      energy gain  -0.8445150E-03 Eh

generating ANC from exact Hessian ...
Using Lindh-Hessian (1995)
 Shifting diagonal of input Hessian by   7.404541037156727E-003
 Lowest  eigenvalues of input Hessian
    0.000000    0.000000    0.000000    0.000000    0.000000    0.000000
    0.010000    0.011667    0.012635    0.013223    0.016606    0.022402
    0.025453    0.025495    0.032979    0.035137    0.047499    0.049323
 Highest eigenvalues
    1.571093    1.696695    1.796728    1.920250    2.057645    2.150216
 

........................................................................
.............................. CYCLE   21 ..............................
........................................................................

 iter      E             dE          RMSdq      gap      omega  full diag
   1    -30.7764804 -0.307765E+02  0.140E-02    4.09       0.0  T
   2    -30.7764804 -0.776308E-08  0.844E-03    4.09       2.7  T
   3    -30.7764804  0.313173E-08  0.612E-04    4.09      36.5  T
   4    -30.7764804 -0.695222E-08  0.224E-04    4.09      99.7  T
     SCC iter.                  ...        0 min,  0.002 sec
     gradient                   ...        0 min,  0.005 sec
 * total energy  :   -30.3571995 Eh     change       -0.2615379E-05 Eh
   gradient norm :     0.0002515 Eh/α   predicted     0.0000000E+00 (-100.00%)
   displ. norm   :     0.0047578 α      lambda       -0.8123966E-07
   maximum displ.:     0.0042876 α      in ANC's #5, #1, #2, ...

........................................................................
.............................. CYCLE   22 ..............................
........................................................................

 iter      E             dE          RMSdq      gap      omega  full diag
   1    -30.7765819 -0.307766E+02  0.170E-03    4.09       0.0  T
   2    -30.7765819 -0.369189E-08  0.964E-04    4.09      23.2  T
   3    -30.7765819  0.269843E-09  0.309E-04    4.09      72.3  T
     SCC iter.                  ...        0 min,  0.001 sec
     gradient                   ...        0 min,  0.005 sec
 * total energy  :   -30.3571998 Eh     change       -0.2908463E-06 Eh
   gradient norm :     0.0000931 Eh/α   predicted    -0.1363292E-06 ( -53.13%)
   displ. norm   :     0.0103678 α      lambda       -0.3144534E-06
   maximum displ.:     0.0092174 α      in ANC's #5, #1, #2, ...

........................................................................
.............................. CYCLE   23 ..............................
........................................................................

 iter      E             dE          RMSdq      gap      omega  full diag
   1    -30.7766313 -0.307766E+02  0.259E-03    4.09       0.0  T
   2    -30.7766313 -0.108203E-08  0.155E-03    4.09      14.4  T
   3    -30.7766313  0.134929E-09  0.153E-04    4.09     145.8  T
   4    -30.7766313 -0.259792E-09  0.554E-05    4.09     403.9  T
     SCC iter.                  ...        0 min,  0.002 sec
     gradient                   ...        0 min,  0.005 sec
 * total energy  :   -30.3572002 Eh     change       -0.4431384E-06 Eh
   gradient norm :     0.0002423 Eh/α   predicted    -0.1603936E-06 ( -63.81%)
   displ. norm   :     0.0130386 α      lambda       -0.3980320E-06
   maximum displ.:     0.0106852 α      in ANC's #5, #1, #2, ...

........................................................................
.............................. CYCLE   24 ..............................
........................................................................

 iter      E             dE          RMSdq      gap      omega  full diag
   1    -30.7766298 -0.307766E+02  0.318E-03    4.09       0.0  T
   2    -30.7766298 -0.474216E-09  0.192E-03    4.09      11.6  T
   3    -30.7766298  0.550976E-09  0.192E-04    4.09     116.2  T
   4    -30.7766298 -0.781611E-09  0.454E-05    4.09     492.3  T
     SCC iter.                  ...        0 min,  0.002 sec
     gradient                   ...        0 min,  0.005 sec
 * total energy  :   -30.3572008 Eh     change       -0.6077089E-06 Eh
   gradient norm :     0.0002525 Eh/α   predicted    -0.2052330E-06 ( -66.23%)
   displ. norm   :     0.0297689 α      lambda       -0.9522911E-06
   maximum displ.:     0.0240145 α      in ANC's #5, #1, #2, ...

........................................................................
.............................. CYCLE   25 ..............................
........................................................................

 iter      E             dE          RMSdq      gap      omega  full diag
   1    -30.7765784 -0.307766E+02  0.729E-03    4.09       0.0  T
   2    -30.7765784 -0.288318E-08  0.439E-03    4.09       5.1  T
   3    -30.7765784  0.122892E-08  0.346E-04    4.09      64.6  T
   4    -30.7765784 -0.224436E-08  0.114E-04    4.09     197.0  T
     SCC iter.                  ...        0 min,  0.002 sec
     gradient                   ...        0 min,  0.005 sec
 * total energy  :   -30.3572022 Eh     change       -0.1379067E-05 Eh
   gradient norm :     0.0001445 Eh/α   predicted    -0.4775000E-06 ( -65.38%)
   displ. norm   :     0.0446025 α      lambda       -0.1346347E-05
   maximum displ.:     0.0359829 α      in ANC's #5, #1, #2, ...

........................................................................
.............................. CYCLE   26 ..............................
........................................................................

 iter      E             dE          RMSdq      gap      omega  full diag
   1    -30.7764757 -0.307765E+02  0.109E-02    4.09       0.0  T
   2    -30.7764757 -0.734393E-08  0.656E-03    4.09       3.4  T
   3    -30.7764757  0.947921E-09  0.436E-04    4.09      51.3  T
   4    -30.7764757 -0.292665E-08  0.176E-04    4.09     127.3  T
     SCC iter.                  ...        0 min,  0.002 sec
     gradient                   ...        0 min,  0.005 sec
 * total energy  :   -30.3572040 Eh     change       -0.1831235E-05 Eh
   gradient norm :     0.0002946 Eh/α   predicted    -0.6779005E-06 ( -62.98%)
   displ. norm   :     0.0376435 α      lambda       -0.1016210E-05
   maximum displ.:     0.0306445 α      in ANC's #5, #1, #2, ...

........................................................................
.............................. CYCLE   27 ..............................
........................................................................

 iter      E             dE          RMSdq      gap      omega  full diag
   1    -30.7763971 -0.307764E+02  0.908E-03    4.09       0.0  T
   2    -30.7763971 -0.477311E-08  0.548E-03    4.09       4.1  T
   3    -30.7763971  0.130849E-08  0.397E-04    4.09      56.3  T
   4    -30.7763971 -0.269548E-08  0.142E-04    4.09     157.6  T
     SCC iter.                  ...        0 min,  0.002 sec
     gradient                   ...        0 min,  0.005 sec
 * total energy  :   -30.3572054 Eh     change       -0.1367242E-05 Eh
   gradient norm :     0.0005406 Eh/α   predicted    -0.5092757E-06 ( -62.75%)
   displ. norm   :     0.0225141 α      lambda       -0.6868960E-06
   maximum displ.:     0.0186772 α      in ANC's #5, #1, #2, ...

........................................................................
.............................. CYCLE   28 ..............................
........................................................................

 iter      E             dE          RMSdq      gap      omega  full diag
   1    -30.7763931 -0.307764E+02  0.531E-03    4.09       0.0  T
   2    -30.7763931 -0.977426E-09  0.320E-03    4.09       7.0  T
   3    -30.7763931  0.986038E-09  0.277E-04    4.09      80.8  T
   4    -30.7763931 -0.150472E-08  0.661E-05    4.09     338.4  T
     SCC iter.                  ...        0 min,  0.002 sec
     gradient                   ...        0 min,  0.005 sec
 * total energy  :   -30.3572064 Eh     change       -0.1004119E-05 Eh
   gradient norm :     0.0005603 Eh/α   predicted    -0.3503956E-06 ( -65.10%)
   displ. norm   :     0.0240885 α      lambda       -0.9576274E-06
   maximum displ.:     0.0206346 α      in ANC's #5, #1, #2, ...

........................................................................
.............................. CYCLE   29 ..............................
........................................................................

 iter      E             dE          RMSdq      gap      omega  full diag
   1    -30.7764452 -0.307764E+02  0.560E-03    4.09       0.0  T
   2    -30.7764452 -0.167364E-08  0.338E-03    4.09       6.6  T
   3    -30.7764452  0.123287E-08  0.297E-04    4.09      75.2  T
   4    -30.7764452 -0.180676E-08  0.815E-05    4.09     274.5  T
     SCC iter.                  ...        0 min,  0.002 sec
     gradient                   ...        0 min,  0.005 sec
 * total energy  :   -30.3572077 Eh     change       -0.1339975E-05 Eh
   gradient norm :     0.0004277 Eh/α   predicted    -0.4796819E-06 ( -64.20%)
   displ. norm   :     0.0321629 α      lambda       -0.1254124E-05
   maximum displ.:     0.0283898 α      in ANC's #5, #1, #2, ...

........................................................................
.............................. CYCLE   30 ..............................
........................................................................

 iter      E             dE          RMSdq      gap      omega  full diag
   1    -30.7765041 -0.307765E+02  0.755E-03    4.09       0.0  T
   2    -30.7765041 -0.312880E-08  0.455E-03    4.09       4.9  T
   3    -30.7765041  0.330922E-08  0.443E-04    4.09      50.4  T
   4    -30.7765041 -0.443308E-08  0.110E-04    4.09     202.9  T
     SCC iter.                  ...        0 min,  0.002 sec
     gradient                   ...        0 min,  0.005 sec
 * total energy  :   -30.3572095 Eh     change       -0.1722336E-05 Eh
   gradient norm :     0.0002376 Eh/α   predicted    -0.6307742E-06 ( -63.38%)
   displ. norm   :     0.0396825 α      lambda       -0.1354356E-05
   maximum displ.:     0.0354829 α      in ANC's #5, #1, #2, ...

........................................................................
.............................. CYCLE   31 ..............................
........................................................................

 iter      E             dE          RMSdq      gap      omega  full diag
   1    -30.7765445 -0.307765E+02  0.926E-03    4.09       0.0  T
   2    -30.7765445 -0.322722E-08  0.558E-03    4.09       4.0  T
   3    -30.7765445  0.372893E-08  0.481E-04    4.09      46.5  T
   4    -30.7765445 -0.532963E-08  0.119E-04    4.09     188.1  T
     SCC iter.                  ...        0 min,  0.002 sec
     gradient                   ...        0 min,  0.005 sec
 * total energy  :   -30.3572114 Eh     change       -0.1912879E-05 Eh
   gradient norm :     0.0001323 Eh/α   predicted    -0.6794531E-06 ( -64.48%)
   displ. norm   :     0.0424279 α      lambda       -0.1367191E-05
   maximum displ.:     0.0383425 α      in ANC's #5, #2, #1, ...

........................................................................
.............................. CYCLE   32 ..............................
........................................................................

 iter      E             dE          RMSdq      gap      omega  full diag
   1    -30.7765392 -0.307765E+02  0.992E-03    4.09       0.0  T
   2    -30.7765392 -0.329086E-08  0.598E-03    4.09       3.7  T
   3    -30.7765392  0.397628E-08  0.503E-04    4.09      44.4  T
   4    -30.7765392 -0.579688E-08  0.127E-04    4.09     175.6  T
     SCC iter.                  ...        0 min,  0.002 sec
     gradient                   ...        0 min,  0.005 sec
 * total energy  :   -30.3572134 Eh     change       -0.1994405E-05 Eh
   gradient norm :     0.0001550 Eh/α   predicted    -0.6851006E-06 ( -65.65%)
   displ. norm   :     0.0555355 α      lambda       -0.1803069E-05
   maximum displ.:     0.0505687 α      in ANC's #5, #2, #1, ...

........................................................................
.............................. CYCLE   33 ..............................
........................................................................

 iter      E             dE          RMSdq      gap      omega  full diag
   1    -30.7764800 -0.307765E+02  0.131E-02    4.09       0.0  T
   2    -30.7764800 -0.664588E-08  0.787E-03    4.09       2.8  T
   3    -30.7764800  0.455054E-08  0.599E-04    4.09      37.3  T
   4    -30.7764800 -0.750731E-08  0.182E-04    4.09     122.7  T
     SCC iter.                  ...        0 min,  0.002 sec
     gradient                   ...        0 min,  0.005 sec
 * total energy  :   -30.3572159 Eh     change       -0.2564322E-05 Eh
   gradient norm :     0.0003339 Eh/α   predicted    -0.9051872E-06 ( -64.70%)
   displ. norm   :     0.4307943 α      lambda       -0.1281764E-04
   maximum displ.:     0.3941609 α      in ANC's #5, #2, #1, ...

........................................................................
.............................. CYCLE   34 ..............................
........................................................................

 iter      E             dE          RMSdq      gap      omega  full diag
   1    -30.7727923 -0.307728E+02  0.108E-01    4.09       0.0  T
   2    -30.7727976 -0.533489E-05  0.641E-02    4.09       1.0  T
   3    -30.7727978 -0.135410E-06  0.944E-03    4.09       2.4  T
   4    -30.7727981 -0.298253E-06  0.277E-03    4.09       8.1  T
   5    -30.7727981 -0.522103E-07  0.153E-03    4.09      14.6  T
   6    -30.7727981 -0.128611E-07  0.371E-04    4.09      60.2  T
   7    -30.7727981 -0.573344E-09  0.144E-04    4.09     155.8  T
     SCC iter.                  ...        0 min,  0.003 sec
     gradient                   ...        0 min,  0.005 sec
 * total energy  :   -30.3570658 Eh     change        0.1501507E-03 Eh
   gradient norm :     0.0113177 Eh/α   predicted    -0.6938009E-05 (-104.62%)
   displ. norm   :     0.2502132 α      lambda       -0.3499486E-03
   maximum displ.:     0.2276560 α      in ANC's #5, #2, #1, ...

........................................................................
.............................. CYCLE   35 ..............................
........................................................................

 iter      E             dE          RMSdq      gap      omega  full diag
   1    -30.7758321 -0.307758E+02  0.673E-02    4.09       0.0  T
   2    -30.7758351 -0.298261E-05  0.393E-02    4.09       1.0  T
   3    -30.7758352 -0.947180E-07  0.728E-03    4.09       3.1  T
   4    -30.7758353 -0.107856E-06  0.180E-03    4.09      12.4  T
   5    -30.7758353 -0.195881E-07  0.103E-03    4.09      21.7  T
   6    -30.7758353 -0.669558E-08  0.259E-04    4.09      86.2  T
   7    -30.7758353 -0.252712E-09  0.936E-05    4.09     238.9  T
     SCC iter.                  ...        0 min,  0.003 sec
     gradient                   ...        0 min,  0.005 sec
 * total energy  :   -30.3572178 Eh     change       -0.1519765E-03 Eh
   gradient norm :     0.0023481 Eh/α   predicted    -0.1859341E-03 (  22.34%)
   displ. norm   :     0.0109491 α      lambda       -0.3993126E-05
   maximum displ.:     0.0075098 α      in ANC's #5, #1, #2, ...

........................................................................
.............................. CYCLE   36 ..............................
........................................................................

 iter      E             dE          RMSdq      gap      omega  full diag
   1    -30.7760809 -0.307761E+02  0.405E-03    4.09       0.0  T
   2    -30.7760810 -0.201306E-07  0.229E-03    4.09       9.8  T
   3    -30.7760810 -0.954852E-09  0.617E-04    4.09      36.2  T
   4    -30.7760810 -0.358419E-09  0.132E-04    4.09     169.9  T
     SCC iter.                  ...        0 min,  0.002 sec
     gradient                   ...        0 min,  0.005 sec
 * total energy  :   -30.3572210 Eh     change       -0.3238426E-05 Eh
   gradient norm :     0.0016148 Eh/α   predicted    -0.2007754E-05 ( -38.00%)
   displ. norm   :     0.0203782 α      lambda       -0.4615469E-05
   maximum displ.:     0.0127098 α      in ANC's #1, #3, #2, ...

........................................................................
.............................. CYCLE   37 ..............................
........................................................................

 iter      E             dE          RMSdq      gap      omega  full diag
   1    -30.7766950 -0.307767E+02  0.905E-03    4.09       0.0  T
   2    -30.7766952 -0.115506E-06  0.503E-03    4.09       4.4  T
   3    -30.7766952 -0.495259E-08  0.151E-03    4.09      14.8  T
   4    -30.7766952 -0.207044E-08  0.350E-04    4.09      63.8  T
   5    -30.7766952 -0.653134E-09  0.203E-04    4.09     110.1  T
     SCC iter.                  ...        0 min,  0.002 sec
     gradient                   ...        0 min,  0.005 sec
 * total energy  :   -30.3572234 Eh     change       -0.2413758E-05 Eh
   gradient norm :     0.0003460 Eh/α   predicted    -0.2311969E-05 (  -4.22%)
   displ. norm   :     0.0135870 α      lambda       -0.7153080E-06
   maximum displ.:     0.0121524 α      in ANC's #5, #1, #2, ...

........................................................................
.............................. CYCLE   38 ..............................
........................................................................

 iter      E             dE          RMSdq      gap      omega  full diag
   1    -30.7765608 -0.307766E+02  0.375E-03    4.09       0.0  T
   2    -30.7765608 -0.672000E-08  0.221E-03    4.09      10.1  T
   3    -30.7765608  0.116245E-10  0.348E-04    4.09      64.2  T
   4    -30.7765608 -0.530004E-09  0.115E-04    4.09     195.1  T
     SCC iter.                  ...        0 min,  0.002 sec
     gradient                   ...        0 min,  0.005 sec
 * total energy  :   -30.3572242 Eh     change       -0.8151248E-06 Eh
   gradient norm :     0.0001924 Eh/α   predicted    -0.3612696E-06 ( -55.68%)
   displ. norm   :     0.0348394 α      lambda       -0.1002818E-05
   maximum displ.:     0.0327704 α      in ANC's #5, #1, #2, ...

........................................................................
.............................. CYCLE   39 ..............................
........................................................................

 iter      E             dE          RMSdq      gap      omega  full diag
   1    -30.7764038 -0.307764E+02  0.870E-03    4.09       0.0  T
   2    -30.7764038 -0.106402E-07  0.521E-03    4.09       4.3  T
   3    -30.7764038  0.367399E-08  0.568E-04    4.09      39.4  T
   4    -30.7764038 -0.528641E-08  0.204E-04    4.09     109.6  T
     SCC iter.                  ...        0 min,  0.002 sec
     gradient                   ...        0 min,  0.005 sec
 * total energy  :   -30.3572253 Eh     change       -0.1099295E-05 Eh
   gradient norm :     0.0006066 Eh/α   predicted    -0.5035178E-06 ( -54.20%)
   displ. norm   :     0.0513294 α      lambda       -0.1124422E-05
   maximum displ.:     0.0485884 α      in ANC's #5, #1, #6, ...

........................................................................
.............................. CYCLE   40 ..............................
........................................................................

 iter      E             dE          RMSdq      gap      omega  full diag
   1    -30.7762728 -0.307763E+02  0.127E-02    4.09       0.0  T
   2    -30.7762728 -0.115412E-07  0.762E-03    4.09       2.9  T
   3    -30.7762728  0.680828E-08  0.710E-04    4.09      31.5  T
   4    -30.7762728 -0.100381E-07  0.229E-04    4.09      97.5  T
     SCC iter.                  ...        0 min,  0.002 sec
     gradient                   ...        0 min,  0.005 sec
 * total energy  :   -30.3572265 Eh     change       -0.1149062E-05 Eh
   gradient norm :     0.0010015 Eh/α   predicted    -0.5669677E-06 ( -50.66%)
   displ. norm   :     0.0448400 α      lambda       -0.1273530E-05
   maximum displ.:     0.0424469 α      in ANC's #5, #6, #1, ...

........................................................................
.............................. CYCLE   41 ..............................
........................................................................

 iter      E             dE          RMSdq      gap      omega  full diag
   1    -30.7762817 -0.307763E+02  0.112E-02    4.09       0.0  T
   2    -30.7762817 -0.471466E-08  0.673E-03    4.09       3.3  T
   3    -30.7762817  0.535577E-08  0.594E-04    4.09      37.7  T
   4    -30.7762817 -0.786752E-08  0.163E-04    4.09     136.9  T
     SCC iter.                  ...        0 min,  0.002 sec
     gradient                   ...        0 min,  0.005 sec
 * total energy  :   -30.3572280 Eh     change       -0.1561259E-05 Eh
   gradient norm :     0.0009839 Eh/α   predicted    -0.6402116E-06 ( -58.99%)
   displ. norm   :     0.0755220 α      lambda       -0.2979389E-05
   maximum displ.:     0.0707891 α      in ANC's #5, #6, #1, ...

........................................................................
.............................. CYCLE   42 ..............................
........................................................................

 iter      E             dE          RMSdq      gap      omega  full diag
   1    -30.7764476 -0.307764E+02  0.191E-02    4.09       0.0  T
   2    -30.7764476 -0.211137E-07  0.115E-02    4.09       1.9  T
   3    -30.7764476  0.782035E-08  0.880E-04    4.09      25.4  T
   4    -30.7764476 -0.140565E-07  0.326E-04    4.09      68.6  T
     SCC iter.                  ...        0 min,  0.002 sec
     gradient                   ...        0 min,  0.005 sec
 * total energy  :   -30.3572312 Eh     change       -0.3153776E-05 Eh
   gradient norm :     0.0005048 Eh/α   predicted    -0.1512537E-05 ( -52.04%)
   displ. norm   :     0.0838502 α      lambda       -0.1738487E-05
   maximum displ.:     0.0774659 α      in ANC's #5, #6, #1, ...
 * RMSD in coord.:     0.1802228 α      energy gain  -0.3432922E-04 Eh

generating ANC from exact Hessian ...
Using Lindh-Hessian (1995)
 Shifting diagonal of input Hessian by   7.405704361987851E-003
 Lowest  eigenvalues of input Hessian
    0.000000    0.000000    0.000000    0.000000    0.000000    0.000000
    0.010000    0.011661    0.012641    0.013215    0.016584    0.022374
    0.025457    0.025490    0.032970    0.035132    0.047549    0.049300
 Highest eigenvalues
    1.571536    1.694759    1.798116    1.920617    2.057637    2.150559
 

........................................................................
.............................. CYCLE   43 ..............................
........................................................................

 iter      E             dE          RMSdq      gap      omega  full diag
   1    -30.7763377 -0.307763E+02  0.206E-02    4.09       0.0  T
   2    -30.7763377 -0.183289E-07  0.124E-02    4.09       1.8  T
   3    -30.7763377  0.265591E-08  0.774E-04    4.09      28.9  T
   4    -30.7763378 -0.910335E-08  0.311E-04    4.09      71.8  T
     SCC iter.                  ...        0 min,  0.002 sec
     gradient                   ...        0 min,  0.005 sec
 * total energy  :   -30.3572329 Eh     change       -0.1748659E-05 Eh
   gradient norm :     0.0008745 Eh/α   predicted     0.0000000E+00 (-100.00%)
   displ. norm   :     0.0094321 α      lambda       -0.2077483E-05
   maximum displ.:     0.0051844 α      in ANC's #3, #1, #2, ...

........................................................................
.............................. CYCLE   44 ..............................
........................................................................

 iter      E             dE          RMSdq      gap      omega  full diag
   1    -30.7766839 -0.307767E+02  0.533E-03    4.09       0.0  T
   2    -30.7766839 -0.414539E-07  0.297E-03    4.09       7.5  T
   3    -30.7766839 -0.188941E-08  0.869E-04    4.09      25.7  T
   4    -30.7766839 -0.729703E-09  0.211E-04    4.09     106.1  T
     SCC iter.                  ...        0 min,  0.002 sec
     gradient                   ...        0 min,  0.005 sec
 * total energy  :   -30.3572345 Eh     change       -0.1538316E-05 Eh
   gradient norm :     0.0002292 Eh/α   predicted    -0.1051309E-05 ( -31.66%)
   displ. norm   :     0.0091937 α      lambda       -0.4673728E-06
   maximum displ.:     0.0053812 α      in ANC's #1, #3, #2, ...

........................................................................
.............................. CYCLE   45 ..............................
........................................................................

 iter      E             dE          RMSdq      gap      omega  full diag
   1    -30.7766788 -0.307767E+02  0.319E-03    4.09       0.0  T
   2    -30.7766788 -0.582773E-09  0.190E-03    4.09      11.8  T
   3    -30.7766788  0.598124E-09  0.204E-04    4.09     109.7  T
   4    -30.7766788 -0.872028E-09  0.571E-05    4.09     391.5  T
     SCC iter.                  ...        0 min,  0.002 sec
     gradient                   ...        0 min,  0.005 sec
 * total energy  :   -30.3572351 Eh     change       -0.6408256E-06 Eh
   gradient norm :     0.0001964 Eh/α   predicted    -0.2360774E-06 ( -63.16%)
   displ. norm   :     0.0387762 α      lambda       -0.1661422E-05
   maximum displ.:     0.0213594 α      in ANC's #1, #3, #2, ...

........................................................................
.............................. CYCLE   46 ..............................
........................................................................

 iter      E             dE          RMSdq      gap      omega  full diag
   1    -30.7765880 -0.307766E+02  0.126E-02    4.09       0.0  T
   2    -30.7765880 -0.798187E-08  0.754E-03    4.09       3.0  T
   3    -30.7765880  0.379110E-09  0.543E-04    4.09      41.2  T
   4    -30.7765880 -0.374700E-08  0.234E-04    4.09      95.4  T
     SCC iter.                  ...        0 min,  0.002 sec
     gradient                   ...        0 min,  0.005 sec
 * total energy  :   -30.3572368 Eh     change       -0.1723887E-05 Eh
   gradient norm :     0.0001488 Eh/α   predicted    -0.8345841E-06 ( -51.59%)
   displ. norm   :     0.0265782 α      lambda       -0.5747521E-06
   maximum displ.:     0.0162418 α      in ANC's #1, #2, #3, ...

........................................................................
.............................. CYCLE   47 ..............................
........................................................................

 iter      E             dE          RMSdq      gap      omega  full diag
   1    -30.7765860 -0.307766E+02  0.893E-03    4.09       0.0  T
   2    -30.7765860 -0.335545E-08  0.536E-03    4.09       4.2  T
   3    -30.7765860 -0.127215E-08  0.262E-04    4.09      85.4  T
   4    -30.7765860 -0.366263E-09  0.151E-04    4.09     148.4  T
     SCC iter.                  ...        0 min,  0.002 sec
     gradient                   ...        0 min,  0.005 sec
 * total energy  :   -30.3572375 Eh     change       -0.6213898E-06 Eh
   gradient norm :     0.0001201 Eh/α   predicted    -0.2924740E-06 ( -52.93%)
   displ. norm   :     0.0265782 α      lambda        0.0000000E+00
   maximum displ.:     0.0162418 α      in ANC's #1, #2, #3, ...

........................................................................
.............................. CYCLE   48 ..............................
........................................................................

 iter      E             dE          RMSdq      gap      omega  full diag
   1    -30.7765641 -0.307766E+02  0.893E-03    4.09       0.0  T
   2    -30.7765641 -0.351001E-08  0.536E-03    4.09       4.2  T
   3    -30.7765641 -0.100820E-08  0.289E-04    4.09      77.3  T
   4    -30.7765641 -0.654591E-09  0.158E-04    4.09     141.5  T
     SCC iter.                  ...        0 min,  0.002 sec
     gradient                   ...        0 min,  0.005 sec
 * total energy  :   -30.3572376 Eh     change       -0.9312146E-07 Eh
   gradient norm :     0.0001893 Eh/α   predicted    -0.4725057E-08 ( -94.93%)
   displ. norm   :     0.0058624 α      lambda       -0.3095139E-06
   maximum displ.:     0.0047750 α      in ANC's #3, #5, #2, ...

   *** GEOMETRY OPTIMIZATION CONVERGED AFTER 48 ITERATIONS ***

------------------------------------------------------------------------
 total energy gain   :        -0.0008852 Eh       -0.5555 kcal/mol
 total RMSD          :         0.3023995 a0        0.1600 Å
 total power (kW/mol):        -0.0484192 (step)   -5.5154 (real)
------------------------------------------------------------------------

 ANCopt (total)                0 d,  0 h,  0 min,  0.421 sec
 optimizer setup                ...        0 min,  0.000 sec (  0.103%)
 model hessian                  ...        0 min,  0.007 sec (  1.769%)
 ANC generation                 ...        0 min,  0.001 sec (  0.262%)
 coordinate transformation      ...        0 min,  0.000 sec (  0.065%)
 single point calculation       ...        0 min,  0.403 sec ( 95.565%)
 optimization log               ...        0 min,  0.006 sec (  1.406%)
 hessian update                 ...        0 min,  0.000 sec (  0.064%)
 rational function              ...        0 min,  0.002 sec (  0.390%)

================
 final structure:
================
$coord
       -5.65390902333621        2.31278224601158       -0.01903975567135      C
       -3.31767974443065        0.70855334825788        0.02444603531102      C
       -3.46232155197294       -1.90278008776060        0.05890166202878      C
       -1.29192272047683       -3.36676714707993        0.06457780558886      C
        1.06156319765631       -2.23226485082901        0.03477421926446      C
        1.23038636876193        0.41685754560061       -0.00160903590985      C
       -0.94818981039345        1.85586860741211       -0.00621852649735      C
        3.66659446807841        1.34666466241849       -0.02733670931048      O
        3.99953108280295        3.97893396470623       -0.06101540830052      C
        3.19341677870637       -3.67044161247603        0.04376342520445      O
       -7.29795604804614        1.22191468164046        0.55168803584502      H
       -5.45775004637598        3.92626900053238        1.24132664157566      H
       -5.98753242479146        3.03272836814850       -1.92109107963837      H
       -5.28578639811620       -2.81746059700676        0.08174262924785      H
       -1.39075300073217       -5.40133665154566        0.09366746067155      H
       -0.84467891735619        3.89251063149824       -0.03188406755206      H
        3.20014281322417        4.86388624279000        1.62943391833774      H
        3.15431287806711        4.82738055622108       -1.74763036480285      H
        6.03466923469622        4.28460684965065       -0.09222472432557      H
        4.62641206132494       -2.53764780474456        0.02278585556002      H
$end
 
 Bond Distances (Angstroems)
 ---------------------------
C1-C2=1.4999         C1-H11=1.0869        C1-H12=1.0884        C1-H13=1.0906        C2-C1=1.4999         C2-C3=1.3841         
C2-C7=1.3932         C3-C2=1.3841         C3-C4=1.3854         C3-H14=1.0796        C4-C3=1.3854         C4-C5=1.3827         
C4-H15=1.0780        C5-C4=1.3827         C5-C6=1.4048         C5-O10=1.3608        C6-C5=1.4048         C6-C7=1.3816         
C6-O8=1.3800         C7-C2=1.3932         C7-C6=1.3816         C7-H16=1.0792        O8-C6=1.3800         O8-C9=1.4041         
C9-O8=1.4041         C9-H17=1.0947        C9-H18=1.0946        C9-H19=1.0892        O10-C5=1.3608        O10-H20=0.9667       
H11-C1=1.0869        H12-C1=1.0884        H13-C1=1.0906        H14-C3=1.0796        H15-C4=1.0780        H16-C7=1.0792        
H17-C9=1.0947        H18-C9=1.0946        H19-C9=1.0892        H20-O10=0.9667       
 C  H  Rav=1.0868 sigma=0.0061  Rmin=1.0780  Rmax=1.0947     9
 C  C  Rav=1.4045 sigma=0.0396  Rmin=1.3816  Rmax=1.4999     7
 O  H  Rav=0.9667 sigma=0.0000  Rmin=0.9667  Rmax=0.9667     1
 O  C  Rav=1.3816 sigma=0.0177  Rmin=1.3608  Rmax=1.4041     3
 
 selected bond angles (degree)
 --------------------
H11-C1-C2=110.79               H12-C1-C2=110.85               H12-C1-H11=108.83              H13-C1-C2=110.20               
H13-C1-H11=108.20              H13-C1-H12=107.88              C3-C2-C1=121.31                C7-C2-C1=119.67                
C7-C2-C3=119.01                C4-C3-C2=120.83                H14-C3-C2=119.81               H14-C3-C4=119.36               
C5-C4-C3=120.26                H15-C4-C3=121.22               H15-C4-C5=118.52               C6-C5-C4=119.39                
O10-C5-C4=120.25               O10-C5-C6=120.36               C7-C6-C5=119.80                O8-C6-C5=114.54                
O8-C6-C7=125.66                C6-C7-C2=120.71                H16-C7-C2=118.75               H16-C7-C6=120.54               
C9-O8-C6=118.10                H17-C9-O8=111.44               H18-C9-O8=111.47               H18-C9-H17=109.45              
H19-C9-O8=105.76               H19-C9-H17=109.33              H19-C9-H18=109.31              H20-O10-C5=107.67              
 
 selected dihedral angles (degree)
 ---------------------------------
C3-C2-C1-H11= 17.29           C3-C2-C1-H12=138.22           C3-C2-C1-H13=257.58           C7-C2-C1-H11=196.37           
C7-C2-C1-H12=317.30           C7-C2-C1-H13= 76.65           C4-C3-C2-C1=179.12            C4-C3-C2-C7=  0.04            
H14-C3-C2-C1=359.12           H14-C3-C2-C7=180.04           C5-C4-C3-C2=359.98            C5-C4-C3-H14=179.98           
H15-C4-C3-C2=179.92           H15-C4-C3-H14=359.92          C6-C5-C4-C3=  0.00            C6-C5-C4-H15=180.04           
O10-C5-C4-C3=179.91           O10-C5-C4-H15=359.96          C7-C6-C5-C4=  0.03            C7-C6-C5-O10=180.11           
O8-C6-C5-C4=179.96            O8-C6-C5-O10=  0.04           C6-C7-C2-C1=180.88            C6-C7-C2-C3=  0.00            
H16-C7-C2-C1=  0.94           H16-C7-C2-C3=180.04           C2-C7-C6-C5=  0.00            C2-C7-C6-O8=180.07            
H16-C7-C6-C5=179.93           H16-C7-C6-O8=  0.00           C9-O8-C6-C5=180.08            C9-O8-C6-C7=  0.00            
H17-C9-O8-C6= 61.74           H18-C9-O8-C6=299.15           H19-C9-O8-C6=180.45           H20-O10-C5-C4=180.12          
H20-O10-C5-C6=  0.04          
           -------------------------------------------------
          |                Final Singlepoint                |
           -------------------------------------------------

          ...................................................
          :                      SETUP                      :
          :.................................................:
          :  # basis functions                  50          :
          :  # atomic orbitals                  50          :
          :  # shells                           30          :
          :  # electrons                        54          :
          :  max. iterations                   250          :
          :  Hamiltonian                  GFN2-xTB          :
          :  restarted?                      false          :
          :  GBSA solvation                  false          :
          :  PC potential                    false          :
          :  electronic temp.          300.0000000     K    :
          :  accuracy                    1.0000000          :
          :  -> integral cutoff          0.2500000E+02      :
          :  -> integral neglect         0.1000000E-07      :
          :  -> SCF convergence          0.1000000E-05 Eh   :
          :  -> wf. convergence          0.1000000E-03 e    :
          :  Broyden damping             0.4000000          :
          :  net charge                          0          :
          :  unpaired electrons                  0          :
          ...................................................

 iter      E             dE          RMSdq      gap      omega  full diag
   1    -30.7765641 -0.307766E+02  0.348E-05    4.09       0.0  T
   2    -30.7765641 -0.267519E-11  0.215E-05    4.09    1038.9  T
   3    -30.7765641 -0.738964E-12  0.135E-05    4.09    1654.4  T

   *** convergence criteria satisfied after 3 iterations ***

         #    Occupation            Energy/Eh            Energy/eV
      -------------------------------------------------------------
         1        2.0000           -0.7208632             -19.6157
       ...           ...                  ...                  ...
        21        2.0000           -0.4662397             -12.6870
        22        2.0000           -0.4524006             -12.3104
        23        2.0000           -0.4357497             -11.8574
        24        2.0000           -0.4350789             -11.8391
        25        2.0000           -0.4219718             -11.4824
        26        2.0000           -0.3897466             -10.6055
        27        2.0000           -0.3637117              -9.8971 (HOMO)
        28                         -0.2134664              -5.8087 (LUMO)
        29                         -0.2058270              -5.6008
        30                         -0.0826651              -2.2494
        31                          0.0132221               0.3598
        32                          0.0824998               2.2449
       ...                                ...                  ...
        50                          0.6666042              18.1392
      -------------------------------------------------------------
                  HL-Gap            0.1502453 Eh            4.0884 eV
             Fermi-level           -0.2885890 Eh           -7.8529 eV

 SCC (total)                   0 d,  0 h,  0 min,  0.008 sec
 SCC setup                      ...        0 min,  0.000 sec (  1.700%)
 Dispersion                     ...        0 min,  0.000 sec (  0.983%)
 classical contributions        ...        0 min,  0.000 sec (  0.254%)
 integral evaluation            ...        0 min,  0.002 sec ( 24.351%)
 iterations                     ...        0 min,  0.001 sec ( 15.596%)
 molecular gradient             ...        0 min,  0.005 sec ( 55.919%)
 printout                       ...        0 min,  0.000 sec (  0.995%)

         :::::::::::::::::::::::::::::::::::::::::::::::::::::
         ::                     SUMMARY                     ::
         :::::::::::::::::::::::::::::::::::::::::::::::::::::
         :: total energy             -30.357237561445 Eh    ::
         :: gradient norm              0.000188779753 Eh/a0 ::
         :: HOMO-LUMO gap              4.088382535304 eV    ::
         ::.................................................::
         :: SCC energy               -30.776511991777 Eh    ::
         :: -> isotropic ES            0.035983419795 Eh    ::
         :: -> anisotropic ES          0.003331267595 Eh    ::
         :: -> anisotropic XC          0.007519329706 Eh    ::
         :: -> dispersion             -0.015502519079 Eh    ::
         :: repulsion energy           0.419274430332 Eh    ::
         :: add. restraining           0.000000000000 Eh    ::
         :: total charge              -0.000000000000 e     ::
         :::::::::::::::::::::::::::::::::::::::::::::::::::::

           ------------------------------------------------- 
          |                Numerical Hessian                |
           ------------------------------------------------- 
step length          :   0.00500
SCC accuracy         :   0.30000
Hessian scale factor :   1.00000
frozen atoms in %    :   0.00000    0
RMS gradient         :   0.00019
estimated CPU  time      0.02 min
estimated wall time      0.02 min

writing file <hessian>.

 projected vibrational frequencies (cm⁻¹)
eigval :       -0.00    -0.00     0.00     0.00     0.00     0.00
eigval :       40.09    80.50   135.38   189.72   194.28   257.13
eigval :      289.20   346.03   352.61   430.00   439.88   474.56
eigval :      529.51   535.44   554.03   664.16   707.10   810.63
eigval :      817.60   859.46   904.83   947.09  1019.07  1033.73
eigval :     1054.24  1120.64  1125.94  1157.00  1164.10  1176.37
eigval :     1223.97  1269.82  1301.91  1372.72  1404.49  1405.06
eigval :     1439.74  1470.48  1484.80  1485.28  1487.76  1501.75
eigval :     1592.09  1608.40  2933.32  2947.69  2994.33  3024.17
eigval :     3025.00  3045.98  3087.00  3095.64  3113.03  3493.69
           -------------------------------------------------
          |                Property Printout                |
           -------------------------------------------------

    * Orbital Energies and Occupations

         #    Occupation            Energy/Eh            Energy/eV
      -------------------------------------------------------------
         1        2.0000           -0.7208631             -19.6157
       ...           ...                  ...                  ...
        15        2.0000           -0.5136394             -13.9768
        16        2.0000           -0.4937630             -13.4360
        17        2.0000           -0.4894761             -13.3193
        18        2.0000           -0.4883380             -13.2884
        19        2.0000           -0.4793436             -13.0436
        20        2.0000           -0.4683056             -12.7432
        21        2.0000           -0.4662397             -12.6870
        22        2.0000           -0.4524006             -12.3104
        23        2.0000           -0.4357497             -11.8574
        24        2.0000           -0.4350789             -11.8391
        25        2.0000           -0.4219718             -11.4824
        26        2.0000           -0.3897466             -10.6055
        27        2.0000           -0.3637117              -9.8971 (HOMO)
        28                         -0.2134664              -5.8087 (LUMO)
        29                         -0.2058270              -5.6008
        30                         -0.0826651              -2.2494
        31                          0.0132221               0.3598
        32                          0.0824998               2.2449
        33                          0.1020346               2.7765
        34                          0.1187674               3.2318
        35                          0.1352656               3.6808
        36                          0.1605758               4.3695
        37                          0.1663865               4.5276
        38                          0.1825578               4.9677
       ...                                ...                  ...
        50                          0.6666042              18.1392
      -------------------------------------------------------------
                  HL-Gap            0.1502453 Eh            4.0884 eV
             Fermi-level           -0.2885890 Eh           -7.8529 eV

     #   Z          covCN         q      C6AA      α(0)
     1   6 C        3.758    -0.109    22.626     6.782
     2   6 C        2.967     0.005    27.905     8.665
     3   6 C        2.924    -0.052    29.288     8.875
     4   6 C        2.917    -0.060    29.490     8.905
     5   6 C        2.846     0.122    25.320     8.247
     6   6 C        2.862     0.103    25.725     8.314
     7   6 C        2.923    -0.078    29.940     8.973
     8   8 O        1.704    -0.292    18.860     5.863
     9   6 C        3.642     0.042    20.204     6.462
    10   8 O        1.659    -0.391    20.669     6.137
    11   1 H        0.925     0.043     2.408     2.427
    12   1 H        0.925     0.043     2.411     2.428
    13   1 H        0.924     0.046     2.370     2.408
    14   1 H        0.926     0.038     2.481     2.463
    15   1 H        0.926     0.054     2.275     2.359
    16   1 H        0.926     0.037     2.494     2.470
    17   1 H        0.924     0.039     2.462     2.454
    18   1 H        0.924     0.039     2.460     2.453
    19   1 H        0.925     0.057     2.238     2.340
    20   1 H        0.805     0.315     0.679     1.294

 Mol. C6AA /au·bohr⁶  :       4154.675430
 Mol. C8AA /au·bohr⁸  :      96611.336022
 Mol. α(0) /au        :        100.317288


Wiberg/Mayer (AO) data.
largest (>0.10) Wiberg bond orders for each atom

 ---------------------------------------------------------------------------
     #   Z sym  total        # sym  WBO       # sym  WBO       # sym  WBO
 ---------------------------------------------------------------------------
     1   6 C    3.996 --     2 C    1.024    11 H    0.985    12 H    0.979
                            13 H    0.970
     2   6 C    3.989 --     3 C    1.429     7 C    1.383     1 C    1.024
     3   6 C    3.990 --     2 C    1.429     4 C    1.422    14 H    0.969
     4   6 C    3.987 --     3 C    1.422     5 C    1.402    15 H    0.967
     5   6 C    3.943 --     4 C    1.402     6 C    1.288    10 O    1.075
     6   6 C    3.927 --     7 C    1.417     5 C    1.288     8 O    1.024
     7   6 C    3.985 --     6 C    1.417     2 C    1.383    16 H    0.965
     8   8 O    2.197 --     6 C    1.024     9 C    0.987
     9   6 C    3.948 --     8 O    0.987    19 H    0.980    17 H    0.977
                            18 H    0.977
    10   8 O    2.118 --     5 C    1.075    20 H    0.877
    11   1 H    0.998 --     1 C    0.985
    12   1 H    0.997 --     1 C    0.979
    13   1 H    0.997 --     1 C    0.970
    14   1 H    0.999 --     3 C    0.969
    15   1 H    0.996 --     4 C    0.967
    16   1 H    0.999 --     7 C    0.965
    17   1 H    0.998 --     9 C    0.977
    18   1 H    0.998 --     9 C    0.977
    19   1 H    0.996 --     9 C    0.980
    20   1 H    0.901 --    10 O    0.877
 ---------------------------------------------------------------------------

Topologies differ in total number of bonds
Writing topology from bond orders to xtbtopo.mol

molecular dipole:
                 x           y           z       tot (Debye)
 q only:       -0.050       0.820      -0.019
   full:        0.035       1.180      -0.032       3.001
molecular quadrupole (traceless):
                xx          xy          yy          xz          yz          zz
 q only:        3.474       3.294      -0.399       0.005      -0.081      -3.075
  q+dip:        4.390       4.576      -0.202       0.045      -0.126      -4.188
   full:        3.815       4.575      -0.995       0.055      -0.093      -2.820

           -------------------------------------------------
          |                Geometry Summary                 |
           -------------------------------------------------

      molecular mass/u    :      138.1641045
   center of mass at/Å    :       -0.0009451      -0.0018826       0.0047037
  moments of inertia/u·Å² :        0.2662441E+03   0.4294888E+03   0.6893836E+03
rotational constants/cm⁻¹ :        0.6331644E-01   0.3925046E-01   0.2445320E-01

 * 19 selected distances

     #   Z          #   Z                                           value/Å
     2   6 C        3   6 C                                       1.3840966
     3   6 C        4   6 C                                       1.3853858
     4   6 C        5   6 C                                       1.3826501
     5   6 C        6   6 C                                       1.4048310 (max)
     2   6 C        7   6 C                                       1.3932299
     6   6 C        7   6 C                                       1.3816461
     6   6 C        8   8 O                                       1.3799572
     8   8 O        9   6 C                                       1.4041480
     5   6 C       10   8 O                                       1.3608432
     1   6 C       11   1 H                                       1.0868910
     1   6 C       12   1 H                                       1.0884009
     1   6 C       13   1 H                                       1.0905965
     3   6 C       14   1 H                                       1.0795976
     4   6 C       15   1 H                                       1.0780273
     7   6 C       16   1 H                                       1.0792212
     9   6 C       17   1 H                                       1.0947424
     9   6 C       18   1 H                                       1.0946330
     9   6 C       19   1 H                                       1.0891539
    10   8 O       20   1 H                                       0.9666922 (min)

 * 4 distinct bonds (by element types)

   Z      Z             #   av. dist./Å        max./Å        min./Å
   1 H    6 C           9     1.0868071     1.0947424     1.0780273
   6 C    6 C           6     1.3886399     1.4048310     1.3816461
   1 H    8 O           1     0.9666922     0.9666922     0.9666922
   6 C    8 O           3     1.3816495     1.4041480     1.3608432

           -------------------------------------------------
          |               Frequency Printout                |
           -------------------------------------------------
 projected vibrational frequencies (cm⁻¹)
eigval :       -0.00    -0.00     0.00     0.00     0.00     0.00
eigval :       40.09    80.50   135.38   189.72   194.28   257.13
eigval :      289.20   346.03   352.61   430.00   439.88   474.56
eigval :      529.51   535.44   554.03   664.16   707.10   810.63
eigval :      817.60   859.46   904.83   947.09  1019.07  1033.73
eigval :     1054.24  1120.64  1125.94  1157.00  1164.10  1176.37
eigval :     1223.97  1269.82  1301.91  1372.72  1404.49  1405.06
eigval :     1439.74  1470.48  1484.80  1485.28  1487.76  1501.75
eigval :     1592.09  1608.40  2933.32  2947.69  2994.33  3024.17
eigval :     3025.00  3045.98  3087.00  3095.64  3113.03  3493.69
 reduced masses (amu)
   1: 11.44   2: 11.33   3: 11.18   4: 12.20   5: 10.79   6: 13.19   7:  1.21   8:  9.89
   9: 11.78  10:  7.05  11:  9.81  12:  5.81  13: 11.80  14: 10.14  15:  9.84  16:  9.23
  17: 12.31  18:  2.92  19: 11.16  20: 11.56  21: 10.38  22: 11.72  23: 11.38  24: 11.83
  25:  3.72  26:  3.24  27:  3.38  28:  9.49  29:  4.46  30:  4.52  31: 10.62  32:  8.21
  33:  3.74  34:  5.11  35:  6.51  36:  4.83  37:  6.44  38:  3.65  39: 11.86  40: 10.24
  41:  2.95  42:  3.13  43: 10.40  44:  1.55  45:  1.69  46:  2.26  47:  1.93  48: 10.01
  49: 11.41  50: 11.60  51:  1.95  52:  1.45  53:  1.82  54:  1.69  55:  1.66  56:  1.67
  57:  1.81  58:  1.82  59:  1.86  60:  1.86
 IR intensities (km·mol⁻¹)
   1:  0.48   2:  0.16   3:  0.19   4:  0.30   5:  0.83   6:  0.20   7:  0.42   8:  3.39
   9:  0.95  10:  0.44  11:  0.66  12:  0.51  13:  3.05  14:  0.40  15:  2.06  16:  2.73
  17:  0.48  18:174.78  19:  1.98  20: 15.07  21:  2.62  22:  0.02  23:  6.09  24: 44.01
  25: 37.51  26:  0.10  27:  1.54  28: 19.78  29:  6.08  30: 10.45  31: 11.93  32: 58.03
  33:  2.40  34: 18.55  35: 60.34  36:195.26  37:105.52  38: 22.93  39:164.07  40: 23.91
  41:  0.49  42:  3.94  43: 23.78  44:  4.64  45:  9.13  46: 54.87  47:  6.12  48:236.42
  49:  4.78  50: 22.08  51: 41.71  52: 28.28  53: 29.53  54: 19.02  55: 25.04  56: 20.79
  57: 30.36  58: 24.76  59: 20.70  60: 54.39
 Raman intensities (Ä⁴*amu⁻¹)
   1:  0.00   2:  0.00   3:  0.00   4:  0.00   5:  0.00   6:  0.00   7:  0.00   8:  0.00
   9:  0.00  10:  0.00  11:  0.00  12:  0.00  13:  0.00  14:  0.00  15:  0.00  16:  0.00
  17:  0.00  18:  0.00  19:  0.00  20:  0.00  21:  0.00  22:  0.00  23:  0.00  24:  0.00
  25:  0.00  26:  0.00  27:  0.00  28:  0.00  29:  0.00  30:  0.00  31:  0.00  32:  0.00
  33:  0.00  34:  0.00  35:  0.00  36:  0.00  37:  0.00  38:  0.00  39:  0.00  40:  0.00
  41:  0.00  42:  0.00  43:  0.00  44:  0.00  45:  0.00  46:  0.00  47:  0.00  48:  0.00
  49:  0.00  50:  0.00  51:  0.00  52:  0.00  53:  0.00  54:  0.00  55:  0.00  56:  0.00
  57:  0.00  58:  0.00  59:  0.00  60:  0.00
 output can be read by thermo (or use thermo option).
 writing <g98.out> molden fake output.
 recommended (thermochemical) frequency scaling factor: 1.0
           -------------------------------------------------
          |             Thermodynamic Functions             |
           -------------------------------------------------

Molecule has no symmetry elements
It seems to be the C1 point group
c1  symmetry found (for desy threshold:  0.10E+00) used in thermo

          ...................................................
          :                      SETUP                      :
          :.................................................:
          :  # frequencies                          54      :
          :  # imaginary freq.                       0      :
          :  linear?                             false      :
          :  only rotor calc.                    false      :
          :  symmetry                               c1      :
          :  rotational number                       1      :
          :  scaling factor                  1.0000000      :
          :  rotor cutoff                    0.0000000 cm⁻¹ :
          :  imag. cutoff                 -100.0000000 cm⁻¹ :
          :.................................................:

    mode    ω/cm⁻¹     T·S(HO)/kcal·mol⁻¹    T·S(FR)/kcal·mol⁻¹   T·S(vib)
   ------------------------------------------------------------------------
       1     40.09    -1.56672 (100.00%)    -1.12175 (  0.00%)    -1.56672
       2     80.50    -1.15644 (100.00%)    -0.91535 (  0.00%)    -1.15644
       3    135.38    -0.85512 (100.00%)    -0.76139 (  0.00%)    -0.85512
       4    189.72    -0.66505 (100.00%)    -0.66145 (  0.00%)    -0.66505
       5    194.28    -0.65194 (100.00%)    -0.65441 (  0.00%)    -0.65194
       6    257.13    -0.50125 (100.00%)    -0.57140 (  0.00%)    -0.50125
       7    289.20    -0.44086 (100.00%)    -0.53658 (  0.00%)    -0.44086
   ------------------------------------------------------------------------

   temp. (K)  partition function   enthalpy   heat capacity  entropy
                                   cal/mol     cal/K/mol   cal/K/mol   J/K/mol
 298.15  VIB   639.                 4589.548     31.848     28.230
         ROT  0.678E+06              888.752      2.981     29.664
         INT  0.433E+09             5478.301     34.829     57.894
         TR   0.157E+28             1481.254      4.968     40.663
         TOT                        6959.5546    39.7972    98.5575   412.3646

       T/K    H(0)-H(T)+PV         H(T)/Eh          T*S/Eh         G(T)/Eh
   ------------------------------------------------------------------------
    298.15    0.110908E-01    0.171060E+00    0.468279E-01    0.124232E+00
   ------------------------------------------------------------------------

         :::::::::::::::::::::::::::::::::::::::::::::::::::::
         ::                  THERMODYNAMIC                  ::
         :::::::::::::::::::::::::::::::::::::::::::::::::::::
         :: total free energy         -30.233005319456 Eh   ::
         ::.................................................::
         :: total energy              -30.357237561446 Eh   ::
         :: zero point energy           0.159969341644 Eh   ::
         :: G(RRHO) w/o ZPVE           -0.035737099654 Eh   ::
         :: G(RRHO) contrib.            0.124232241990 Eh   ::
         :::::::::::::::::::::::::::::::::::::::::::::::::::::

optimized geometry written to: xtbopt.coord


           -------------------------------------------------
          | TOTAL ENERGY              -30.357237561446 Eh   |
          | TOTAL ENTHALPY            -30.186177463529 Eh   |
          | TOTAL FREE ENERGY         -30.233005319456 Eh   |
          | GRADIENT NORM               0.000188763973 Eh/α |
          | HOMO-LUMO GAP               4.088381614573 eV   |
           -------------------------------------------------

------------------------------------------------------------------------
 * finished run on 2025/04/15 at 20:37:11.229     
------------------------------------------------------------------------
 total:
 * wall-time:     0 d,  0 h,  0 min,  1.567 sec
 *  cpu-time:     0 d,  0 h,  0 min,  1.527 sec
 * ratio c/w:     0.975 speedup
 SCF:
 * wall-time:     0 d,  0 h,  0 min,  0.041 sec
 *  cpu-time:     0 d,  0 h,  0 min,  0.021 sec
 * ratio c/w:     0.509 speedup
 ANC optimizer:
 * wall-time:     0 d,  0 h,  0 min,  0.433 sec
 *  cpu-time:     0 d,  0 h,  0 min,  0.429 sec
 * ratio c/w:     0.991 speedup
 analytical hessian:
 * wall-time:     0 d,  0 h,  0 min,  1.065 sec
 *  cpu-time:     0 d,  0 h,  0 min,  1.063 sec
 * ratio c/w:     0.998 speedup

