
                                 *****************
                                 * O   R   C   A *
                                 *****************

                                            #,                                       
                                            ###                                      
                                            ####                                     
                                            #####                                    
                                            ######                                   
                                           ########,                                 
                                     ,,################,,,,,                         
                               ,,#################################,,                 
                          ,,##########################################,,             
                       ,#########################################, ''#####,          
                    ,#############################################,,   '####,        
                  ,##################################################,,,,####,       
                ,###########''''           ''''###############################       
              ,#####''   ,,,,##########,,,,          '''####'''          '####       
            ,##' ,,,,###########################,,,                        '##       
           ' ,,###''''                  '''############,,,                           
         ,,##''                                '''############,,,,        ,,,,,,###''
      ,#''                                            '''#######################'''  
     '                                                          ''''####''''         
             ,#######,   #######,   ,#######,      ##                                
            ,#'     '#,  ##    ##  ,#'     '#,    #''#        ,####,   ,####,        
            ##       ##  ##   ,#'  ##            #'  '#       #'       #'  '#        
            ##       ##  #######   ##           ,######,      #####,   #    #        
            '#,     ,#'  ##    ##  '#,     ,#' ,#      #,     #,   #   #,  ,#        
             '#######'   ##     ##  '#######'  #'      '#     '####' # '####'        



                #########################################################
                #                        -***-                          #
                #          Department of theory and spectroscopy        #
                #                                                       #
                #                      Frank Neese                      #
                #                                                       #
                #     Directorship, Architecture, Infrastructure        #
                #                    SHARK, DRIVERS                     #
                #        Core code/Algorithms in most modules           #
                #                                                       #
                #        Max Planck Institute fuer Kohlenforschung      #
                #                Kaiser Wilhelm Platz 1                 #
                #                 D-45470 Muelheim/Ruhr                 #
                #                      Germany                          #
                #                                                       #
                #                  All rights reserved                  #
                #                        -***-                          #
                #########################################################


                         Program Version 6.0.1  -  RELEASE   -


 With contributions from (in alphabetic order):
[Max-Planck-Institut fuer Kohlenforschung]                               
  Daniel Aravena         : Magnetic Suceptibility                        
  Michael Atanasov       : Ab Initio Ligand Field Theory (pilot matlab implementation)
  Alexander A. Auer      : GIAO ZORA, VPT2 properties, NMR spectrum      
  Ute Becker             : All parallelization in ORCA, NUMFREQ, NUMCALC 
  Giovanni Bistoni       : ED, misc. LED, open-shell LED, HFLD           
  Martin Brehm           : Molecular dynamics                            
  Dmytro Bykov           : pre 5.0 version of the SCF Hessian            
  Marcos Casanova-Páez   : Triplet and SCS-CIS(D). UHF-(DLPNO)-IP/EA/STEOM-CCSD. UHF-CVS-IP/STEOM-CCSD   
  Vijay G. Chilkuri      : MRCI spin determinant printing, contributions to CSF-ICE 
  Pauline Colinet        : FMM embedding                                 
  Dipayan Datta          : RHF DLPNO-CCSD density                        
  Achintya Kumar Dutta   : EOM-CC, STEOM-CC                              
  Nicolas Foglia         : Exact transition moments, OPA infrastructure, MCD improvements    
  Dmitry Ganyushin       : Spin-Orbit,Spin-Spin,Magnetic field MRCI      
  Miquel Garcia-Rates    : C-PCM and meta-GGA Hessian, CCSD/C-PCM, Gaussian charge scheme 
  Tiago L. C. Gouveia    : GS-ROHF, GS-ROCIS                             
  Yang Guo               : DLPNO-NEVPT2, F12-NEVPT2, CIM, IAO-localization        
  Andreas Hansen         : Spin unrestricted coupled pair/coupled cluster methods 
  Ingolf Harden          : AUTO-CI MPn and infrastructure                
  Benjamin Helmich-Paris : MC-RPA, TRAH-(SCF,CASSCF), AVAS, COSX integrals, SCF dyn. polar. 
  Lee Huntington         : MR-EOM, pCC                                   
  Robert Izsak           : Overlap fitted RIJCOSX, COSX-SCS-MP3, EOM     
  Riya Kayal             : Wick's Theorem for AUTO-CI, AUTO-CI UHF-CCSDT 
  Emily Kempfer          : AUTO-CI, RHF CISDT and CCSDT                  
  Christian Kollmar      : KDIIS, OOCD, Brueckner-CCSD(T), CCSD density, CASPT2, CASPT2-K, improved NEVPT2 
  Axel Koslowski         : Symmetry handling                             
  Simone Kossmann        : meta-GGA functionals, TD-DFT gradient, OOMP2, (MP2 Hessian; deprecated post 5.0) 
  Lucas Lang             : DCDCAS                                        
  Marvin Lechner         : AUTO-CI (C++ implementation), FIC-MRCC        
  Spencer Leger          : CASSCF response                               
  Dagmar Lenk            : GEPOL surface, SMD, ORCA-2-JSON               
  Dimitrios Liakos       : Extrapolation schemes; Compound Job, initial MDCI parallelization 
  Dimitrios Manganas     : Further ROCIS development; embedding schemes. LFT, Crystal Embedding 
  Dimitrios Pantazis     : SARC Basis sets                               
  Anastasios Papadopoulos: AUTO-CI, single reference methods and gradients 
  Taras Petrenko         : pre 6.0 DFT Hessian and TD-DFT gradient, (ASA, deprecated), ECA, 1-Electron XAS/XES, NRVS 
  Peter Pinski           : DLPNO-MP2, DLPNO-MP2 Gradient                 
  Christoph Reimann      : Effective Core Potentials                     
  Marius Retegan         : Local ZFS, SOC                                
  Christoph Riplinger    : Optimizer, TS searches, QM/MM, DLPNO-CCSD(T), (RO)-DLPNO pert. Triples 
  Michael Roemelt        : Original ROCIS implementation                 
  Masaaki Saitow         : Open-shell DLPNO-CCSD energy and density      
  Barbara Sandhoefer     : DKH picture change effects                    
  Kantharuban Sivalingam : CASSCF convergence/infrastructure, NEVPT2 and variants, FIC-MRCI 
  Bernardo de Souza      : ESD, SOC TD-DFT                               
  Georgi L. Stoychev     : AutoAux, RI-MP2 NMR, DLPNO-MP2 response, X2C  
  Van Anh Tran           : RI-MP2 g-tensors                              
  Willem Van den Heuvel  : Paramagnetic NMR                              
  Zikuan Wang            : NOTCH, Electric field optimization            
  Frank Wennmohs         : Technical directorship and infrastructure     
  Hang Xu                : AUTO-CI-Response properties                   
                                                                         
[FACCTs GmbH]                                                            
  Markus Bursch, Miquel Garcia-Rates, Christoph Riplinger, Bernardo de Souza, Georgi L. Stoychev 
                                                                 
  APM, Basis sets (HGBS, AHGBS, def-TZVP (Ac-Lr), def2-XVPD (La-Lu)), CI-OPT, improved COSX, DLPNO-Multilevel,           
  DOCKER, DRACO, updates on ESD, GOAT, IRC, LR-CPCM, MBIS, meta-GGA TD-DFT gradient, ML-optimized integration grids, 
  MM, NACMEs, nearIR, NEB, NEB-TS, NL-DFT gradient (VV10), 2- and 3-layer-ONIOM, interface openCOSMO-RS, QMMM,   
  Crystal-QMMM, SF, symmetry and pop. for TD-DFT, r2SCAN hybrids, SOLVATOR                                   
                                                                         
[Other institutions]                                                     
  V. Asgeirsson          : NEB                                           
  Christoph Bannwarth    : sTDA-DFT, sTD-DFT, PBEh-3c, B97-3c, D3        
  Sebastian Ehlert       : rSCAN, r2SCAN, r2SCAN-3c, D4, dhf basis sets  
  Marvin Friede          : D4 for Fr, Ra, Ac-Lr                          
  Lars Goerigk           : TD-DFT with DH, B97 family of functionals     
  Stefan Grimme          : VdW corrections, initial TS optimization, DFT functionals, gCP, sTDA/sTD-DF 
  Waldemar Hujo          : DFT-NL                                        
  H. Jonsson             : NEB                                           
  Holger Kruse           : gCP                                           
  Marcel Mueller         : wB97X-3c, vDZP basis set                      
  Hagen Neugebauer       : wr2SCAN                                       
  Tobias Risthaus        : range-separated hybrid DFT                    
  Lukas Wittmann         : regularized MP2, r2SCAN double-hybrids, wr2SCAN        
                                                                         
We gratefully acknowledge several colleagues who have allowed us to      
interface, adapt or use parts of their codes:                            
  Ed Valeev, F. Pavosevic, A. Kumar             : LibInt (2-el integral package), F12 methods 
  Garnet Chan, S. Sharma, J. Yang, R. Olivares  : DMRG                   
  Ulf Ekstrom                                   : XCFun DFT Library      
  Mihaly Kallay                                 : mrcc  (arbitrary order and MRCC methods)
  Frank Weinhold                                : gennbo (NPA and NBO analysis)           
  Simon Mueller                                 : openCOSMO-RS                            
  Christopher J. Cramer and Donald G. Truhlar   : smd solvation model                     
  S Lehtola, MJT Oliveira, MAL Marques          : LibXC Library                           
  Liviu Ungur et al                             : ANISO software                          


 Your calculation uses the libint2 library for the computation of 2-el integrals
 For citations please refer to: http://libint.valeyev.net

 Your ORCA version has been built with support for libXC version: 6.2.2
 For citations please refer to: https://libxc.gitlab.io

 This ORCA versions uses:
   CBLAS   interface :  Fast vector & matrix operations
   LAPACKE interface :  Fast linear algebra routines
   SCALAPACK package :  Parallel linear algebra routines
   Shared memory     :  Shared parallel matrices
   BLAS/LAPACK       :  OpenBLAS 0.3.27  USE64BITINT DYNAMIC_ARCH NO_AFFINITY Zen SINGLE_THREADED
        Core in use  :  Zen
   Copyright (c) 2011-2014, The OpenBLAS Project


Your calculation utilizes the geometrical counterpoise correction gCP
Please cite in your paper:
H.Kruse, S. Grimme J.Chem.Phys., 136, (2012), 154101 
   

Your calculation utilizes the atom-pairwise dispersion correction
based on EEQ partial charges (D4)


================================================================================

----- Orbital basis set information -----
Your calculation utilizes the basis: def2-SV(P)
   F. Weigend and R. Ahlrichs, Phys. Chem. Chem. Phys. 7, 3297 (2005).

----- AuxJ basis set information -----
Your calculation utilizes the auxiliary basis: def2/J
   F. Weigend, Phys. Chem. Chem. Phys. 8, 1057 (2006).

================================================================================
                                        WARNINGS
                       Please study these warnings very carefully!
================================================================================


================================================================================
                                       INPUT FILE
================================================================================
NAME = sp.inp
|  1> ! pbe def2-sv(p) def2/J RI DEFGRID1 loosescf d4 GCP(DFT/SV(P)) printgap
|  2> %output
|  3>     printlevel normal
|  4> end
|  5> * xyz 0 1
|  6> C -2.6377153893 -1.380031123 -0.4551511349
|  7> C -1.9427523288 -0.2345246292 0.2733737352
|  8> C -0.4456719145 -0.2162578501 0.1186651025
|  9> C 0.3150003388 -1.3672872332 -0.0098211699
| 10> C 1.6929084453 -1.3143291412 -0.1425014423
| 11> C 2.3374510291 -0.0921849774 -0.1485664802
| 12> C 1.600293503 1.0710371926 -0.0167180019
| 13> C 0.2205257759 1.0153929942 0.1198558324
| 14> O -0.5212753078 2.1548125011 0.2566497436
| 15> H -2.3291265718 -1.4109487392 -1.4977565259
| 16> H -3.7157029975 -1.2391376473 -0.4186308749
| 17> H -2.4105107728 -2.3394046546 0.0027856422
| 18> H -2.1831310695 -0.2850353978 1.3402739767
| 19> H -2.3287018749 0.7175011076 -0.0955253037
| 20> H -0.1745539811 -2.3284376781 -0.0063904678
| 21> H 2.2597500839 -2.2278032703 -0.2414445339
| 22> H 3.4106716048 -0.0378788473 -0.2540325713
| 23> H 2.0964566625 2.0336850619 -0.0187929834
| 24> H 0.063883752 2.9208236031 0.2241304698
| 25> *
| 26> 
| 27>                          ****END OF INPUT****
================================================================================

                       ****************************
                       * Single Point Calculation *
                       ****************************

---------------------------------
CARTESIAN COORDINATES (ANGSTROEM)
---------------------------------
  C     -2.637715   -1.380031   -0.455151
  C     -1.942752   -0.234525    0.273374
  C     -0.445672   -0.216258    0.118665
  C      0.315000   -1.367287   -0.009821
  C      1.692908   -1.314329   -0.142501
  C      2.337451   -0.092185   -0.148566
  C      1.600294    1.071037   -0.016718
  C      0.220526    1.015393    0.119856
  O     -0.521275    2.154813    0.256650
  H     -2.329127   -1.410949   -1.497757
  H     -3.715703   -1.239138   -0.418631
  H     -2.410511   -2.339405    0.002786
  H     -2.183131   -0.285035    1.340274
  H     -2.328702    0.717501   -0.095525
  H     -0.174554   -2.328438   -0.006390
  H      2.259750   -2.227803   -0.241445
  H      3.410672   -0.037879   -0.254033
  H      2.096457    2.033685   -0.018793
  H      0.063884    2.920824    0.224130

----------------------------
CARTESIAN COORDINATES (A.U.)
----------------------------
  NO LB      ZA    FRAG     MASS         X           Y           Z
   0 C     6.0000    0    12.011   -4.984560   -2.607881   -0.860111
   1 C     6.0000    0    12.011   -3.671270   -0.443187    0.516601
   2 C     6.0000    0    12.011   -0.842198   -0.408668    0.224245
   3 C     6.0000    0    12.011    0.595264   -2.583798   -0.018559
   4 C     6.0000    0    12.011    3.199133   -2.483722   -0.269289
   5 C     6.0000    0    12.011    4.417142   -0.174204   -0.280750
   6 C     6.0000    0    12.011    3.024116    2.023967   -0.031592
   7 C     6.0000    0    12.011    0.416733    1.918815    0.226495
   8 O     8.0000    0    15.999   -0.985068    4.072005    0.484998
   9 H     1.0000    0     1.008   -4.401411   -2.666307   -2.830350
  10 H     1.0000    0     1.008   -7.021661   -2.341631   -0.791098
  11 H     1.0000    0     1.008   -4.555205   -4.420834    0.005264
  12 H     1.0000    0     1.008   -4.125520   -0.538639    2.532751
  13 H     1.0000    0     1.008   -4.400609    1.355881   -0.180517
  14 H     1.0000    0     1.008   -0.329859   -4.400110   -0.012076
  15 H     1.0000    0     1.008    4.270309   -4.209938   -0.456264
  16 H     1.0000    0     1.008    6.445235   -0.071581   -0.480052
  17 H     1.0000    0     1.008    3.961729    3.843108   -0.035514
  18 H     1.0000    0     1.008    0.120723    5.519557    0.423545

--------------------------------
INTERNAL COORDINATES (ANGSTROEM)
--------------------------------
 C      0   0   0     0.000000000000     0.00000000     0.00000000
 C      1   0   0     1.525092544455     0.00000000     0.00000000
 C      2   1   0     1.505163845942   114.40943266     0.00000000
 C      3   2   1     1.385640516114   123.05675172   327.47187828
 C      4   3   2     1.385293963082   121.54487618   180.39350700
 C      5   4   3     1.381704846965   119.88302856     0.00000000
 C      6   5   4     1.383427286234   119.65282917     0.24353426
 C      7   6   5     1.387626631979   120.36413869   359.93805568
 O      8   7   6     1.366476576683   121.07756274   179.72505741
 H      1   2   3     1.087754089222   110.48357213   307.98074464
 H      1   2   3     1.087769269799   109.77109145   188.38520410
 H      1   2   3     1.087072031981   111.49384951    68.88043758
 H      2   1   3     1.094810212794   109.31792765   237.96599566
 H      2   1   3     1.091511134421   109.42353862   121.11585020
 H      4   3   2     1.078649794688   119.38971423     0.36954336
 H      5   4   3     1.079599075195   119.91274055   180.03579250
 H      6   5   4     1.079756757906   120.56897019   180.16758260
 H      7   6   5     1.082992662330   120.20459935   179.90705356
 H      9   8   7     0.964490350818   109.23945528     0.92709919

---------------------------
INTERNAL COORDINATES (A.U.)
---------------------------
 C      0   0   0     0.000000000000     0.00000000     0.00000000
 C      1   0   0     2.882007237905     0.00000000     0.00000000
 C      2   1   0     2.844347455510   114.40943266     0.00000000
 C      3   2   1     2.618481095520   123.05675172   327.47187828
 C      4   3   2     2.617826205199   121.54487618   180.39350700
 C      5   4   3     2.611043758676   119.88302856     0.00000000
 C      6   5   4     2.614298697175   119.65282917     0.24353426
 C      7   6   5     2.622234310576   120.36413869   359.93805568
 O      8   7   6     2.582266498350   121.07756274   179.72505741
 H      1   2   3     2.055557329683   110.48357213   307.98074464
 H      1   2   3     2.055586016815   109.77109145   188.38520410
 H      1   2   3     2.054268428289   111.49384951    68.88043758
 H      2   1   3     2.068891470801   109.31792765   237.96599566
 H      2   1   3     2.062657116182   109.42353862   121.11585020
 H      4   3   2     2.038352706371   119.38971423     0.36954336
 H      5   4   3     2.040146586553   119.91274055   180.03579250
 H      6   5   4     2.040444563694   120.56897019   180.16758260
 H      7   6   5     2.046559536850   120.20459935   179.90705356
 H      9   8   7     1.822622621856   109.23945528     0.92709919

---------------------
BASIS SET INFORMATION
---------------------
There are 3 groups of distinct atoms

 Group   1 Type C   : 7s4p1d contracted to 3s2p1d pattern {511/31/1}
 Group   2 Type O   : 7s4p1d contracted to 3s2p1d pattern {511/31/1}
 Group   3 Type H   : 4s contracted to 2s pattern {31}

Atom   0C    basis set group =>   1
Atom   1C    basis set group =>   1
Atom   2C    basis set group =>   1
Atom   3C    basis set group =>   1
Atom   4C    basis set group =>   1
Atom   5C    basis set group =>   1
Atom   6C    basis set group =>   1
Atom   7C    basis set group =>   1
Atom   8O    basis set group =>   2
Atom   9H    basis set group =>   3
Atom  10H    basis set group =>   3
Atom  11H    basis set group =>   3
Atom  12H    basis set group =>   3
Atom  13H    basis set group =>   3
Atom  14H    basis set group =>   3
Atom  15H    basis set group =>   3
Atom  16H    basis set group =>   3
Atom  17H    basis set group =>   3
Atom  18H    basis set group =>   3
---------------------------------
AUXILIARY/J BASIS SET INFORMATION
---------------------------------
There are 3 groups of distinct atoms

 Group   1 Type C   : 12s5p4d2f1g contracted to 6s4p3d1f1g pattern {711111/2111/211/2/1}
 Group   2 Type O   : 12s5p4d2f1g contracted to 6s4p3d1f1g pattern {711111/2111/211/2/1}
 Group   3 Type H   : 5s2p1d contracted to 3s1p1d pattern {311/2/1}

Atom   0C    basis set group =>   1
Atom   1C    basis set group =>   1
Atom   2C    basis set group =>   1
Atom   3C    basis set group =>   1
Atom   4C    basis set group =>   1
Atom   5C    basis set group =>   1
Atom   6C    basis set group =>   1
Atom   7C    basis set group =>   1
Atom   8O    basis set group =>   2
Atom   9H    basis set group =>   3
Atom  10H    basis set group =>   3
Atom  11H    basis set group =>   3
Atom  12H    basis set group =>   3
Atom  13H    basis set group =>   3
Atom  14H    basis set group =>   3
Atom  15H    basis set group =>   3
Atom  16H    basis set group =>   3
Atom  17H    basis set group =>   3
Atom  18H    basis set group =>   3
------------------------------------------------------------------------------
                             ORCA STARTUP CALCULATIONS
                           -- RI-GTO INTEGRALS CHOSEN --
------------------------------------------------------------------------------
------------------------------------------------------------------------------
                   ___                                                        
                  /   \      - P O W E R E D   B Y -                         
                 /     \                                                     
                 |  |  |   _    _      __       _____    __    __             
                 |  |  |  | |  | |    /  \     |  _  \  |  |  /  |          
                  \  \/   | |  | |   /    \    | | | |  |  | /  /          
                 / \  \   | |__| |  /  /\  \   | |_| |  |  |/  /          
                |  |  |   |  __  | /  /__\  \  |    /   |      \           
                |  |  |   | |  | | |   __   |  |    \   |  |\   \          
                \     /   | |  | | |  |  |  |  | |\  \  |  | \   \       
                 \___/    |_|  |_| |__|  |__|  |_| \__\ |__|  \__/        
                                                                              
                      - O R C A' S   B I G   F R I E N D -                    
                                      &                                       
                       - I N T E G R A L  F E E D E R -                       
                                                                              
 v1 FN, 2020, v2 2021, v3 2022-2024                                           
------------------------------------------------------------------------------


----------------------
SHARK INTEGRAL PACKAGE
----------------------

Number of atoms                             ...     19
Number of basis functions                   ...    146
Number of shells                            ...     74
Maximum angular momentum                    ...      2
Integral batch strategy                     ... SHARK/LIBINT Hybrid
RI-J (if used) integral strategy            ... SPLIT-RIJ (Revised 2003 algorithm where possible)
Printlevel                                  ...      1
Contraction scheme used                     ... SEGMENTED contraction
Prescreening option                         ... SCHWARTZ
   Thresh                                   ... 1.000e-09
   Tcut                                     ... 1.000e-10
   Tpresel                                  ... 1.000e-10 
Coulomb Range Separation                    ... NOT USED
Exchange Range Separation                   ... NOT USED
Multipole approximations                    ... NOT USED
Finite Nucleus Model                        ... NOT USED
CABS basis                                  ... NOT available
Auxiliary Coulomb fitting basis             ... AVAILABLE
   # of basis functions in Aux-J            ...    551
   # of shells in Aux-J                     ...    185
   Maximum angular momentum in Aux-J        ...      4
Auxiliary J/K fitting basis                 ... NOT available
Auxiliary Correlation fitting basis         ... NOT available
Auxiliary 'external' fitting basis          ... NOT available

Checking pre-screening integrals            ... done (  0.0 sec) Dimension = 74
Check shell pair data                       ... done (  0.0 sec)
Shell pair information
Shell pair cut-off parameter TPreSel        ...   1.0e-10
Total number of shell pairs                 ...      2775
Shell pairs after pre-screening             ...      2606
Total number of primitive shell pairs       ...     11173
Primitive shell pairs kept                  ...      7324
          la=0 lb=0:   1034 shell pairs
          la=1 lb=0:    814 shell pairs
          la=1 lb=1:    171 shell pairs
          la=2 lb=0:    388 shell pairs
          la=2 lb=1:    157 shell pairs
          la=2 lb=2:     42 shell pairs

Calculating one electron integrals          ... done (  0.0 sec)
Calculating RI/J V-Matrix + Cholesky decomp.... done (  0.0 sec)
Calculating Nuclear repulsion               ... done (  0.0 sec) ENN=    428.372104787110 Eh

Diagonalization of the overlap matrix:
Smallest eigenvalue                        ... 2.321e-04
Time for diagonalization                   ...    0.002 sec
Threshold for overlap eigenvalues          ... 1.000e-07
Number of eigenvalues below threshold      ... 0
Time for construction of square roots      ...    0.003 sec
Total time needed                          ...    0.006 sec

-------------------
DFT GRID GENERATION
-------------------

General Integration Accuracy     IntAcc      ... 4.159
Radial Grid Type                 RadialGrid  ... OptM3 with GC (2021)
Angular Grid (max. ang.)         AngularGrid ... 3 (Lebedev-194)
Angular grid pruning method      GridPruning ... 4 (adaptive)
Weight generation scheme         WeightScheme... mBecke (2022)
Basis function cutoff            BFCut       ... 1.0000e-10
Integration weight cutoff        WCut        ... 1.0000e-14
Partially contracted basis set               ... off
Rotationally invariant grid construction     ... off
Angular grids for H and He will be reduced by one unit

Total number of grid points                  ...    43376
Total number of batches                      ...      687
Average number of points per batch           ...       63
Average number of grid points per atom       ...     2283
Initializing property integral containers    ... done (  0.0 sec)

SHARK setup successfully completed in   0.4 seconds

Maximum memory used throughout the entire STARTUP-calculation: 21.6 MB
-------------------------------------------------------------------------------
                                 ORCA GUESS
                   Start orbitals & Density for SCF / CASSCF
-------------------------------------------------------------------------------

------------
SCF SETTINGS
------------
Hamiltonian:
 Density Functional     Method          .... DFT(GTOs)
 Exchange Functional    Exchange        .... PBE
   PBE kappa parameter   XKappa         ....  0.804000
   PBE mue parameter    XMuePBE         ....  0.219520
 Correlation Functional Correlation     .... PBE
   PBE beta parameter  CBetaPBE         ....  0.066725
 LDA part of GGA corr.  LDAOpt          .... PW91-LDA
 Gradients option       PostSCFGGA      .... off
   NL short-range parameter             ....  6.400000
 RI-approximation to the Coulomb term is turned on
   Number of AuxJ basis functions       .... 551


General Settings:
 Integral files         IntName         .... sp
 Hartree-Fock type      HFTyp           .... RHF
 Total Charge           Charge          ....    0
 Multiplicity           Mult            ....    1
 Number of Electrons    NEL             ....   66
 Basis Dimension        Dim             ....  146
 Nuclear Repulsion      ENuc            ....    428.3721047871 Eh

Convergence Acceleration:
 AO-DIIS                CNVDIIS         .... on
   Start iteration      DIISMaxIt       ....    12
   Startup error        DIISStart       ....  0.200000
   # of expansion vecs  DIISMaxEq       ....     5
   Bias factor          DIISBfac        ....   1.050
   Max. coefficient     DIISMaxC        ....  10.000
 MO-DIIS                CNVKDIIS        .... off
 Trust-Rad. Augm. Hess. CNVTRAH         .... auto
   Auto Start mean grad. ratio tolernc. ....  1.125000
   Auto Start start iteration           ....    50
   Auto Start num. interpolation iter.  ....    10
   Max. Number of Micro iterations      ....    24
   Max. Number of Macro iterations      .... Maxiter - #DIIS iter
   Number of Davidson start vectors     ....     2
   Converg. threshold    (grad. norm)   ....   1.000e-04
   Grad. Scal. Fac. for Micro threshold ....   0.100
   Minimum threshold for Micro iter.    ....   1.000e-02
   NR start threshold (gradient norm)   ....   1.000e-04
   Initial trust radius                 ....   0.400
   Minimum AH scaling param. (alpha)    ....   1.000
   Maximum AH scaling param. (alpha)    .... 1000.000
   Quad. conv. algorithm                .... NR
   White noise on init. David. guess    .... on
   Maximum white noise                  ....   0.010
   Pseudo random numbers                .... off
   Inactive MOs                         .... canonical
   Orbital update algorithm             .... Taylor
   Preconditioner                       .... Diag
   Full preconditioner red. dimension   ....   250
 SOSCF                  CNVSOSCF        .... on
   Start iteration      SOSCFMaxIt      ....   150
   Startup grad/error   SOSCFStart      ....  0.003300
   Hessian update       SOSCFHessUp     .... L-BFGS
 Level Shifting         CNVShift        .... on
   Level shift para.    LevelShift      ....    0.2500
   Turn off err/grad.   ShiftErr        ....    0.0010
 Zerner damping         CNVZerner       .... off
 Static damping         CNVDamp         .... on
   Fraction old density DampFac         ....    0.7000
   Max. Damping (<1)    DampMax         ....    0.9800
   Min. Damping (>=0)   DampMin         ....    0.0000
   Turn off err/grad.   DampErr         ....    0.1000

SCF Procedure:
 Maximum # iterations   MaxIter         ....   125
 SCF integral mode      SCFMode         .... Direct
   Integral package                     .... SHARK and LIBINT hybrid scheme
 Reset frequency        DirectResetFreq ....    20
 Integral Threshold     Thresh          ....  1.000e-09 Eh
 Primitive CutOff       TCut            ....  1.000e-10 Eh

Convergence Tolerance:
 Convergence Check Mode ConvCheckMode   .... Total+1el-Energy
 Convergence forced     ConvForced      .... 0
 Energy Change          TolE            ....  1.000e-05 Eh
 1-El. energy change                    ....  1.000e-02 Eh
 Orbital Gradient       TolG            ....  1.000e-04
 Orbital Rotation angle TolX            ....  1.000e-04
 DIIS Error             TolErr          ....  5.000e-04

------------------------------
INITIAL GUESS: MODEL POTENTIAL
------------------------------
Loading Hartree-Fock densities                     ... done
Calculating cut-offs                               ... done
Initializing the effective Hamiltonian             ... done
Setting up the integral package (SHARK)            ... done
Starting the Coulomb interaction                   ... done (   0.1 sec)
Making the grid                                    ... done (   0.2 sec)
Mapping shells                                     ... done
Starting the XC term evaluation                    ... done (   0.1 sec)
  promolecular density results
     # of electrons  =     65.992939440
     EX              =    -52.053858669
     EC              =     -2.184336972
     EX+EC           =    -54.238195641
Transforming the Hamiltonian                       ... done (   0.0 sec)
Diagonalizing the Hamiltonian                      ... done (   0.0 sec)
Back transforming the eigenvectors                 ... done (   0.0 sec)
Now organizing SCF variables                       ... done
                      ------------------
                      INITIAL GUESS DONE (   0.4 sec)
                      ------------------
             **** ENERGY FILE WAS UPDATED (sp.en.tmp) ****
Finished Guess after   0.4 sec
Maximum memory used throughout the entire GUESS-calculation: 16.8 MB

-------------------------------------------------------------------------------------------
                                      ORCA LEAN-SCF
                              memory conserving SCF solver
-------------------------------------------------------------------------------------------

----------------------------------------D-I-I-S--------------------------------------------
Iteration    Energy (Eh)           Delta-E    RMSDP     MaxDP     DIISErr   Damp  Time(sec)
-------------------------------------------------------------------------------------------
               ***  Starting incremental Fock matrix formation  ***
    1    -385.0836656538864418     0.00e+00  4.27e-03  8.07e-02  1.75e-01  0.700   0.5
    2    -385.1861346830128241    -1.02e-01  3.01e-03  4.65e-02  7.65e-02  0.700   0.4
                               ***Turning on AO-DIIS***
    3    -385.2235076147696873    -3.74e-02  1.18e-03  1.43e-02  2.28e-02  0.700   0.9
    4    -385.2452602285985677    -2.18e-02  1.88e-03  2.20e-02  1.00e-02  0.000   0.4
    5    -385.2939352408857303    -4.87e-02  5.12e-04  6.58e-03  9.97e-03  0.000   0.4
                              *** Initializing SOSCF ***
---------------------------------------S-O-S-C-F--------------------------------------
Iteration    Energy (Eh)           Delta-E    RMSDP     MaxDP     MaxGrad    Time(sec)
--------------------------------------------------------------------------------------
    6    -385.2943705265689687    -4.35e-04  1.79e-04  2.50e-03  2.49e-03     0.6
               *** Restarting incremental Fock matrix formation ***
    7    -385.2944085571909909    -3.80e-05  1.16e-04  1.72e-03  2.32e-04     0.5
    8    -385.2944053130106568     3.24e-06  4.94e-05  1.22e-03  7.25e-04     0.4
                 **** Energy Check signals convergence ****

               *****************************************************
               *                     SUCCESS                       *
               *           SCF CONVERGED AFTER   8 CYCLES          *
               *****************************************************

             **** ENERGY FILE WAS UPDATED (sp.en.tmp) ****

----------------
TOTAL SCF ENERGY
----------------

Total Energy       :       -385.29440531301066 Eh          -10484.39378 eV

Components:
Nuclear Repulsion  :        428.37210478710961 Eh           11656.59758 eV
Electronic Energy  :       -813.66651010012026 Eh          -22140.99137 eV
One Electron Energy:      -1370.36746097876016 Eh          -37289.59438 eV
Two Electron Energy:        556.70095087863990 Eh           15148.60301 eV

Virial components:
Potential Energy   :       -767.33617804208382 Eh          -20880.27894 eV
Kinetic Energy     :        382.04177272907316 Eh           10395.88515 eV
Virial Ratio       :          2.00851381397564

DFT components:
N(Alpha)           :       32.999896906197 electrons
N(Beta)            :       32.999896906197 electrons
N(Total)           :       65.999793812394 electrons
E(X)               :      -53.051672398869 Eh       
E(C)               :       -2.200325434411 Eh       
E(XC)              :      -55.251997833279 Eh       

---------------
SCF CONVERGENCE
---------------

  Last Energy change         ...   -3.2442e-06  Tolerance :   1.0000e-05
  Last MAX-Density change    ...    1.2189e-03  Tolerance :   1.0000e-03
  Last RMS-Density change    ...    4.9389e-05  Tolerance :   1.0000e-04
  Last DIIS Error            ...    2.4915e-03  Tolerance :   5.0000e-04
  Last Orbital Gradient      ...    7.2504e-04  Tolerance :   1.0000e-04
  Last Orbital Rotation      ...    1.4992e-03  Tolerance :   1.0000e-04


----------------
ORBITAL ENERGIES
----------------

  NO   OCC          E(Eh)            E(eV) 
   0   2.0000     -18.779911      -511.0274 
   1   2.0000      -9.946253      -270.6513 
   2   2.0000      -9.892364      -269.1849 
   3   2.0000      -9.888363      -269.0760 
   4   2.0000      -9.887948      -269.0647 
   5   2.0000      -9.885508      -268.9983 
   6   2.0000      -9.883256      -268.9371 
   7   2.0000      -9.880984      -268.8753 
   8   2.0000      -9.873559      -268.6732 
   9   2.0000      -0.962024       -26.1780 
  10   2.0000      -0.770509       -20.9666 
  11   2.0000      -0.706544       -19.2260 
  12   2.0000      -0.659218       -17.9382 
  13   2.0000      -0.645636       -17.5686 
  14   2.0000      -0.572289       -15.5728 
  15   2.0000      -0.552132       -15.0243 
  16   2.0000      -0.510892       -13.9021 
  17   2.0000      -0.488466       -13.2918 
  18   2.0000      -0.437724       -11.9111 
  19   2.0000      -0.417731       -11.3670 
  20   2.0000      -0.396669       -10.7939 
  21   2.0000      -0.383751       -10.4424 
  22   2.0000      -0.380578       -10.3560 
  23   2.0000      -0.357520        -9.7286 
  24   2.0000      -0.340639        -9.2693 
  25   2.0000      -0.330514        -8.9937 
  26   2.0000      -0.322162        -8.7665 
  27   2.0000      -0.308837        -8.4039 
  28   2.0000      -0.292865        -7.9693 
  29   2.0000      -0.289240        -7.8706 
  30   2.0000      -0.281150        -7.6505 
  31   2.0000      -0.219226        -5.9654 
  32   2.0000      -0.190293        -5.1781 
  33   0.0000      -0.029172        -0.7938 
  34   0.0000      -0.014396        -0.3917 
  35   0.0000       0.023499         0.6394 
  36   0.0000       0.048246         1.3128 
  37   0.0000       0.056137         1.5276 
  38   0.0000       0.088949         2.4204 
  39   0.0000       0.097362         2.6494 
  40   0.0000       0.103643         2.8203 
  41   0.0000       0.116043         3.1577 
  42   0.0000       0.126324         3.4374 
  43   0.0000       0.134030         3.6472 
*Only the first 10 virtual orbitals were printed.

                    ********************************
                    * MULLIKEN POPULATION ANALYSIS *
                    ********************************

-----------------------
MULLIKEN ATOMIC CHARGES
-----------------------
   0 C :   -0.289492
   1 C :   -0.122112
   2 C :   -0.005656
   3 C :   -0.152460
   4 C :   -0.040240
   5 C :   -0.052985
   6 C :   -0.161951
   7 C :    0.176475
   8 O :   -0.337920
   9 H :    0.107838
  10 H :    0.102208
  11 H :    0.109507
  12 H :    0.102426
  13 H :    0.098802
  14 H :    0.036008
  15 H :    0.043783
  16 H :    0.049059
  17 H :    0.021350
  18 H :    0.315360
Sum of atomic charges:   -0.0000000

--------------------------------
MULLIKEN REDUCED ORBITAL CHARGES
--------------------------------
  0 C s       :     3.092980  s :     3.092980
      pz      :     1.059847  p :     3.167173
      px      :     1.056505
      py      :     1.050821
      dz2     :     0.008955  d :     0.029339
      dxz     :     0.002421
      dyz     :     0.004997
      dx2y2   :     0.009895
      dxy     :     0.003071

  1 C s       :     2.995351  s :     2.995351
      pz      :     1.049835  p :     3.090194
      px      :     1.005747
      py      :     1.034612
      dz2     :     0.010211  d :     0.036567
      dxz     :     0.005914
      dyz     :     0.004090
      dx2y2   :     0.009337
      dxy     :     0.007015

  2 C s       :     3.047278  s :     3.047278
      pz      :     1.015583  p :     2.919080
      px      :     0.957251
      py      :     0.946247
      dz2     :     0.003013  d :     0.039298
      dxz     :     0.006457
      dyz     :     0.005948
      dx2y2   :     0.011046
      dxy     :     0.012833

  3 C s       :     3.296714  s :     3.296714
      pz      :     1.005667  p :     2.820626
      px      :     0.921004
      py      :     0.893955
      dz2     :     0.003319  d :     0.035120
      dxz     :     0.006120
      dyz     :     0.003089
      dx2y2   :     0.010215
      dxy     :     0.012376

  4 C s       :     3.172434  s :     3.172434
      pz      :     1.025427  p :     2.832836
      px      :     0.941483
      py      :     0.865926
      dz2     :     0.003120  d :     0.034970
      dxz     :     0.005302
      dyz     :     0.003457
      dx2y2   :     0.010066
      dxy     :     0.013026

  5 C s       :     3.187138  s :     3.187138
      pz      :     0.994763  p :     2.829961
      px      :     0.847690
      py      :     0.987508
      dz2     :     0.003127  d :     0.035886
      dxz     :     0.002154
      dyz     :     0.007630
      dx2y2   :     0.013829
      dxy     :     0.009146

  6 C s       :     3.257926  s :     3.257926
      pz      :     1.083227  p :     2.871092
      px      :     0.975458
      py      :     0.812406
      dz2     :     0.003449  d :     0.032934
      dxz     :     0.005628
      dyz     :     0.002905
      dx2y2   :     0.011358
      dxy     :     0.009593

  7 C s       :     2.965342  s :     2.965342
      pz      :     0.986793  p :     2.786947
      px      :     0.881917
      py      :     0.918236
      dz2     :     0.005271  d :     0.071236
      dxz     :     0.009912
      dyz     :     0.013541
      dx2y2   :     0.019589
      dxy     :     0.022923

  8 O s       :     3.752116  s :     3.752116
      pz      :     1.823654  p :     4.569458
      px      :     1.551521
      py      :     1.194283
      dz2     :     0.002754  d :     0.016346
      dxz     :     0.001912
      dyz     :     0.001222
      dx2y2   :     0.001760
      dxy     :     0.008698

  9 H s       :     0.892162  s :     0.892162

 10 H s       :     0.897792  s :     0.897792

 11 H s       :     0.890493  s :     0.890493

 12 H s       :     0.897574  s :     0.897574

 13 H s       :     0.901198  s :     0.901198

 14 H s       :     0.963992  s :     0.963992

 15 H s       :     0.956217  s :     0.956217

 16 H s       :     0.950941  s :     0.950941

 17 H s       :     0.978650  s :     0.978650

 18 H s       :     0.684640  s :     0.684640


------------------------
MULLIKEN OVERLAP CHARGES
------------------------
B(  0-C ,  1-C ) :   0.8777 B(  0-C ,  2-C ) :  -0.1093 B(  0-C ,  9-H ) :   0.7726 
B(  0-C , 10-H ) :   0.7288 B(  0-C , 11-H ) :   0.7335 B(  1-C ,  2-C ) :   0.7536 
B(  1-C ,  3-C ) :  -0.2492 B(  1-C ,  7-C ) :  -0.1861 B(  1-C ,  9-H ) :  -0.0668 
B(  1-C , 12-H ) :   0.6437 B(  1-C , 13-H ) :   0.6857 B(  1-C , 14-H ) :  -0.0673 
B(  2-C ,  3-C ) :   0.4373 B(  2-C ,  4-C ) :   0.3748 B(  2-C ,  5-C ) :  -0.3838 
B(  2-C ,  6-C ) :   0.1383 B(  2-C ,  7-C ) :   0.0960 B(  2-C ,  8-O ) :  -0.2038 
B(  2-C , 14-H ) :  -0.1891 B(  3-C ,  4-C ) :   0.2562 B(  3-C ,  5-C ) :   0.3733 
B(  3-C ,  6-C ) :  -0.3854 B(  3-C ,  7-C ) :   0.3042 B(  3-C , 14-H ) :   0.8966 
B(  3-C , 15-H ) :  -0.1818 B(  4-C ,  5-C ) :   0.2477 B(  4-C ,  6-C ) :   0.3539 
B(  4-C ,  7-C ) :  -0.4573 B(  4-C , 14-H ) :  -0.1879 B(  4-C , 15-H ) :   0.8918 
B(  4-C , 16-H ) :  -0.1788 B(  5-C ,  6-C ) :   0.2087 B(  5-C ,  7-C ) :   0.4216 
B(  5-C , 15-H ) :  -0.1919 B(  5-C , 16-H ) :   0.8769 B(  5-C , 17-H ) :  -0.1506 
B(  6-C ,  7-C ) :   0.2977 B(  6-C ,  8-O ) :  -0.1743 B(  6-C , 16-H ) :  -0.1711 
B(  6-C , 17-H ) :   0.8334 B(  7-C ,  8-O ) :   0.8719 B(  7-C , 17-H ) :  -0.1983 
B(  7-C , 18-H ) :  -0.0737 B(  8-O , 18-H ) :   0.5362 B(  9-H , 11-H ) :  -0.0586 
B( 12-H , 13-H ) :  -0.0559 


                     *******************************
                     * LOEWDIN POPULATION ANALYSIS *
                     *******************************

----------------------
LOEWDIN ATOMIC CHARGES
----------------------
   0 C :   -0.338135
   1 C :   -0.220286
   2 C :   -0.064508
   3 C :   -0.118097
   4 C :   -0.146226
   5 C :   -0.123134
   6 C :   -0.176119
   7 C :    0.025248
   8 O :   -0.236250
   9 H :    0.121167
  10 H :    0.120810
  11 H :    0.116384
  12 H :    0.130578
  13 H :    0.127310
  14 H :    0.122894
  15 H :    0.120997
  16 H :    0.122631
  17 H :    0.117839
  18 H :    0.296897

-------------------------------
LOEWDIN REDUCED ORBITAL CHARGES
-------------------------------
  0 C s       :     2.944084  s :     2.944084
      pz      :     1.116824  p :     3.323088
      px      :     1.108154
      py      :     1.098110
      dz2     :     0.020619  d :     0.070963
      dxz     :     0.006053
      dyz     :     0.012833
      dx2y2   :     0.023311
      dxy     :     0.008147

  1 C s       :     2.894957  s :     2.894957
      pz      :     1.096958  p :     3.236463
      px      :     1.046492
      py      :     1.093013
      dz2     :     0.023802  d :     0.088866
      dxz     :     0.013430
      dyz     :     0.010666
      dx2y2   :     0.023779
      dxy     :     0.017189

  2 C s       :     2.851686  s :     2.851686
      pz      :     0.995198  p :     3.107101
      px      :     1.042294
      py      :     1.069610
      dz2     :     0.007837  d :     0.105720
      dxz     :     0.011745
      dyz     :     0.012862
      dx2y2   :     0.034971
      dxy     :     0.038306

  3 C s       :     2.887465  s :     2.887465
      pz      :     0.996604  p :     3.137710
      px      :     1.076763
      py      :     1.064343
      dz2     :     0.007321  d :     0.092922
      dxz     :     0.013572
      dyz     :     0.006204
      dx2y2   :     0.030583
      dxy     :     0.035241

  4 C s       :     2.886070  s :     2.886070
      pz      :     1.020117  p :     3.167545
      px      :     1.079567
      py      :     1.067861
      dz2     :     0.007133  d :     0.092611
      dxz     :     0.011552
      dyz     :     0.006849
      dx2y2   :     0.030466
      dxy     :     0.036611

  5 C s       :     2.888135  s :     2.888135
      pz      :     0.990174  p :     3.140700
      px      :     1.060674
      py      :     1.089852
      dz2     :     0.007133  d :     0.094300
      dxz     :     0.003721
      dyz     :     0.017204
      dx2y2   :     0.037669
      dxy     :     0.028572

  6 C s       :     2.891389  s :     2.891389
      pz      :     1.063558  p :     3.195083
      px      :     1.063682
      py      :     1.067844
      dz2     :     0.007772  d :     0.089646
      dxz     :     0.012237
      dyz     :     0.005771
      dx2y2   :     0.033681
      dxy     :     0.030186

  7 C s       :     2.839003  s :     2.839003
      pz      :     0.979719  p :     2.965412
      px      :     1.042415
      py      :     0.943278
      dz2     :     0.011917  d :     0.170337
      dxz     :     0.020501
      dyz     :     0.027733
      dx2y2   :     0.050727
      dxy     :     0.059459

  8 O s       :     3.509573  s :     3.509573
      pz      :     1.819478  p :     4.697904
      px      :     1.614992
      py      :     1.263434
      dz2     :     0.004431  d :     0.028773
      dxz     :     0.002158
      dyz     :     0.002399
      dx2y2   :     0.003632
      dxy     :     0.016153

  9 H s       :     0.878833  s :     0.878833

 10 H s       :     0.879190  s :     0.879190

 11 H s       :     0.883616  s :     0.883616

 12 H s       :     0.869422  s :     0.869422

 13 H s       :     0.872690  s :     0.872690

 14 H s       :     0.877106  s :     0.877106

 15 H s       :     0.879003  s :     0.879003

 16 H s       :     0.877369  s :     0.877369

 17 H s       :     0.882161  s :     0.882161

 18 H s       :     0.703103  s :     0.703103


---------------------------------
LOEWDIN BOND ORDERS (THRESH 0.050000)
---------------------------------
B(  0-C ,  1-C ) :   1.1233 B(  0-C ,  2-C ) :   0.0556 B(  0-C ,  9-H ) :   0.9409 
B(  0-C , 10-H ) :   0.9371 B(  0-C , 11-H ) :   0.9378 B(  1-C ,  2-C ) :   1.0581 
B(  1-C ,  3-C ) :   0.0681 B(  1-C ,  7-C ) :   0.0722 B(  1-C , 12-H ) :   0.8901 
B(  1-C , 13-H ) :   0.8915 B(  2-C ,  3-C ) :   1.4605 B(  2-C ,  4-C ) :   0.0880 
B(  2-C ,  5-C ) :   0.1101 B(  2-C ,  6-C ) :   0.0876 B(  2-C ,  7-C ) :   1.3414 
B(  2-C ,  8-O ) :   0.0984 B(  3-C ,  4-C ) :   1.4882 B(  3-C ,  5-C ) :   0.0878 
B(  3-C ,  6-C ) :   0.1108 B(  3-C ,  7-C ) :   0.0898 B(  3-C , 14-H ) :   0.8787 
B(  4-C ,  5-C ) :   1.5034 B(  4-C ,  6-C ) :   0.0898 B(  4-C ,  7-C ) :   0.1017 
B(  4-C , 15-H ) :   0.8883 B(  5-C ,  6-C ) :   1.4964 B(  5-C ,  7-C ) :   0.0916 
B(  5-C , 16-H ) :   0.8879 B(  6-C ,  7-C ) :   1.4313 B(  6-C ,  8-O ) :   0.1151 
B(  6-C , 17-H ) :   0.8779 B(  7-C ,  8-O ) :   1.3163 B(  8-O , 18-H ) :   0.8724 


------------------------------------------
LOEWDIN REDUCED ORBITAL POPULATIONS PER MO
-------------------------------------------
THRESHOLD FOR PRINTING IS 0.1%%
                      0         1         2         3         4         5   
                 -18.77991  -9.94625  -9.89236  -9.88836  -9.88795  -9.88551
                   2.00000   2.00000   2.00000   2.00000   2.00000   2.00000
                  --------  --------  --------  --------  --------  --------
 1 C  px              0.0       0.0       0.1       0.0       0.0       0.0
 2 C  s               0.0       0.0      99.5       0.0       0.0       0.1
 2 C  py              0.0       0.1       0.0       0.0       0.0       0.1
 3 C  s               0.0       0.0       0.1       0.0       0.0      99.4
 3 C  py              0.0       0.0       0.1       0.0       0.0       0.0
 4 C  px              0.0       0.0       0.0       0.0       0.0       0.1
 4 C  py              0.0       0.0       0.0       0.1       0.0       0.0
 5 C  s               0.0       0.0       0.0      88.7      10.9       0.0
 6 C  s               0.0       0.0       0.0      10.9      88.7       0.0
 6 C  px              0.0       0.1       0.0       0.0       0.0       0.0
 7 C  s               0.0      99.5       0.0       0.0       0.0       0.0
 7 C  px              0.0       0.0       0.0       0.0       0.1       0.0
 7 C  py              0.0       0.0       0.1       0.0       0.0       0.0
 8 O  s              99.9       0.0       0.0       0.0       0.0       0.0

                      6         7         8         9        10        11   
                  -9.88326  -9.88098  -9.87356  -0.96202  -0.77051  -0.70654
                   2.00000   2.00000   2.00000   2.00000   2.00000   2.00000
                  --------  --------  --------  --------  --------  --------
 0 C  s               0.0       0.0      99.7       0.0       0.7      11.0
 0 C  pz              0.0       0.0       0.0       0.0       0.1       0.4
 0 C  px              0.0       0.0       0.0       0.0       0.2       0.6
 0 C  py              0.1       0.0       0.0       0.0       0.1       1.1
 1 C  s              99.6       0.0       0.0       0.1       3.1      19.7
 1 C  pz              0.0       0.0       0.0       0.0       0.0       0.3
 1 C  px              0.0       0.0       0.0       0.1       1.2       0.2
 1 C  py              0.0       0.0       0.1       0.1       0.0       0.4
 2 C  s               0.0       0.0       0.0       0.8      14.0       9.0
 2 C  px              0.1       0.0       0.0       0.1       1.3       4.5
 2 C  py              0.0       0.0       0.0       1.2       0.0       0.1
 2 C  dz2             0.0       0.0       0.0       0.0       0.2       0.1
 3 C  s               0.0       0.1       0.0       0.1      12.6       0.5
 3 C  px              0.0       0.1       0.0       0.0       0.3       3.8
 3 C  py              0.0       0.0       0.0       0.1       2.2       0.4
 3 C  dz2             0.0       0.0       0.0       0.0       0.1       0.0
 4 C  s               0.0      99.5       0.0       0.0      10.8       3.4
 4 C  px              0.0       0.0       0.0       0.0       0.8       0.8
 4 C  py              0.0       0.0       0.0       0.0       1.7       1.3
 4 C  dz2             0.0       0.0       0.0       0.0       0.1       0.0
 5 C  s               0.0       0.1       0.0       0.1      10.4       9.4
 5 C  px              0.0       0.0       0.0       0.1       2.4       0.5
 5 C  py              0.0       0.1       0.0       0.0       0.0       0.1
 5 C  dz2             0.0       0.0       0.0       0.0       0.1       0.1
 6 C  s               0.0       0.0       0.0       0.9       9.7       6.3
 6 C  px              0.0       0.0       0.0       1.4       0.3       0.6
 6 C  py              0.0       0.0       0.0       0.1       2.3       0.8
 6 C  dz2             0.0       0.0       0.0       0.0       0.1       0.1
 7 C  s               0.0       0.0       0.0      10.6       7.6       0.0
 7 C  px              0.0       0.0       0.0       2.1       1.0       5.0
 7 C  py              0.0       0.0       0.0       7.1       5.2       1.1
 7 C  dz2             0.0       0.0       0.0       0.4       0.1       0.0
 7 C  dx2y2           0.0       0.0       0.0       0.2       0.0       0.0
 7 C  dxy             0.0       0.0       0.0       0.5       0.1       0.0
 8 O  s               0.0       0.0       0.0      58.1       1.9       0.0
 8 O  px              0.0       0.0       0.0       3.4       0.1       0.1
 8 O  py              0.0       0.0       0.0       0.1       1.1       0.3
 9 H  s               0.0       0.0       0.1       0.0       0.1       2.1
10 H  s               0.0       0.0       0.1       0.0       0.1       1.9
11 H  s               0.0       0.0       0.1       0.0       0.1       2.1
12 H  s               0.1       0.0       0.0       0.0       0.5       3.7
13 H  s               0.1       0.0       0.0       0.1       0.5       3.7
14 H  s               0.0       0.0       0.0       0.0       1.7       0.3
15 H  s               0.0       0.1       0.0       0.0       1.4       0.5
16 H  s               0.0       0.0       0.0       0.0       1.3       1.6
17 H  s               0.0       0.0       0.0       0.2       1.1       1.2
18 H  s               0.0       0.0       0.0      11.6       0.7       0.1

                     12        13        14        15        16        17   
                  -0.65922  -0.64564  -0.57229  -0.55213  -0.51089  -0.48847
                   2.00000   2.00000   2.00000   2.00000   2.00000   2.00000
                  --------  --------  --------  --------  --------  --------
 0 C  s               0.0      18.4       6.2       7.4       2.9       0.0
 0 C  pz              0.0       0.1       0.3       0.6       1.4       0.1
 0 C  px              0.0       0.0       0.2       1.1       0.3       0.2
 0 C  py              0.0       0.2       1.3       1.1       2.6       0.8
 1 C  s               0.3       5.2       4.1       3.3       6.5       1.1
 1 C  pz              0.0       0.4       0.6       0.8       1.3       0.1
 1 C  px              0.0       4.6       0.9       1.9       0.9       1.1
 1 C  py              0.1       1.8       4.0       0.4       1.3       0.4
 2 C  s               0.1       6.5       0.3       2.4       3.6       0.0
 2 C  pz              0.0       0.0       0.2       0.1       0.2       0.0
 2 C  px              0.1       3.8       4.8       1.9       3.8       0.8
 2 C  py              7.8       0.2       5.4       5.3       0.0       3.3
 2 C  dx2y2           0.0       0.1       0.0       0.1       0.1       0.2
 2 C  dxy             0.3       0.0       0.0       0.1       0.0       0.1
 3 C  s              13.8       3.3       5.8       0.5       0.7       3.9
 3 C  pz              0.0       0.0       0.0       0.1       0.0       0.0
 3 C  px              2.4       0.9       0.6       5.3       3.4       4.8
 3 C  py              0.6       0.9       0.2       0.5       7.4       4.0
 3 C  dz2             0.1       0.0       0.0       0.0       0.0       0.0
 3 C  dx2y2           0.1       0.1       0.0       0.0       0.2       0.0
 4 C  s              15.1       1.2       1.7       4.1       3.1       1.6
 4 C  px              1.7       3.4       7.0       0.1       1.1       0.2
 4 C  py              0.5       1.1       1.1       0.7       7.0       0.4
 4 C  dz2             0.1       0.0       0.0       0.0       0.0       0.0
 4 C  dx2y2           0.1       0.1       0.1       0.0       0.0       0.0
 5 C  s               0.0       9.8       6.1       0.8       3.3       2.1
 5 C  px              0.0       0.1       1.2       0.2       0.5       5.8
 5 C  py              9.5       0.0       3.0       5.0       0.0       5.0
 5 C  dxy             0.3       0.0       0.1       0.1       0.0       0.0
 6 C  s              13.2       2.3       3.3       1.8       2.9       0.5
 6 C  px              1.4       3.7       1.9       4.2       1.0      11.1
 6 C  py              0.3       0.5       2.4       0.1       7.4       0.7
 6 C  dz2             0.1       0.0       0.0       0.0       0.0       0.0
 6 C  dxy             0.0       0.1       0.0       0.0       0.0       0.1
 7 C  s               9.8       3.7       0.0       5.4       0.1       0.4
 7 C  pz              0.0       0.0       0.1       0.0       0.0       0.1
 7 C  px              3.0       1.7       9.8       1.4       3.3       5.1
 7 C  py              0.1       2.4       0.2       0.7       6.6       5.6
 7 C  dx2y2           0.2       0.0       0.0       0.0       0.2       0.0
 7 C  dxy             0.1       0.0       0.0       0.1       0.0       0.3
 8 O  s               2.4       0.3       0.2       0.3       0.8       0.3
 8 O  px              0.2       0.0       1.3       0.0       1.0       0.5
 8 O  py              4.1       2.7       4.5      20.7       1.9      18.1
 8 O  dxy             0.1       0.0       0.0       0.3       0.0       0.2
 9 H  s               0.0       3.9       2.2       2.6       2.0       0.1
10 H  s               0.0       4.5       2.0       3.3       1.2       0.0
11 H  s               0.0       4.0       2.6       2.5       1.7       0.3
12 H  s               0.1       1.2       1.5       1.3       3.9       0.7
13 H  s               0.1       1.1       2.4       0.6       3.2       0.7
14 H  s               3.2       0.4       2.7       0.2       1.4       6.6
15 H  s               3.4       0.3       0.8       2.0       3.2       0.3
16 H  s               0.0       2.6       2.8       0.5       1.8       4.4
17 H  s               3.0       0.8       1.7       1.5       3.7       2.2
18 H  s               1.7       0.9       1.5       6.0       0.5       5.1

                     18        19        20        21        22        23   
                  -0.43772  -0.41773  -0.39667  -0.38375  -0.38058  -0.35752
                   2.00000   2.00000   2.00000   2.00000   2.00000   2.00000
                  --------  --------  --------  --------  --------  --------
 0 C  s               0.0       0.2       0.1       0.1       0.0       0.0
 0 C  pz              0.2       5.4       9.3       0.0       0.1       9.6
 0 C  px              1.6       0.6       3.6       2.8      10.5       0.0
 0 C  py              1.0       0.0       7.5       3.6       4.4       1.4
 1 C  s               0.3       0.3       0.2       0.0       0.0       0.0
 1 C  pz              0.2       5.0      20.8       0.5       0.0       0.5
 1 C  px              6.1       0.7       0.1       7.2       5.6       0.3
 1 C  py              2.1       5.0       0.8       2.6       0.5       1.4
 2 C  s               2.8       1.0       0.1       0.6       0.5       0.0
 2 C  pz              0.0       0.7       6.8       0.5       0.0       5.9
 2 C  px              1.4       0.1       1.5       2.3       6.3       0.1
 2 C  py              0.3       9.8       2.7       1.1       2.1       0.1
 2 C  dx2y2           0.0       0.0       0.0       0.1       0.0       0.0
 2 C  dxy             0.1       0.0       0.1       0.1       0.4       0.0
 3 C  s               1.0       0.1       0.0       1.1       0.6       0.0
 3 C  pz              0.0       0.4       1.2       0.1       0.1       2.7
 3 C  px              5.2       3.5       0.4       2.0       0.4       0.0
 3 C  py              0.0       0.9       0.8       8.4      14.1       0.3
 3 C  dx2y2           0.0       0.0       0.0       0.3       0.0       0.0
 3 C  dxy             0.2       0.0       0.0       0.1       0.1       0.0
 4 C  s               0.9       0.6       0.0       2.0       0.0       0.0
 4 C  pz              0.3       0.1       0.3       0.1       0.0       2.5
 4 C  px             16.5       0.5       0.0       0.1       0.3       0.1
 4 C  py              3.1      10.9       3.8       1.3       0.9       0.1
 4 C  dx2y2           0.0       0.0       0.0       0.0       0.2       0.0
 4 C  dxy             0.0       0.1       0.0       0.1       0.0       0.0
 5 C  s               0.1       0.8       0.0       0.9       0.1       0.0
 5 C  pz              0.2       0.0       0.2       0.2       0.1       3.7
 5 C  px              8.5       0.7       1.8      10.8       6.1       0.0
 5 C  py              7.2       4.1       1.3       0.3       1.7       0.1
 5 C  dx2y2           0.0       0.1       0.0       0.5       0.0       0.0
 5 C  dxy             0.0       0.0       0.0       0.1       0.3       0.0
 6 C  s               0.1       1.0       0.0       0.7       0.4       0.0
 6 C  pz              0.1       0.2       0.7       0.1       0.0       9.5
 6 C  px              2.8       6.2       0.8       5.1       1.2       0.0
 6 C  py              8.2       2.0       0.0       3.6      13.6       0.2
 6 C  dxz             0.0       0.0       0.0       0.0       0.0       0.1
 6 C  dx2y2           0.1       0.0       0.0       0.6       0.0       0.0
 6 C  dxy             0.1       0.2       0.0       0.1       0.1       0.0
 7 C  s               0.8       0.2       0.2       2.3       0.2       0.0
 7 C  pz              0.0       0.3       3.7       0.7       0.1      24.6
 7 C  px              1.3       3.2       0.5       1.4       0.5       0.7
 7 C  py              0.1       7.2       3.6       0.9       0.5       0.0
 7 C  dx2y2           0.0       0.0       0.0       0.0       0.3       0.0
 7 C  dxy             0.5       0.5       0.1       0.0       0.0       0.0
 8 O  s               2.0       0.2       0.1       0.3       0.2       0.0
 8 O  pz              0.0       0.0       2.7       0.5       0.0      26.7
 8 O  px              5.9       4.7       0.5       0.8       1.1       0.7
 8 O  py              1.5       4.2       0.8       1.1       0.5       0.0
 9 H  s               0.2       2.1       3.8       0.1       0.6       4.1
10 H  s               0.5       0.4       1.4       1.3       5.4       0.0
11 H  s               0.4       0.3       5.2       1.8       2.8       2.6
12 H  s               0.7       3.4       7.1       0.0       0.2       0.4
13 H  s               2.6       1.3       2.5       3.1       0.6       0.3
14 H  s               0.0       0.1       0.2       8.3       6.0       0.2
15 H  s               7.5       4.2       1.2       0.0       0.5       0.1
16 H  s               2.9       0.0       0.7       9.6       2.6       0.0
17 H  s               1.1       5.3       0.1       7.2       6.7       0.1
18 H  s               1.1       0.8       0.2       0.4       0.0       0.0

                     24        25        26        27        28        29   
                  -0.34064  -0.33051  -0.32216  -0.30884  -0.29286  -0.28924
                   2.00000   2.00000   2.00000   2.00000   2.00000   2.00000
                  --------  --------  --------  --------  --------  --------
 0 C  s               0.0       0.2       0.0       0.0       0.0       0.1
 0 C  pz              0.4       3.8       0.0      22.1       0.2       1.1
 0 C  px              4.3      10.0      13.4       0.2       0.3       0.2
 0 C  py              1.1      10.0       3.2       0.2       0.8      13.7
 0 C  dz2             0.0       0.0       0.1       0.6       0.0       0.1
 0 C  dyz             0.0       0.1       0.0       0.0       0.0       0.2
 0 C  dx2y2           0.1       0.1       0.4       0.0       0.0       0.2
 0 C  dxy             0.0       0.1       0.0       0.0       0.0       0.0
 1 C  s               0.3       0.2       0.0       0.0       0.0       0.0
 1 C  pz              0.1       3.2       0.0      15.4       0.8       2.2
 1 C  px              1.0       3.5       3.0       0.0       0.0       0.1
 1 C  py              0.1      16.0       0.9       0.2       0.9      14.0
 1 C  dz2             0.0       0.0       0.0       0.6       0.0       0.2
 1 C  dyz             0.0       0.1       0.0       0.0       0.0       0.2
 1 C  dx2y2           0.0       0.1       0.4       0.0       0.0       0.1
 1 C  dxy             0.0       0.1       0.0       0.1       0.0       0.3
 2 C  s               0.0       0.0       1.2       0.1       0.0       0.0
 2 C  pz              0.0       0.5       0.2       1.4       2.3       0.3
 2 C  px              0.7       2.8       3.1       0.7       0.0       0.0
 2 C  py              4.2       0.6       0.2       2.7       0.2       5.3
 2 C  dxz             0.0       0.0       0.0       0.1       0.1       0.0
 2 C  dyz             0.0       0.0       0.0       0.0       0.1       0.0
 2 C  dx2y2           0.1       0.0       0.0       0.0       0.0       0.1
 2 C  dxy             0.0       0.1       0.0       0.0       0.0       0.6
 3 C  s               0.1       0.2       0.2       0.0       0.0       0.1
 3 C  pz              0.2       0.1       0.1       0.3      14.7       0.3
 3 C  px             13.7       0.8       0.3       0.1       0.3       0.0
 3 C  py              0.1       3.2       0.0       2.4       0.4       6.1
 3 C  dxz             0.0       0.0       0.0       0.0       0.1       0.0
 3 C  dx2y2           0.2       0.0       0.0       0.0       0.0       0.1
 3 C  dxy             0.0       0.4       0.1       0.2       0.0       0.4
 4 C  pz              0.1       0.0       0.0       0.0      23.0       0.8
 4 C  px             14.3       0.3       0.3       0.0       0.1       0.1
 4 C  py              0.6       9.2       2.8       2.7       0.1       4.0
 4 C  dx2y2           0.3       0.0       0.2       0.0       0.0       0.0
 4 C  dxy             0.1       0.4       0.1       0.2       0.0       0.4
 5 C  s               0.2       0.2       0.1       0.1       0.0       0.0
 5 C  pz              0.0       0.1       0.0       0.2      18.6       1.4
 5 C  px              3.8       1.5       4.1       0.7       0.2       0.5
 5 C  py              0.8       5.9       5.0       1.6       0.3       3.1
 5 C  dx2y2           0.4       0.0       0.2       0.0       0.0       0.0
 5 C  dxy             0.1       0.1       0.1       0.1       0.0       0.1
 6 C  s               1.4       0.0       0.0       0.1       0.0       0.1
 6 C  pz              0.0       0.2       0.3       0.8       5.1       0.9
 6 C  px              0.3       0.2       2.4       0.5       0.1       0.2
 6 C  py              0.0       2.2       6.0       0.8       0.1       2.2
 6 C  dyz             0.0       0.0       0.0       0.0       0.1       0.0
 6 C  dx2y2           0.0       0.1       0.0       0.1       0.0       0.1
 6 C  dxy             0.1       0.0       0.3       0.0       0.0       0.2
 7 C  s               0.3       0.1       0.1       0.0       0.0       0.4
 7 C  pz              0.0       0.7       0.1       1.4       0.8       0.0
 7 C  px              1.2       0.1       1.4       1.0       0.1       1.9
 7 C  py              0.1       0.2       1.2       0.4       0.1       2.6
 7 C  dxz             0.0       0.0       0.0       0.0       0.2       0.0
 7 C  dyz             0.0       0.0       0.0       0.1       0.4       0.0
 7 C  dx2y2           0.3       0.0       0.2       0.0       0.0       0.0
 7 C  dxy             0.2       0.2       0.0       0.2       0.0       0.2
 8 O  s               4.5       0.6       1.7       0.4       0.0       0.0
 8 O  pz              0.2       2.2       1.6       5.1      27.0       0.1
 8 O  px             26.0       0.3      18.6       1.5       0.7       0.9
 8 O  py              0.1       0.3       0.3       0.1       0.1       0.3
 9 H  s               1.0       0.5       0.7      14.9       0.1       1.5
10 H  s               2.8       3.9       9.7       0.5       0.1       0.1
11 H  s               0.6       1.1       4.0       2.1       0.1       9.0
12 H  s               0.1       0.4       0.1      10.7       0.5       2.1
13 H  s               0.6       2.0       2.9       0.5       0.1      11.2
14 H  s               0.9       4.0       0.2       1.9       0.1       3.8
15 H  s               5.3       4.5       2.9       1.5       0.2       2.6
16 H  s               4.2       0.8       2.8       0.5       0.0       0.3
17 H  s               0.2       1.2       1.7       1.1       0.1       2.6
18 H  s               2.0       0.3       0.7       0.4       0.0       0.1

                     30        31        32        33        34        35   
                  -0.28115  -0.21923  -0.19029  -0.02917  -0.01440   0.02350
                   2.00000   2.00000   2.00000   0.00000   0.00000   0.00000
                  --------  --------  --------  --------  --------  --------
 0 C  s               0.0       0.1       0.1       0.3       0.1       0.0
 0 C  pz              0.3       0.1       0.1       0.1       0.1       0.0
 0 C  px              4.8       0.3       0.1       0.1       0.1       0.1
 0 C  py              0.3       0.1       0.1       0.2       0.1       0.0
 0 C  dx2y2           0.3       0.0       0.0       0.0       0.0       0.0
 1 C  s               0.1       0.0       0.0       0.0       0.0       0.6
 1 C  pz              0.4       1.6       0.7       0.1       0.0       0.0
 1 C  px             13.7       0.0       0.0       0.0       0.0       0.0
 1 C  py              1.6       0.0       0.0       0.1       0.0       0.3
 1 C  dz2             0.1       0.1       0.1       0.2       0.0       0.0
 1 C  dxz             0.0       0.2       0.2       0.6       0.2       0.0
 1 C  dx2y2           0.2       0.0       0.0       0.0       0.0       0.0
 2 C  s               0.1       0.0       0.0       0.0       0.0       0.3
 2 C  pz              0.1      15.3      15.1      20.5       5.6       0.0
 2 C  px             11.4       0.2       0.1       0.2       0.1       0.1
 2 C  py              0.4       0.0       0.0       0.1       0.0       0.3
 2 C  dxz             0.0       0.1       0.1       0.1       0.1       0.0
 2 C  dyz             0.0       0.2       0.2       0.5       1.2       0.0
 2 C  dx2y2           0.7       0.0       0.0       0.0       0.0       0.1
 3 C  pz              0.0      28.8       0.6      23.5       7.7       0.0
 3 C  px              5.3       0.3       0.0       0.3       0.1       0.1
 3 C  dxz             0.0       0.0       0.5       0.1       1.2       0.0
 3 C  dyz             0.0       0.1       0.1       0.5       0.0       0.0
 3 C  dx2y2           0.4       0.0       0.0       0.0       0.0       0.0
 4 C  pz              0.0       1.3      22.5       0.1      30.0       0.0
 4 C  px              5.8       0.0       0.2       0.0       0.3       0.2
 4 C  dxz             0.0       0.5       0.0       1.1       0.1       0.0
 4 C  dyz             0.0       0.2       0.0       0.4       0.3       0.0
 4 C  dx2y2           0.2       0.0       0.0       0.0       0.0       0.1
 5 C  pz              0.2      18.0       6.4      21.4      10.2       0.0
 5 C  px              3.4       0.2       0.1       0.2       0.1       0.5
 5 C  py              0.0       0.1       0.0       0.0       0.0       0.3
 5 C  dxz             0.0       0.0       0.0       0.2       0.1       0.0
 5 C  dyz             0.0       0.3       0.5       0.4       1.0       0.0
 5 C  dx2y2           0.6       0.0       0.0       0.0       0.0       0.3
 6 C  s               0.2       0.0       0.0       0.0       0.0       1.9
 6 C  pz              0.0      26.3       8.6      23.0       3.9       0.0
 6 C  px              7.2       0.2       0.1       0.3       0.0       1.4
 6 C  py              0.1       0.1       0.0       0.1       0.0       3.4
 6 C  dxz             0.0       0.1       0.3       0.1       1.3       0.0
 6 C  dyz             0.0       0.1       0.0       0.5       0.1       0.0
 6 C  dx2y2           0.2       0.0       0.0       0.0       0.0       0.2
 7 C  pz              0.1       0.1      15.9       0.3      27.9       0.0
 7 C  px              6.1       0.0       0.2       0.0       0.3       0.7
 7 C  py              0.8       0.0       0.0       0.0       0.1       0.1
 7 C  dxz             0.0       0.5       0.2       1.1       0.0       0.0
 7 C  dyz             0.0       0.1       0.7       0.5       0.0       0.0
 7 C  dx2y2           0.9       0.0       0.0       0.0       0.0       0.5
 8 O  s               1.4       0.0       0.0       0.0       0.0       8.1
 8 O  pz              0.2       0.9      23.7       0.0       5.9       0.0
 8 O  px             12.0       0.1       0.2       0.0       0.1       3.6
 8 O  py              0.1       0.0       0.1       0.0       0.0       6.2
 8 O  dyz             0.0       0.0       0.1       0.0       0.2       0.0
 9 H  s               1.2       0.1       0.1       0.1       0.2       0.0
10 H  s               4.6       0.2       0.0       0.0       0.2       0.1
11 H  s               0.7       0.1       0.0       0.1       0.0       0.0
12 H  s               1.3       2.1       1.4       2.2       0.5       0.3
13 H  s               2.5       0.7       0.4       0.3       0.2       1.2
14 H  s               1.7       0.0       0.0       0.0       0.0       0.1
15 H  s               1.6       0.0       0.0       0.0       0.0       0.4
16 H  s               4.2       0.0       0.0       0.0       0.0       0.6
17 H  s               1.2       0.0       0.0       0.0       0.0      10.8
18 H  s               0.9       0.0       0.0       0.0       0.0      56.3

                     36        37        38        39        40        41   
                   0.04825   0.05614   0.08895   0.09736   0.10364   0.11604
                   0.00000   0.00000   0.00000   0.00000   0.00000   0.00000
                  --------  --------  --------  --------  --------  --------
 0 C  s               6.1      10.5       0.6       4.7       0.8       1.1
 0 C  pz              0.1       0.3       0.5       3.6       2.2       8.2
 0 C  px              0.0       0.9       2.4       0.0       1.8       8.8
 0 C  py              1.6       1.3       2.6       0.2       1.9       0.1
 0 C  dz2             0.0       0.0       0.0       0.3       0.1       0.7
 0 C  dxz             0.0       0.0       0.0       0.0       0.1       0.2
 0 C  dyz             0.0       0.1       0.0       0.4       0.0       0.0
 0 C  dx2y2           0.0       0.0       0.2       0.0       0.4       0.5
 0 C  dxy             0.0       0.0       0.0       0.0       0.1       0.1
 1 C  s               0.1       7.1       1.1       4.2       3.0       0.0
 1 C  pz              0.5       1.3       0.0       8.9       0.5       0.5
 1 C  px              0.9       0.1       0.3       0.5       0.2       1.6
 1 C  py              0.1       1.2       1.2       0.9       0.8       0.5
 1 C  dz2             0.1       0.0       0.0       0.7       0.2       0.0
 1 C  dxz             0.0       0.0       0.0       0.0       0.0       0.1
 1 C  dyz             0.1       0.1       0.1       0.1       0.0       0.2
 1 C  dx2y2           0.0       0.0       0.1       0.0       0.1       0.4
 1 C  dxy             0.0       0.1       0.2       0.1       0.0       0.4
 2 C  s               0.2       0.2       0.2       0.1       0.2       0.5
 2 C  pz              0.0       0.1       0.1       2.0       0.3       0.7
 2 C  px              0.3       0.0       0.1       0.1       0.2       1.0
 2 C  py              0.0       0.0       1.1       0.0       0.2       0.2
 2 C  dz2             0.0       0.2       0.0       0.0       0.0       0.1
 2 C  dxz             0.0       0.1       0.0       0.4       0.0       0.2
 2 C  dx2y2           0.7       0.2       0.1       0.0       0.3       0.2
 2 C  dxy             0.0       0.0       0.7       0.1       0.0       0.2
 3 C  s               3.5       0.4       0.7       0.2       0.4       1.1
 3 C  pz              0.0       0.0       0.0       1.2       0.1       1.9
 3 C  px              1.0       0.3       0.7       0.0       0.6       0.3
 3 C  py              2.4       0.1       4.6       0.2       0.1       0.9
 3 C  dz2             0.1       0.0       0.0       0.0       0.1       0.2
 3 C  dx2y2           0.1       0.2       0.2       0.0       0.0       0.0
 3 C  dxy             0.4       0.1       0.1       0.0       0.2       0.0
 4 C  s               1.9       1.1       1.8       0.0       2.7       0.0
 4 C  pz              0.0       0.3       0.1       2.3       0.4       1.8
 4 C  px              1.0       0.1       0.6       0.0       1.3       0.0
 4 C  py              2.2       0.6       1.7       0.1       4.6       0.0
 4 C  dx2y2           0.2       0.0       0.0       0.0       0.0       0.0
 4 C  dxy             0.7       0.1       0.1       0.0       0.0       0.0
 5 C  s               2.8       1.3       1.4       0.2       0.4       0.6
 5 C  pz              0.2       0.4       0.1       2.8       0.2       2.0
 5 C  px              2.6       2.1       1.3       0.2       1.8       1.3
 5 C  py              0.1       0.1       0.2       0.0       0.1       0.0
 5 C  dx2y2           0.7       0.3       0.0       0.0       0.0       0.0
 6 C  s               1.3       0.7       1.4       0.0       1.7       0.2
 6 C  pz              0.1       0.4       0.0       2.8       0.4       1.6
 6 C  px              0.4       0.5       0.9       0.0       1.1       0.1
 6 C  py              0.7       1.4       3.1       0.0       2.4       0.1
 6 C  dyz             0.0       0.0       0.0       0.1       0.0       0.1
 6 C  dx2y2           0.1       0.1       0.0       0.0       0.1       0.1
 6 C  dxy             0.5       0.4       0.6       0.0       0.1       0.0
 7 C  s               0.6       0.7       0.2       0.2       0.5       0.2
 7 C  pz              0.0       0.1       0.0       2.2       0.2       2.0
 7 C  px              0.4       0.1       0.3       0.0       0.9       0.1
 7 C  py              0.8       0.9       1.4       0.0       0.9       0.3
 7 C  dz2             0.1       0.2       0.0       0.0       0.0       0.0
 7 C  dx2y2           0.2       0.0       0.1       0.0       0.1       0.2
 7 C  dxy             0.5       0.4       0.5       0.0       0.6       0.1
 8 O  s               1.2       0.8       0.8       0.0       0.9       0.0
 8 O  pz              0.0       0.0       0.0       0.4       0.1       0.1
 8 O  px              0.6       0.1       1.4       0.0       0.1       0.2
 8 O  py              0.1       0.3       0.2       0.1       0.6       0.1
 9 H  s               1.7       6.3       0.6      16.6       0.5      32.1
10 H  s               3.5       9.6       8.3       2.6       1.4      13.3
11 H  s               9.8       7.6       4.7       0.3      12.7       0.2
12 H  s               1.0      10.9       0.7      36.2       0.5       0.4
13 H  s               0.1       7.4       6.1       0.9       8.3       3.3
14 H  s              14.4       1.2      12.0       0.9       1.3       3.1
15 H  s              10.6       3.8       8.9       0.2      20.9       0.0
16 H  s              12.2       7.4       6.0       1.1       4.9       4.8
[...]
 2 C  s               0.3       0.0       0.7       0.0       0.1       0.2
 2 C  px              2.2       0.3       0.1       0.0       0.0       0.1
 2 C  py              0.0       0.3       0.5       0.0       0.7       1.1
 2 C  dz2             0.6       0.2       0.5       0.0       0.0       0.1
 2 C  dxz             0.0       0.6       0.1       1.7       0.0       0.1
 2 C  dyz             0.6       0.2       0.0       0.0       0.0       0.1
 2 C  dx2y2          15.6       5.5       5.8       0.1       0.3       0.0
 2 C  dxy             4.9      12.6       5.3       0.2       3.5      11.4
 3 C  s               0.1       1.7       0.1       0.0       0.0       0.0
 3 C  px              2.2       0.4       2.1       0.1       0.3       0.7
 3 C  py              0.5       0.5       0.3       0.0       0.2       0.4
 3 C  dz2             0.1       0.5       0.0       0.0       0.0       0.0
 3 C  dxz             0.2       0.0       0.1       0.0       0.0       0.0
 3 C  dx2y2           0.9       1.2      16.4       0.5       2.2       2.4
 3 C  dxy             2.9       0.8       0.9       0.0       2.2       0.1
 4 C  s               2.0       0.6       0.1       0.0       0.0       0.2
 4 C  px              0.2       0.7       3.1       0.1       0.6       0.3
 4 C  py              0.5       1.3       0.8       0.0       0.3       0.0
 4 C  dz2             1.5       0.0       0.0       0.0       0.1       0.1
 4 C  dxz             0.0       0.3       0.1       0.0       0.0       0.0
 4 C  dx2y2           4.2      13.0       8.0       0.2       1.1       2.2
 4 C  dxy             1.5       2.6       1.6       0.0       2.6       0.3
 5 C  s               0.0       0.0       0.8       0.0       0.1       0.5
 5 C  px              0.1       0.0       0.2       0.0       0.1       0.1
 5 C  py              0.6       4.9       0.7       0.0       0.6       0.7
 5 C  dz2             0.3       0.1       0.3       0.0       0.1       0.2
 5 C  dyz             0.0       0.4       0.0       0.0       0.0       0.1
 5 C  dx2y2           9.9       1.1       2.1       0.0       1.5       1.7
 5 C  dxy             1.3      22.4       4.3       0.1       1.4       2.0
 6 C  s               0.2       2.4       0.2       0.0       0.1       0.2
 6 C  px              0.6       0.5       0.1       0.0       0.1       1.8
 6 C  py              0.1       1.9       0.1       0.0       0.1       0.2
 6 C  dz2             0.3       0.9       0.1       0.0       0.0       0.0
 6 C  dxz             0.3       0.0       0.1       0.4       0.0       0.0
 6 C  dyz             0.0       0.1       0.0       0.5       0.0       0.1
 6 C  dx2y2           9.9       1.4       1.7       0.1       0.9       1.5
 6 C  dxy             1.0       6.1       1.5       0.0       0.0       6.7
 7 C  s               0.3       0.9       0.0       0.0       0.2       0.3
 7 C  pz              0.0       0.0       0.0       0.3       0.0       0.0
 7 C  px              1.7       0.1       1.4       0.1       0.3       0.8
 7 C  py              0.1       0.9       0.6       0.0       0.1       0.1
 7 C  dz2             0.1       0.0       0.6       0.4       1.4       0.2
 7 C  dxz             0.0       0.0       0.2       5.1       0.0       0.3
 7 C  dyz             0.2       0.0       0.3      11.9       0.0       0.0
 7 C  dx2y2           0.0       0.9       1.3       0.1       0.1      19.5
 7 C  dxy             3.3       0.1       0.5       0.4       0.1       4.9
 8 O  s               0.2       0.0       0.3       0.0       2.4       0.0
 8 O  pz              0.0       0.0       0.1       0.9       0.0       0.0
 8 O  px              0.1       0.0       0.7       0.1       1.5       0.3
 8 O  py              0.1       0.0       0.4       0.0       0.7       0.0
 8 O  dz2             0.6       0.1      11.2       4.3      43.6       0.2
 8 O  dxz             0.2       0.0       3.4      21.9       1.0       0.6
 8 O  dyz             0.1       0.0       1.4      48.1       0.0       0.0
 8 O  dx2y2           0.4       0.0      12.8       0.6       1.1      20.7
 8 O  dxy             1.4       0.1       0.9       0.8      19.9      13.4
13 H  s               0.0       0.1       0.0       0.0       0.0       0.0
14 H  s               0.0       0.1       0.2       0.0       0.0       0.0
15 H  s               0.1       0.0       0.0       0.0       0.0       0.1
16 H  s               0.4       0.1       0.1       0.0       0.1       0.1
17 H  s               0.0       0.1       0.1       0.0       0.0       0.1
18 H  s               0.0       0.0       0.7       0.0       6.5       0.5

                    144       145   
                   3.18905   3.45731
                   0.00000   0.00000
                  --------  --------
 1 C  px              0.1       0.2
 1 C  dx2y2           0.3       0.6
 2 C  s               0.4       0.3
 2 C  py              0.6       0.2
 2 C  dz2             0.4       0.1
 2 C  dx2y2           5.8       9.4
 2 C  dxy             1.1       0.1
 3 C  s               1.4       0.3
 3 C  py              0.2       0.0
 3 C  dz2             0.8       0.1
 3 C  dxz             0.2       0.1
 3 C  dx2y2           1.8       2.3
 3 C  dxy             7.6       3.2
 4 C  s               0.8       0.6
 4 C  dz2             0.5       0.3
 4 C  dx2y2           1.4       0.9
 4 C  dxy             8.6       3.5
 5 C  s               0.8       0.4
 5 C  py              0.1       0.0
 5 C  dz2             0.6       0.2
 5 C  dx2y2           6.8       5.3
 6 C  s               0.8       0.5
 6 C  dz2             0.7       0.1
 6 C  dxz             0.1       0.1
 6 C  dx2y2           3.0       2.3
 6 C  dxy             1.0       5.3
 7 C  s               3.8       0.4
 7 C  px              0.2       0.7
 7 C  py              1.5       1.7
 7 C  dz2             2.7       0.2
 7 C  dxz             0.2       0.0
 7 C  dyz             0.0       0.3
 7 C  dx2y2           2.7       3.6
 7 C  dxy             0.2      15.9
 8 O  s               3.1       2.0
 8 O  px              0.2       0.4
 8 O  py              2.1       2.4
 8 O  dz2            10.4       4.3
 8 O  dxz             0.2       0.2
 8 O  dyz             0.7       0.7
 8 O  dx2y2          11.6       3.2
 8 O  dxy            12.4      25.4
14 H  s               0.3       0.2
15 H  s               0.4       0.2
16 H  s               0.2       0.2
17 H  s               0.1       0.3
18 H  s               0.1       0.4


                      *****************************
                      * MAYER POPULATION ANALYSIS *
                      *****************************

  NA   - Mulliken gross atomic population
  ZA   - Total nuclear charge
  QA   - Mulliken gross atomic charge
  VA   - Mayer's total valence
  BVA  - Mayer's bonded valence
  FA   - Mayer's free valence

  ATOM       NA         ZA         QA         VA         BVA        FA
  0 C      6.2895     6.0000    -0.2895     4.0506     4.0506    -0.0000
  1 C      6.1221     6.0000    -0.1221     4.0401     4.0401    -0.0000
  2 C      6.0057     6.0000    -0.0057     4.0019     4.0019     0.0000
  3 C      6.1525     6.0000    -0.1525     3.8595     3.8595    -0.0000
  4 C      6.0402     6.0000    -0.0402     3.7808     3.7808    -0.0000
  5 C      6.0530     6.0000    -0.0530     3.8281     3.8281    -0.0000
  6 C      6.1620     6.0000    -0.1620     3.7746     3.7746     0.0000
  7 C      5.8235     6.0000     0.1765     4.0357     4.0357     0.0000
  8 O      8.3379     8.0000    -0.3379     2.1667     2.1667     0.0000
  9 H      0.8922     1.0000     0.1078     0.9546     0.9546     0.0000
 10 H      0.8978     1.0000     0.1022     0.9505     0.9505    -0.0000
 11 H      0.8905     1.0000     0.1095     0.9488     0.9488    -0.0000
 12 H      0.8976     1.0000     0.1024     0.9421     0.9421     0.0000
 13 H      0.9012     1.0000     0.0988     0.9652     0.9652     0.0000
 14 H      0.9640     1.0000     0.0360     0.9657     0.9657    -0.0000
 15 H      0.9562     1.0000     0.0438     0.9498     0.9498    -0.0000
 16 H      0.9509     1.0000     0.0491     0.9495     0.9495    -0.0000
 17 H      0.9786     1.0000     0.0214     0.9636     0.9636    -0.0000
 18 H      0.6846     1.0000     0.3154     0.8789     0.8789    -0.0000

  Mayer bond orders larger than 0.100000
B(  0-C ,  1-C ) :   1.1646 B(  0-C ,  9-H ) :   0.9580 B(  0-C , 10-H ) :   0.9502 
B(  0-C , 11-H ) :   0.9413 B(  1-C ,  2-C ) :   1.0789 B(  1-C , 12-H ) :   0.8988 
B(  1-C , 13-H ) :   0.9044 B(  2-C ,  3-C ) :   1.4124 B(  2-C ,  7-C ) :   1.3853 
B(  3-C ,  4-C ) :   1.3425 B(  3-C , 14-H ) :   0.9620 B(  4-C ,  5-C ) :   1.3771 
B(  4-C , 15-H ) :   0.9659 B(  5-C ,  6-C ) :   1.3597 B(  5-C , 16-H ) :   0.9634 
B(  6-C ,  7-C ) :   1.3328 B(  6-C , 17-H ) :   0.9540 B(  7-C ,  8-O ) :   1.1932 
B(  8-O , 18-H ) :   0.8417 

-------
TIMINGS
-------

Total SCF time: 0 days 0 hours 0 min 5 sec 

Total time                  ....       5.176 sec
Sum of individual times     ....       5.147 sec  ( 99.4%)

SCF preparation             ....       0.130 sec  (  2.5%)
Fock matrix formation       ....       3.308 sec  ( 63.9%)
  Startup                   ....       0.007 sec  (  0.2% of F)
  Split-RI-J                ....       1.521 sec  ( 46.0% of F)
  XC integration            ....       1.706 sec  ( 51.6% of F)
    XC Preparation          ....       0.000 sec  (  0.0% of XC)
    Basis function eval.    ....       0.707 sec  ( 41.4% of XC)
    Density eval.           ....       0.355 sec  ( 20.8% of XC)
    XC-Functional eval.     ....       0.123 sec  (  7.2% of XC)
    XC-Potential eval.      ....       0.391 sec  ( 22.9% of XC)
Diagonalization             ....       0.000 sec  (  0.0%)
Density matrix formation    ....       0.231 sec  (  4.5%)
Total Energy calculation    ....       0.002 sec  (  0.0%)
Population analysis         ....       0.949 sec  ( 18.3%)
Orbital Transformation      ....       0.012 sec  (  0.2%)
Orbital Orthonormalization  ....       0.000 sec  (  0.0%)
DIIS solution               ....       0.498 sec  (  9.6%)
  MO trafo                  ....       0.000 sec  (  0.0 % of DIIS)
  Orb grad                  ....       0.000 sec  (  0.0 % of DIIS)
  Energy W gradient         ....       0.000 sec  (  0.0 % of DIIS)
  DIIS error                ....       0.003 sec  (  0.5 % of DIIS)
  DIIS work                 ....       0.489 sec  ( 98.1 % of DIIS)
  Form Q                    ....       0.000 sec  (  0.0 % of DIIS)
  Form QpQm                 ....       0.000 sec  (  0.0 % of DIIS)
  Exp/Cayley                ....       0.000 sec  (  0.0 % of DIIS)
  Orb update                ....       0.000 sec  (  0.0 % of DIIS)
  Wake-sleep                ....       0.001 sec  (  0.2 % of DIIS)
SOSCF solution              ....       0.016 sec  (  0.3%)
  MO trafo                  ....       0.010 sec  ( 61.8 % of SOSCF)
  Orb grad                  ....       0.000 sec  (  0.9 % of SOSCF)
  Rot update                ....       0.002 sec  (  9.7 % of SOSCF)
  Step                      ....       0.004 sec  ( 27.4 % of SOSCF)
Finished LeanSCF after   6.1 sec

Maximum memory used throughout the entire LEANSCF-calculation: 14.1 MB


-------------------------------------------------------------------------------
                          DFT DISPERSION CORRECTION                            
                                                                               
                                DFTD4 V3.4.0                                   
-------------------------------------------------------------------------------
The PBE functional is recognized
Active option DFTDOPT                   ...         5   

-------------------------   ----------------
Dispersion correction           -0.018934738
-------------------------   ----------------

------------------   -----------------
gCP correction             0.079047949
------------------   -----------------

-------------------------   --------------------
FINAL SINGLE POINT ENERGY      -385.234292101474
-------------------------   --------------------


------------------------------------------------------------------------------
                              ORCA PROPERTY CALCULATIONS
------------------------------------------------------------------------------

GBWName                                 ... sp.gbw
Number of atoms                         ...     19
Number of basis functions               ...    146
Max core memory                         ...   1024 MB

Electric properties:
Dipole moment                           ... YES
Quadrupole moment                       ...  NO
Static polarizability (Dipole/Dipole)   ...  NO
Static polarizability (Dipole/Quad.)    ...  NO
Static polarizability (Quad./Quad.)     ...  NO
Static polarizability (Velocity)        ...  NO

Atomic electric properties:
Dipole moment                           ...  NO
Quadrupole moment                       ...  NO
Static polarizability                   ...  NO

Choice of electric origin               ... Center of mass
Position of electric origin             ...    -0.000005    -0.000020    -0.000003

General magnetic properties:
Magnetizability                         ...  NO

EPR properties:
g-Tensor (aka g-matrix)                 ...  NO
Zero-Field splitting spin-orbit         ...  NO
Zero-field splitting spin-spin          ...  NO
Hyperfine couplings                     ...  NO (   0 nuclei)
Quadrupole couplings                    ...  NO (   0 nuclei)
Contact density                         ...  NO (   0 nuclei)

NMR properties:
Chemical shifts                         ...  NO (   0 nuclei)
Spin-rotation constants                 ...  NO (   0 nuclei)
Spin-spin couplings                     ...  NO (   0 nuclei,    0 pairs)

Choice of magnetic origin               ... GIAO
Position of magnetic origin             ...     0.000000     0.000000     0.000000

Properties with geometric perturbations:
SCF Hessian                             ...  NO
IR spectrum                             ...  NO
VCD spectrum                            ...  NO
X-ray spectroscopy properties:
SCF XES/XAS/RIXS spectra                ...  NO


-------------
DIPOLE MOMENT
-------------

Method             : SCF
Type of density    : Electron Density
Multiplicity       :   1
Irrep              :   0
Energy             :  -385.2944053130106568 Eh
Relativity type    : 
Basis              : AO
                                X                 Y                 Z
Electronic contribution:      5.205470815       4.318164952       0.907940645
Nuclear contribution   :     -4.990306749      -3.905218618      -0.901888734
                        -----------------------------------------
Total Dipole Moment    :      0.215164066       0.412946333       0.006051911
                        -----------------------------------------
Magnitude (a.u.)       :      0.465678940
Magnitude (Debye)      :      1.183661799



--------------------
Rotational spectrum 
--------------------
 
Rotational constants in cm-1:             0.083455             0.049495             0.031896 
Rotational constants in MHz :          2501.929729          1483.819304           956.220053 

Dipole components along the rotational axes: 
x,y,z [a.u.] :     0.310367     0.344926    -0.039439 
x,y,z [Debye]:     0.788889     0.876732    -0.100245 

 

Dipole moment calculation done in   0.3 sec 

Maximum memory used throughout the entire PROP-calculation: 9.1 MB

--------------------------------
SUGGESTED CITATIONS FOR THIS RUN
--------------------------------

Below you find a list of papers that are relevant to this ORCA run
We neither can nor want to force you to cite these papers, but we appreciate if you do
You receive ORCA, which is the product of decades of hard work by many enthusiastic individuals, for free
The only thing we kindly ask in return is that you cite our papers,
We deeply appreciate it, if you show your appreciation for ORCA by not just citing the generic ORCA reference.

Please note that relegating all ORCA citations to the supporting information does *not* help us.
SI sections are not indexed - citations you put there will not count into any citation statistics
But we need these citations in order to attract the funding resources that allow us to do what we are doing

Therefore, if you are a happy ORCA user, please consider citing a few of the papers listed below in the main body of your paper

In addition to the list printed below, the program has created the file sp.bibtex that contains the list in bibtex format
You can import this file easily into all common literature databanks and citation aid programs


List of essential papers. We consider these as the minimum necessary citations

  1. Neese,F.
     Software update: the ORCA program system, version 5.0
     WIRES Comput. Molec. Sci., 2022 12(1)e1606
     doi.org/10.1002/wcms.1606

List of papers to cite with high priority. The work reported in these papers was absolutely
necessary for this run to complete.
Our perspective: the developers of density functionals and basis sets usually get cited in chemistry papers
Good! But without the algorithms to do something with them, the functionals or basis sets would not do anything.
Hence, in our opinion, the algorithm design and method developments papers are equally worthy of getting cited

  1. Neese,F.
     An improvement of the resolution of the identity approximation for the formation of the Coulomb matrix
     J. Comp. Chem., 2003 24(14)1740-1747
     doi.org/10.1002/jcc.10318
  2. Neese,F.
     The SHARK Integral Generation and Digestion System
     J. Comp. Chem., 2022  1-16
     doi.org/10.1002/jcc.26942
  3. Caldeweyher,E.; Bannwarth,C.; Grimme,S.
     Extension of the D3 dispersion coefficient model
     J. Chem. Phys., 2017 147 034112
     doi.org/10.1063/1.4993215
  4. Caldeweyher,E.; Ehlert,S.; Hansen,A.; Neugebauer,H.; Spicher,S.; Bannwarth,C.; Grimme,S.
     A generally applicable atomic-charge dependent London dispersion correction
     J. Chem. Phys., 2019 150 154122
     doi.org/10.1063/1.5090222
  5. Caldeweyher,E.; Mewes,J.; Ehlert,S.; Grimme,S.
     Extension and evaluation of the D4 London-dispersion model for periodic systems
     Phys. Chem. Chem. Phys., 2020 22(16)8499-8512
     doi.org/10.1039/D0CP00502A
  6. Wittmann,L.; Gordiy,I.; Friede,M.; Helmich-Paris,B.; Grimme,S.; Hansen,A.; Bursch,M.
     Extension of the D3 and D4 London Dispersion Corrections to the full Actinides Series
     Phys. Chem. Chem. Phys., 2024 26(32)21379-21394
     doi.org/https://doi.org/10.1039/D4CP01514B 

List of suggested additional citations. These are papers that are important in the 'surrounding' of 
of this run, or papers that preceded the highly important papers. If you like your results we are grateful for a citation.

  1. Neese,F.
     The ORCA program system
     WIRES Comput. Molec. Sci., 2012 2(1)73-78
     doi.org/10.1002/wcms.81
  2. Neese,F.
     Software update: the ORCA program system, version 4.0
     WIRES Comput. Molec. Sci., 2018 8(1)1-6
     doi.org/10.1002/wcms.1327
  3. Neese,F.; Wennmohs,F.; Becker,U.; Riplinger,C.
     The ORCA quantum chemistry program package
     J. Chem. Phys., 2020 152 Art. No. L224108
     doi.org/10.1063/5.0004608

List of optional additional citations

  1. Neese,F.
     Approximate second-order SCF convergence for spin unrestricted wavefunctions
     Chem. Phys. Lett., 2000 325(1-3)93-98
     doi.org/10.1016/s0009-2614(00)00662-x

Timings for individual modules:

Sum of individual times          ...        7.359 sec (=   0.123 min)
Startup calculation              ...        0.434 sec (=   0.007 min)   5.9 %
SCF iterations                   ...        6.547 sec (=   0.109 min)  89.0 %
Property calculations            ...        0.378 sec (=   0.006 min)   5.1 %
                             ****ORCA TERMINATED NORMALLY****
TOTAL RUN TIME: 0 days 0 hours 0 minutes 8 seconds 564 msec
