
                                 *****************
                                 * O   R   C   A *
                                 *****************

                                            #,                                       
                                            ###                                      
                                            ####                                     
                                            #####                                    
                                            ######                                   
                                           ########,                                 
                                     ,,################,,,,,                         
                               ,,#################################,,                 
                          ,,##########################################,,             
                       ,#########################################, ''#####,          
                    ,#############################################,,   '####,        
                  ,##################################################,,,,####,       
                ,###########''''           ''''###############################       
              ,#####''   ,,,,##########,,,,          '''####'''          '####       
            ,##' ,,,,###########################,,,                        '##       
           ' ,,###''''                  '''############,,,                           
         ,,##''                                '''############,,,,        ,,,,,,###''
      ,#''                                            '''#######################'''  
     '                                                          ''''####''''         
             ,#######,   #######,   ,#######,      ##                                
            ,#'     '#,  ##    ##  ,#'     '#,    #''#        ,####,   ,####,        
            ##       ##  ##   ,#'  ##            #'  '#       #'       #'  '#        
            ##       ##  #######   ##           ,######,      #####,   #    #        
            '#,     ,#'  ##    ##  '#,     ,#' ,#      #,     #,   #   #,  ,#        
             '#######'   ##     ##  '#######'  #'      '#     '####' # '####'        



                #########################################################
                #                        -***-                          #
                #          Department of theory and spectroscopy        #
                #                                                       #
                #                      Frank Neese                      #
                #                                                       #
                #     Directorship, Architecture, Infrastructure        #
                #                    SHARK, DRIVERS                     #
                #        Core code/Algorithms in most modules           #
                #                                                       #
                #        Max Planck Institute fuer Kohlenforschung      #
                #                Kaiser Wilhelm Platz 1                 #
                #                 D-45470 Muelheim/Ruhr                 #
                #                      Germany                          #
                #                                                       #
                #                  All rights reserved                  #
                #                        -***-                          #
                #########################################################


                         Program Version 6.0.1  -  RELEASE   -


 With contributions from (in alphabetic order):
[Max-Planck-Institut fuer Kohlenforschung]                               
  Daniel Aravena         : Magnetic Suceptibility                        
  Michael Atanasov       : Ab Initio Ligand Field Theory (pilot matlab implementation)
  Alexander A. Auer      : GIAO ZORA, VPT2 properties, NMR spectrum      
  Ute Becker             : All parallelization in ORCA, NUMFREQ, NUMCALC 
  Giovanni Bistoni       : ED, misc. LED, open-shell LED, HFLD           
  Martin Brehm           : Molecular dynamics                            
  Dmytro Bykov           : pre 5.0 version of the SCF Hessian            
  Marcos Casanova-Páez   : Triplet and SCS-CIS(D). UHF-(DLPNO)-IP/EA/STEOM-CCSD. UHF-CVS-IP/STEOM-CCSD   
  Vijay G. Chilkuri      : MRCI spin determinant printing, contributions to CSF-ICE 
  Pauline Colinet        : FMM embedding                                 
  Dipayan Datta          : RHF DLPNO-CCSD density                        
  Achintya Kumar Dutta   : EOM-CC, STEOM-CC                              
  Nicolas Foglia         : Exact transition moments, OPA infrastructure, MCD improvements    
  Dmitry Ganyushin       : Spin-Orbit,Spin-Spin,Magnetic field MRCI      
  Miquel Garcia-Rates    : C-PCM and meta-GGA Hessian, CCSD/C-PCM, Gaussian charge scheme 
  Tiago L. C. Gouveia    : GS-ROHF, GS-ROCIS                             
  Yang Guo               : DLPNO-NEVPT2, F12-NEVPT2, CIM, IAO-localization        
  Andreas Hansen         : Spin unrestricted coupled pair/coupled cluster methods 
  Ingolf Harden          : AUTO-CI MPn and infrastructure                
  Benjamin Helmich-Paris : MC-RPA, TRAH-(SCF,CASSCF), AVAS, COSX integrals, SCF dyn. polar. 
  Lee Huntington         : MR-EOM, pCC                                   
  Robert Izsak           : Overlap fitted RIJCOSX, COSX-SCS-MP3, EOM     
  Riya Kayal             : Wick's Theorem for AUTO-CI, AUTO-CI UHF-CCSDT 
  Emily Kempfer          : AUTO-CI, RHF CISDT and CCSDT                  
  Christian Kollmar      : KDIIS, OOCD, Brueckner-CCSD(T), CCSD density, CASPT2, CASPT2-K, improved NEVPT2 
  Axel Koslowski         : Symmetry handling                             
  Simone Kossmann        : meta-GGA functionals, TD-DFT gradient, OOMP2, (MP2 Hessian; deprecated post 5.0) 
  Lucas Lang             : DCDCAS                                        
  Marvin Lechner         : AUTO-CI (C++ implementation), FIC-MRCC        
  Spencer Leger          : CASSCF response                               
  Dagmar Lenk            : GEPOL surface, SMD, ORCA-2-JSON               
  Dimitrios Liakos       : Extrapolation schemes; Compound Job, initial MDCI parallelization 
  Dimitrios Manganas     : Further ROCIS development; embedding schemes. LFT, Crystal Embedding 
  Dimitrios Pantazis     : SARC Basis sets                               
  Anastasios Papadopoulos: AUTO-CI, single reference methods and gradients 
  Taras Petrenko         : pre 6.0 DFT Hessian and TD-DFT gradient, (ASA, deprecated), ECA, 1-Electron XAS/XES, NRVS 
  Peter Pinski           : DLPNO-MP2, DLPNO-MP2 Gradient                 
  Christoph Reimann      : Effective Core Potentials                     
  Marius Retegan         : Local ZFS, SOC                                
  Christoph Riplinger    : Optimizer, TS searches, QM/MM, DLPNO-CCSD(T), (RO)-DLPNO pert. Triples 
  Michael Roemelt        : Original ROCIS implementation                 
  Masaaki Saitow         : Open-shell DLPNO-CCSD energy and density      
  Barbara Sandhoefer     : DKH picture change effects                    
  Kantharuban Sivalingam : CASSCF convergence/infrastructure, NEVPT2 and variants, FIC-MRCI 
  Bernardo de Souza      : ESD, SOC TD-DFT                               
  Georgi L. Stoychev     : AutoAux, RI-MP2 NMR, DLPNO-MP2 response, X2C  
  Van Anh Tran           : RI-MP2 g-tensors                              
  Willem Van den Heuvel  : Paramagnetic NMR                              
  Zikuan Wang            : NOTCH, Electric field optimization            
  Frank Wennmohs         : Technical directorship and infrastructure     
  Hang Xu                : AUTO-CI-Response properties                   
                                                                         
[FACCTs GmbH]                                                            
  Markus Bursch, Miquel Garcia-Rates, Christoph Riplinger, Bernardo de Souza, Georgi L. Stoychev 
                                                                 
  APM, Basis sets (HGBS, AHGBS, def-TZVP (Ac-Lr), def2-XVPD (La-Lu)), CI-OPT, improved COSX, DLPNO-Multilevel,           
  DOCKER, DRACO, updates on ESD, GOAT, IRC, LR-CPCM, MBIS, meta-GGA TD-DFT gradient, ML-optimized integration grids, 
  MM, NACMEs, nearIR, NEB, NEB-TS, NL-DFT gradient (VV10), 2- and 3-layer-ONIOM, interface openCOSMO-RS, QMMM,   
  Crystal-QMMM, SF, symmetry and pop. for TD-DFT, r2SCAN hybrids, SOLVATOR                                   
                                                                         
[Other institutions]                                                     
  V. Asgeirsson          : NEB                                           
  Christoph Bannwarth    : sTDA-DFT, sTD-DFT, PBEh-3c, B97-3c, D3        
  Sebastian Ehlert       : rSCAN, r2SCAN, r2SCAN-3c, D4, dhf basis sets  
  Marvin Friede          : D4 for Fr, Ra, Ac-Lr                          
  Lars Goerigk           : TD-DFT with DH, B97 family of functionals     
  Stefan Grimme          : VdW corrections, initial TS optimization, DFT functionals, gCP, sTDA/sTD-DF 
  Waldemar Hujo          : DFT-NL                                        
  H. Jonsson             : NEB                                           
  Holger Kruse           : gCP                                           
  Marcel Mueller         : wB97X-3c, vDZP basis set                      
  Hagen Neugebauer       : wr2SCAN                                       
  Tobias Risthaus        : range-separated hybrid DFT                    
  Lukas Wittmann         : regularized MP2, r2SCAN double-hybrids, wr2SCAN        
                                                                         
We gratefully acknowledge several colleagues who have allowed us to      
interface, adapt or use parts of their codes:                            
  Ed Valeev, F. Pavosevic, A. Kumar             : LibInt (2-el integral package), F12 methods 
  Garnet Chan, S. Sharma, J. Yang, R. Olivares  : DMRG                   
  Ulf Ekstrom                                   : XCFun DFT Library      
  Mihaly Kallay                                 : mrcc  (arbitrary order and MRCC methods)
  Frank Weinhold                                : gennbo (NPA and NBO analysis)           
  Simon Mueller                                 : openCOSMO-RS                            
  Christopher J. Cramer and Donald G. Truhlar   : smd solvation model                     
  S Lehtola, MJT Oliveira, MAL Marques          : LibXC Library                           
  Liviu Ungur et al                             : ANISO software                          


 Your calculation uses the libint2 library for the computation of 2-el integrals
 For citations please refer to: http://libint.valeyev.net

 Your ORCA version has been built with support for libXC version: 6.2.2
 For citations please refer to: https://libxc.gitlab.io

 This ORCA versions uses:
   CBLAS   interface :  Fast vector & matrix operations
   LAPACKE interface :  Fast linear algebra routines
   SCALAPACK package :  Parallel linear algebra routines
   Shared memory     :  Shared parallel matrices
   BLAS/LAPACK       :  OpenBLAS 0.3.27  USE64BITINT DYNAMIC_ARCH NO_AFFINITY Zen SINGLE_THREADED
        Core in use  :  Zen
   Copyright (c) 2011-2014, The OpenBLAS Project


Your calculation utilizes the geometrical counterpoise correction gCP
Please cite in your paper:
H.Kruse, S. Grimme J.Chem.Phys., 136, (2012), 154101 
   

Your calculation utilizes the atom-pairwise dispersion correction
based on EEQ partial charges (D4)


================================================================================

----- Orbital basis set information -----
Your calculation utilizes the basis: def2-mTZVPP
   Stefan Grimme, Andreas Hansen, Sebastian Ehlert, and Jan-Michael Mewes 
   J. Chem. Phys. 154, 064103 (2021). DOI: 10.1063/5.0040021

----- AuxJ basis set information -----
Your calculation utilizes the auxiliary basis: def2/J
   F. Weigend, Phys. Chem. Chem. Phys. 8, 1057 (2006).

================================================================================
                                        WARNINGS
                       Please study these warnings very carefully!
================================================================================



WARNING: SCAN, rSCAN, or r2SCAN functional requested.
  ===> : libXC variant has now been activated.



================================================================================
                                       INPUT FILE
================================================================================
NAME = sp.inp
|  1> ! r2scan-3c def2/J RI DEFGRID2 scfconv6 printgap
|  2> %output
|  3>     printlevel normal
|  4> end
|  5> * xyz 0 1
|  6> C 0.1685115268 0.6547882063 -0.5104095124
|  7> H 0.2042801462 0.7403766437 -1.6030367319
|  8> C 1.3332594607 -0.212584313 -0.0143978362
|  9> F 1.3309614182 -0.373099722 1.3026710961
| 10> F 2.5036619711 0.3327315339 -0.3565773921
| 11> F 1.2810099797 -1.4214713864 -0.577477883
| 12> F 0.2517156051 1.8821738576 0.031389707
| 13> Br -1.5044892376 -0.1757510941 0.0040010108
| 14> *
| 15> 
| 16>                          ****END OF INPUT****
================================================================================

                       ****************************
                       * Single Point Calculation *
                       ****************************

---------------------------------
CARTESIAN COORDINATES (ANGSTROEM)
---------------------------------
  C      0.168512    0.654788   -0.510410
  H      0.204280    0.740377   -1.603037
  C      1.333259   -0.212584   -0.014398
  F      1.330961   -0.373100    1.302671
  F      2.503662    0.332732   -0.356577
  F      1.281010   -1.421471   -0.577478
  F      0.251716    1.882174    0.031390
  Br    -1.504489   -0.175751    0.004001

----------------------------
CARTESIAN COORDINATES (A.U.)
----------------------------
  NO LB      ZA    FRAG     MASS         X           Y           Z
   0 C     6.0000    0    12.011    0.318441    1.237370   -0.964534
   1 H     1.0000    0     1.008    0.386034    1.399109   -3.029300
   2 C     6.0000    0    12.011    2.519495   -0.401726   -0.027208
   3 F     9.0000    0    18.998    2.515153   -0.705056    2.461692
   4 F     9.0000    0    18.998    4.731235    0.628771   -0.673834
   5 F     9.0000    0    18.998    2.420758   -2.686192   -1.091275
   6 F     9.0000    0    18.998    0.475674    3.556793    0.059318
   7 Br   35.0000    0    79.900   -2.843073   -0.332121    0.007561

--------------------------------
INTERNAL COORDINATES (ANGSTROEM)
--------------------------------
 C      0   0   0     0.000000000000     0.00000000     0.00000000
 H      1   0   0     1.096557803101     0.00000000     0.00000000
 C      1   2   0     1.534601062064   109.96330905     0.00000000
 F      3   1   2     1.326816132686   112.82436498   181.09745409
 F      3   1   2     1.335776275320   110.57827582    60.32080131
 F      3   1   2     1.334614964551   110.23571169   301.93661241
 F      1   2   3     1.344226487540   109.16714838   120.52450478
 Br     1   2   3     1.937355226480   109.03823470   240.41462050

---------------------------
INTERNAL COORDINATES (A.U.)
---------------------------
 C      0   0   0     0.000000000000     0.00000000     0.00000000
 H      1   0   0     2.072193937876     0.00000000     0.00000000
 C      1   2   0     2.899975732126   109.96330905     0.00000000
 F      3   1   2     2.507319120845   112.82436498   181.09745409
 F      3   1   2     2.524251336544   110.57827582    60.32080131
 F      3   1   2     2.522056777234   110.23571169   301.93661241
 F      1   2   3     2.540219923414   109.16714838   120.52450478
 Br     1   2   3     3.661070802169   109.03823470   240.41462050

---------------------
BASIS SET INFORMATION
---------------------
There are 4 groups of distinct atoms

 Group   1 Type C   : 11s6p1d contracted to 5s3p1d pattern {62111/411/1}
 Group   2 Type H   : 4s1p contracted to 2s1p pattern {31/1}
 Group   3 Type F   : 11s6p2d contracted to 5s3p2d pattern {62111/411/11}
 Group   4 Type Br  : 17s13p7d contracted to 6s5p3d pattern {842111/64111/511}

Atom   0C    basis set group =>   1
Atom   1H    basis set group =>   2
Atom   2C    basis set group =>   1
Atom   3F    basis set group =>   3
Atom   4F    basis set group =>   3
Atom   5F    basis set group =>   3
Atom   6F    basis set group =>   3
Atom   7Br   basis set group =>   4
---------------------------------
AUXILIARY/J BASIS SET INFORMATION
---------------------------------
There are 4 groups of distinct atoms

 Group   1 Type C   : 12s5p4d2f1g contracted to 6s4p3d1f1g pattern {711111/2111/211/2/1}
 Group   2 Type H   : 5s2p1d contracted to 3s1p1d pattern {311/2/1}
 Group   3 Type F   : 12s5p4d2f1g contracted to 6s4p3d1f1g pattern {711111/2111/211/2/1}
 Group   4 Type Br  : 19s5p5d3f1g contracted to 8s4p3d2f1g pattern {121111111/2111/311/21/1}

Atom   0C    basis set group =>   1
Atom   1H    basis set group =>   2
Atom   2C    basis set group =>   1
Atom   3F    basis set group =>   3
Atom   4F    basis set group =>   3
Atom   5F    basis set group =>   3
Atom   6F    basis set group =>   3
Atom   7Br   basis set group =>   4

Checking for AutoStart:
The File: sp.gbw exists
Trying to determine its content:
     ... Fine, the file contains calculation information
     ... Fine, the calculation information was read
     ... Fine, the file contains a basis set
     ... Fine, the basis set was read
     ... Fine, the file contains a geometry
     ... Fine, the geometry was read
     ... Fine, the file contains a set of orbitals
     ... Fine, the orbitals can be read
     => possible old guess file was deleted
     => GBW file was renamed to GES file
     => GES file is set as startup file
     => Guess is set to MORead
     ... now leaving AutoStart

------------------------------------------------------------------------------
                             ORCA STARTUP CALCULATIONS
                           -- RI-GTO INTEGRALS CHOSEN --
------------------------------------------------------------------------------
------------------------------------------------------------------------------
                   ___                                                        
                  /   \      - P O W E R E D   B Y -                         
                 /     \                                                     
                 |  |  |   _    _      __       _____    __    __             
                 |  |  |  | |  | |    /  \     |  _  \  |  |  /  |          
                  \  \/   | |  | |   /    \    | | | |  |  | /  /          
                 / \  \   | |__| |  /  /\  \   | |_| |  |  |/  /          
                |  |  |   |  __  | /  /__\  \  |    /   |      \           
                |  |  |   | |  | | |   __   |  |    \   |  |\   \          
                \     /   | |  | | |  |  |  |  | |\  \  |  | \   \       
                 \___/    |_|  |_| |__|  |__|  |_| \__\ |__|  \__/        
                                                                              
                      - O R C A' S   B I G   F R I E N D -                    
                                      &                                       
                       - I N T E G R A L  F E E D E R -                       
                                                                              
 v1 FN, 2020, v2 2021, v3 2022-2024                                           
------------------------------------------------------------------------------


----------------------
SHARK INTEGRAL PACKAGE
----------------------

Number of atoms                             ...      8
Number of basis functions                   ...    175
Number of shells                            ...     75
Maximum angular momentum                    ...      2
Integral batch strategy                     ... SHARK/LIBINT Hybrid
RI-J (if used) integral strategy            ... SPLIT-RIJ (Revised 2003 algorithm where possible)
Printlevel                                  ...      1
Contraction scheme used                     ... SEGMENTED contraction
Prescreening option                         ... SCHWARTZ
   Thresh                                   ... 1.000e-10
   Tcut                                     ... 1.000e-11
   Tpresel                                  ... 1.000e-11 
Coulomb Range Separation                    ... NOT USED
Exchange Range Separation                   ... NOT USED
Multipole approximations                    ... NOT USED
Finite Nucleus Model                        ... NOT USED
CABS basis                                  ... NOT available
Auxiliary Coulomb fitting basis             ... AVAILABLE
   # of basis functions in Aux-J            ...    363
   # of shells in Aux-J                     ...    113
   Maximum angular momentum in Aux-J        ...      4
Auxiliary J/K fitting basis                 ... NOT available
Auxiliary Correlation fitting basis         ... NOT available
Auxiliary 'external' fitting basis          ... NOT available

Checking pre-screening integrals            ... done (  0.0 sec) Dimension = 75
Check shell pair data                       ... done (  0.0 sec)
Shell pair information
Shell pair cut-off parameter TPreSel        ...   1.0e-11
Total number of shell pairs                 ...      2850
Shell pairs after pre-screening             ...      2549
Total number of primitive shell pairs       ...     12136
Primitive shell pairs kept                  ...      7504
          la=0 lb=0:    598 shell pairs
          la=1 lb=0:    830 shell pairs
          la=1 lb=1:    289 shell pairs
          la=2 lb=0:    446 shell pairs
          la=2 lb=1:    299 shell pairs
          la=2 lb=2:     87 shell pairs

Calculating one electron integrals          ... done (  0.0 sec)
Calculating RI/J V-Matrix + Cholesky decomp.... done (  0.0 sec)
Calculating Nuclear repulsion               ... done (  0.0 sec) ENN=    574.489962076987 Eh

Diagonalization of the overlap matrix:
Smallest eigenvalue                        ... 4.848e-04
Time for diagonalization                   ...    0.003 sec
Threshold for overlap eigenvalues          ... 1.000e-07
Number of eigenvalues below threshold      ... 0
Time for construction of square roots      ...    0.004 sec
Total time needed                          ...    0.008 sec

-------------------
DFT GRID GENERATION
-------------------

General Integration Accuracy     IntAcc      ... 4.388
Radial Grid Type                 RadialGrid  ... OptM3 with GC (2021)
Angular Grid (max. ang.)         AngularGrid ... 4 (Lebedev-302)
Angular grid pruning method      GridPruning ... 4 (adaptive)
Weight generation scheme         WeightScheme... mBecke (2022)
Basis function cutoff            BFCut       ... 1.0000e-10
Integration weight cutoff        WCut        ... 1.0000e-14
Partially contracted basis set               ... off
Rotationally invariant grid construction     ... off
Angular grids for H and He will be reduced by one unit
Core-polarized basis detected: some atoms will have their core
                               angular grid increased.

Total number of grid points                  ...    51130
Total number of batches                      ...      803
Average number of points per batch           ...       63
Average number of grid points per atom       ...     6391
Initializing property integral containers    ... done (  0.0 sec)

SHARK setup successfully completed in   0.5 seconds

Maximum memory used throughout the entire STARTUP-calculation: 27.3 MB
-------------------------------------------------------------------------------
                                 ORCA GUESS
                   Start orbitals & Density for SCF / CASSCF
-------------------------------------------------------------------------------

------------
SCF SETTINGS
------------
Hamiltonian:
 Density Functional     Method          .... DFT(GTOs)
  Functional kind                       .... Exchange
  Functional name                       .... Re-regularized SCAN exchange by Furness et al
  Functional family                     .... MGGA
  Functional refs                              
    [ 0] J. W. Furness, A. D. Kaplan, J. Ning, J. P. Perdew, and J. Sun.,  J. Phys. Chem. Lett. 11, 8208-8215 (2020), doi: 10.1021/acs.jpclett.0c02405
    [ 1] J. W. Furness, A. D. Kaplan, J. Ning, J. P. Perdew, and J. Sun.,  J. Phys. Chem. Lett. 11, 9248-9248 (2020), doi: 10.1021/acs.jpclett.0c03077
  Functional external parameters        .... 6
    Parameter  0 _c1        =  6.670000e-01 : c1 parameter        
    Parameter  1 _c2        =  8.000000e-01 : c2 parameter        
    Parameter  2 _d         =  1.240000e+00 : d parameter         
    Parameter  3 _k1        =  6.500000e-02 : k1 parameter        
    Parameter  4 _eta       =  1.000000e-03 : eta parameter       
    Parameter  5 _dp2       =  3.610000e-01 : dp2 parameter       
  Functional kind                       .... Correlation
  Functional name                       .... Re-regularized SCAN correlation by Furness et al
  Functional family                     .... MGGA
  Functional refs                              
    [ 0] J. W. Furness, A. D. Kaplan, J. Ning, J. P. Perdew, and J. Sun.,  J. Phys. Chem. Lett. 11, 8208-8215 (2020), doi: 10.1021/acs.jpclett.0c02405
    [ 1] J. W. Furness, A. D. Kaplan, J. Ning, J. P. Perdew, and J. Sun.,  J. Phys. Chem. Lett. 11, 9248-9248 (2020), doi: 10.1021/acs.jpclett.0c03077
  Functional external parameters        .... 1
    Parameter  0 _eta       =  1.000000e-03 : Regularization parameter
 Gradients option       PostSCFGGA      .... off
 RI-approximation to the Coulomb term is turned on
   Number of AuxJ basis functions       .... 363


General Settings:
 Integral files         IntName         .... sp
 Hartree-Fock type      HFTyp           .... RHF
 Total Charge           Charge          ....    0
 Multiplicity           Mult            ....    1
 Number of Electrons    NEL             ....   84
 Basis Dimension        Dim             ....  175
 Nuclear Repulsion      ENuc            ....    574.4899620770 Eh

Convergence Acceleration:
 AO-DIIS                CNVDIIS         .... on
   Start iteration      DIISMaxIt       ....    12
   Startup error        DIISStart       ....  0.200000
   # of expansion vecs  DIISMaxEq       ....     5
   Bias factor          DIISBfac        ....   1.050
   Max. coefficient     DIISMaxC        ....  10.000
 MO-DIIS                CNVKDIIS        .... off
 Trust-Rad. Augm. Hess. CNVTRAH         .... auto
   Auto Start mean grad. ratio tolernc. ....  1.125000
   Auto Start start iteration           ....     1
   Auto Start num. interpolation iter.  ....    10
   Max. Number of Micro iterations      ....    24
   Max. Number of Macro iterations      .... Maxiter - #DIIS iter
   Number of Davidson start vectors     ....     2
   Converg. threshold    (grad. norm)   ....   3.330e-04
   Grad. Scal. Fac. for Micro threshold ....   0.100
   Minimum threshold for Micro iter.    ....   1.000e-02
   NR start threshold (gradient norm)   ....   1.000e-04
   Initial trust radius                 ....   0.400
   Minimum AH scaling param. (alpha)    ....   1.000
   Maximum AH scaling param. (alpha)    .... 1000.000
   Quad. conv. algorithm                .... NR
   White noise on init. David. guess    .... on
   Maximum white noise                  ....   0.010
   Pseudo random numbers                .... off
   Inactive MOs                         .... canonical
   Orbital update algorithm             .... Taylor
   Preconditioner                       .... Diag
   Full preconditioner red. dimension   ....   250
   COSX micro iterations for RIJONX calc.... off
 SOSCF                  CNVSOSCF        .... on
   Start iteration      SOSCFMaxIt      ....   150
   Startup grad/error   SOSCFStart      ....  0.003300
   Hessian update       SOSCFHessUp     .... L-BFGS
 Level Shifting         CNVShift        .... on
   Level shift para.    LevelShift      ....    0.2500
   Turn off err/grad.   ShiftErr        ....    0.0010
 Zerner damping         CNVZerner       .... off
 Static damping         CNVDamp         .... on
   Fraction old density DampFac         ....    0.7000
   Max. Damping (<1)    DampMax         ....    0.9800
   Min. Damping (>=0)   DampMin         ....    0.0000
   Turn off err/grad.   DampErr         ....    0.1000

SCF Procedure:
 Maximum # iterations   MaxIter         ....   125
 SCF integral mode      SCFMode         .... Direct
   Integral package                     .... SHARK and LIBINT hybrid scheme
 Reset frequency        DirectResetFreq ....    20
 Integral Threshold     Thresh          ....  1.000e-10 Eh
 Primitive CutOff       TCut            ....  1.000e-11 Eh

Convergence Tolerance:
 Convergence Check Mode ConvCheckMode   .... Total+1el-Energy
 Convergence forced     ConvForced      .... 0
 Energy Change          TolE            ....  1.000e-06 Eh
 1-El. energy change                    ....  1.000e-03 Eh
 Orbital Gradient       TolG            ....  3.330e-04
 Orbital Rotation angle TolX            ....  3.330e-04
 DIIS Error             TolErr          ....  1.000e-06

---------------------
INITIAL GUESS: MOREAD
---------------------
Guess MOs are being read from file: sp.ges
Input Geometry matches current geometry (good)
Atom 0: N(Shells)= 9 and 6 - projection required
Input basis set needs projection
NBasis(read)= 118
NBasis(calc)= 175
Basis set overlap was calculated
Using GuessMode=FMatrix for the initial guess
C*T matrix was formed
Effective Fockian was calculated
Effective Fockian was diagonalized
Initial density was built
                      ------------------
                      INITIAL GUESS DONE (   0.0 sec)
                      ------------------
             **** ENERGY FILE WAS UPDATED (sp.en.tmp) ****
Finished Guess after   0.1 sec
Maximum memory used throughout the entire GUESS-calculation: 13.0 MB

-------------------------------------------------------------------------------------------
                                      ORCA LEAN-SCF
                              memory conserving SCF solver
-------------------------------------------------------------------------------------------

----------------------------------------D-I-I-S--------------------------------------------
Iteration    Energy (Eh)           Delta-E    RMSDP     MaxDP     DIISErr   Damp  Time(sec)
-------------------------------------------------------------------------------------------
               ***  Starting incremental Fock matrix formation  ***
    1    -3050.0887299059668294     0.00e+00  3.37e-03  2.09e-01  8.36e-01  0.700   0.9
    2    -3050.1576705403531378    -6.89e-02  2.67e-03  1.54e-01  5.88e-01  0.700   0.8
    3    -3050.2061037792291245    -4.84e-02  1.93e-03  1.09e-01  4.12e-01  0.700   1.0
    4    -3050.2400641782896855    -3.40e-02  1.37e-03  7.70e-02  2.89e-01  0.700   0.8
    5    -3050.2638627998112497    -2.38e-02  9.72e-04  5.44e-02  2.02e-01  0.700   0.8
                               ***Turning on AO-DIIS***
    6    -3050.2805347191833789    -1.67e-02  6.97e-04  3.90e-02  1.42e-01  0.700   0.8
    7    -3050.2922114130287810    -1.17e-02  4.90e-04  2.74e-02  9.91e-02  0.700   0.8
    8    -3050.3003895615693182    -8.18e-03  1.15e-03  6.39e-02  6.94e-02  0.000   0.8
                              *** Initializing SOSCF ***
---------------------------------------S-O-S-C-F--------------------------------------
Iteration    Energy (Eh)           Delta-E    RMSDP     MaxDP     MaxGrad    Time(sec)
--------------------------------------------------------------------------------------
    9    -3050.3194852090546192    -1.91e-02  6.82e-06  1.76e-04  1.84e-04     0.8
               *** Restarting incremental Fock matrix formation ***
   10    -3050.3194851689340794     4.01e-08  8.01e-06  1.93e-04  7.27e-05     1.1
                  *** Gradient check signals convergence ***

               *****************************************************
               *                     SUCCESS                       *
               *           SCF CONVERGED AFTER  10 CYCLES          *
               *****************************************************

             **** ENERGY FILE WAS UPDATED (sp.en.tmp) ****

----------------
TOTAL SCF ENERGY
----------------

Total Energy       :      -3050.31948516893408 Eh          -83003.41300 eV

Components:
Nuclear Repulsion  :        574.48996207698724 Eh           15632.66662 eV
Electronic Energy  :      -3624.80944724592155 Eh          -98636.07962 eV
One Electron Energy:      -5386.86709444720054 Eh         -146584.10583 eV
Two Electron Energy:       1762.05764720127922 Eh           47948.02621 eV

Virial components:
Potential Energy   :      -6095.70498283361121 Eh         -165872.56538 eV
Kinetic Energy     :       3045.38549766467713 Eh           82869.15238 eV
Virial Ratio       :          2.00162015203265

DFT components:
N(Alpha)           :       42.000017076720 electrons
N(Beta)            :       42.000017076720 electrons
N(Total)           :       84.000034153440 electrons
E(X)               :     -140.839373041475 Eh       
E(C)               :       -3.423136196625 Eh       
E(XC)              :     -144.262509238100 Eh       

---------------
SCF CONVERGENCE
---------------

  Last Energy change         ...   -4.0121e-08  Tolerance :   1.0000e-06
  Last MAX-Density change    ...    1.9258e-04  Tolerance :   1.0000e-05
  Last RMS-Density change    ...    8.0093e-06  Tolerance :   1.0000e-06
  Last DIIS Error            ...    1.8378e-04  Tolerance :   1.0000e-06
  Last Orbital Gradient      ...    7.2692e-05  Tolerance :   3.3300e-04
  Last Orbital Rotation      ...    1.0646e-04  Tolerance :   3.3300e-04


----------------
ORBITAL ENERGIES
----------------

  NO   OCC          E(Eh)            E(eV) 
   0   2.0000    -482.253056    -13122.7728 
   1   2.0000     -62.324741     -1695.9424 
   2   2.0000     -56.105306     -1526.7030 
   3   2.0000     -56.102468     -1526.6258 
   4   2.0000     -56.102402     -1526.6240 
   5   2.0000     -24.542979      -667.8484 
   6   2.0000     -24.541784      -667.8159 
   7   2.0000     -24.541672      -667.8128 
   8   2.0000     -24.536561      -667.6738 
   9   2.0000     -10.309934      -280.5476 
  10   2.0000     -10.213378      -277.9202 
  11   2.0000      -8.656488      -235.5550 
  12   2.0000      -6.464798      -175.9161 
  13   2.0000      -6.450058      -175.5150 
  14   2.0000      -6.449610      -175.5028 
  15   2.0000      -2.562177       -69.7204 
  16   2.0000      -2.558602       -69.6231 
  17   2.0000      -2.558262       -69.6139 
  18   2.0000      -2.547289       -69.3153 
  19   2.0000      -2.547276       -69.3149 
  20   2.0000      -1.305530       -35.5253 
  21   2.0000      -1.231583       -33.5131 
  22   2.0000      -1.214068       -33.0365 
  23   2.0000      -1.212373       -32.9904 
  24   2.0000      -0.817487       -22.2450 
  25   2.0000      -0.729980       -19.8638 
  26   2.0000      -0.652047       -17.7431 
  27   2.0000      -0.587152       -15.9772 
  28   2.0000      -0.583625       -15.8812 
  29   2.0000      -0.572033       -15.5658 
  30   2.0000      -0.524123       -14.2621 
  31   2.0000      -0.484153       -13.1745 
  32   2.0000      -0.451340       -12.2816 
  33   2.0000      -0.448861       -12.2141 
  34   2.0000      -0.437063       -11.8931 
  35   2.0000      -0.412340       -11.2204 
  36   2.0000      -0.411206       -11.1895 
  37   2.0000      -0.390130       -10.6160 
  38   2.0000      -0.365412        -9.9434 
  39   2.0000      -0.356851        -9.7104 
  40   2.0000      -0.293373        -7.9831 
  41   2.0000      -0.286837        -7.8052 
  42   0.0000      -0.062111        -1.6901 
  43   0.0000       0.018561         0.5051 
  44   0.0000       0.074980         2.0403 
  45   0.0000       0.118864         3.2345 
  46   0.0000       0.121998         3.3197 
  47   0.0000       0.144678         3.9369 
  48   0.0000       0.150177         4.0865 
  49   0.0000       0.177444         4.8285 
  50   0.0000       0.206596         5.6218 
  51   0.0000       0.218720         5.9517 
  52   0.0000       0.239522         6.5177 
*Only the first 10 virtual orbitals were printed.

                    ********************************
                    * MULLIKEN POPULATION ANALYSIS *
                    ********************************

-----------------------
MULLIKEN ATOMIC CHARGES
-----------------------
   0 C :    0.104254
   1 H :    0.180141
   2 C :    0.536196
   3 F :   -0.186215
   4 F :   -0.191594
   5 F :   -0.196014
   6 F :   -0.175254
   7 Br:   -0.071514
Sum of atomic charges:    0.0000000

--------------------------------
MULLIKEN REDUCED ORBITAL CHARGES
--------------------------------
  0 C s       :     3.178619  s :     3.178619
      pz      :     1.042062  p :     2.641717
      px      :     0.877676
      py      :     0.721979
      dz2     :     0.017070  d :     0.075410
      dxz     :     0.006238
      dyz     :     0.015281
      dx2y2   :     0.015707
      dxy     :     0.021114

  1 H s       :     0.802545  s :     0.802545
      pz      :     0.012711  p :     0.017314
      px      :     0.002771
      py      :     0.001832

  2 C s       :     2.979273  s :     2.979273
      pz      :     0.717757  p :     2.324002
      px      :     0.827098
      py      :     0.779147
      dz2     :     0.038730  d :     0.160528
      dxz     :     0.027883
      dyz     :     0.032751
      dx2y2   :     0.028946
      dxy     :     0.032219

  3 F s       :     3.922500  s :     3.922500
      pz      :     1.424599  p :     5.251757
      px      :     1.919838
      py      :     1.907320
      dz2     :     0.008245  d :     0.011958
      dxz     :     0.000380
      dyz     :     0.000296
      dx2y2   :     0.001675
      dxy     :     0.001363

  4 F s       :     3.921608  s :     3.921608
      pz      :     1.890970  p :     5.258866
      px      :     1.524211
      py      :     1.843685
      dz2     :     0.002127  d :     0.011121
      dxz     :     0.001793
      dyz     :     0.000700
      dx2y2   :     0.002027
      dxy     :     0.004474

  5 F s       :     3.921312  s :     3.921312
      pz      :     1.835286  p :     5.262336
      px      :     1.921756
      py      :     1.505293
      dz2     :     0.001298  d :     0.012366
      dxz     :     0.000306
      dyz     :     0.004389
      dx2y2   :     0.004850
      dxy     :     0.001522

  6 F s       :     3.922479  s :     3.922479
      pz      :     1.853291  p :     5.245827
      px      :     1.915700
      py      :     1.476836
      dz2     :     0.000369  d :     0.006948
      dxz     :     0.000271
      dyz     :     0.002994
      dx2y2   :     0.002357
      dxy     :     0.000956

  7 Brs       :     7.974640  s :     7.974640
      pz      :     5.885669  p :    17.058152
      px      :     5.358681
      py      :     5.813802
      dz2     :     2.006043  d :    10.038723
      dxz     :     2.007979
      dyz     :     2.002424
      dx2y2   :     2.010645
      dxy     :     2.011632


------------------------
MULLIKEN OVERLAP CHARGES
------------------------
B(  0-C ,  1-H ) :   0.8192 B(  0-C ,  2-C ) :   0.7306 B(  0-C ,  3-F ) :  -0.1087 
B(  0-C ,  4-F ) :  -0.1162 B(  0-C ,  5-F ) :  -0.1068 B(  0-C ,  6-F ) :   0.3403 
B(  0-C ,  7-Br) :   0.6299 B(  1-H ,  6-F ) :  -0.0833 B(  1-H ,  7-Br) :  -0.0940 
B(  2-C ,  3-F ) :   0.5388 B(  2-C ,  4-F ) :   0.5247 B(  2-C ,  5-F ) :   0.5211 
B(  2-C ,  6-F ) :  -0.1021 B(  2-C ,  7-Br) :  -0.0707 B(  3-F ,  4-F ) :  -0.1400 
B(  3-F ,  5-F ) :  -0.1399 B(  4-F ,  5-F ) :  -0.1424 B(  6-F ,  7-Br) :  -0.1415 



                     *******************************
                     * LOEWDIN POPULATION ANALYSIS *
                     *******************************

----------------------
LOEWDIN ATOMIC CHARGES
----------------------
   0 C :    0.008268
   1 H :    0.186374
   2 C :    0.470384
   3 F :   -0.186327
   4 F :   -0.191940
   5 F :   -0.200595
   6 F :   -0.299050
   7 Br:    0.212885

-------------------------------
LOEWDIN REDUCED ORBITAL CHARGES
-------------------------------
  0 C s       :     2.918589  s :     2.918589
      pz      :     1.064126  p :     2.906759
      px      :     0.992093
      py      :     0.850540
      dz2     :     0.040582  d :     0.166385
      dxz     :     0.010718
      dyz     :     0.033495
      dx2y2   :     0.035725
      dxy     :     0.045866

  1 H s       :     0.769949  s :     0.769949
      pz      :     0.031512  p :     0.043677
      px      :     0.006929
      py      :     0.005235

  2 C s       :     2.700313  s :     2.700313
      pz      :     0.785801  p :     2.483549
      px      :     0.881290
      py      :     0.816458
      dz2     :     0.091212  d :     0.345754
      dxz     :     0.052984
      dyz     :     0.067848
      dx2y2   :     0.063282
      dxy     :     0.070429

  3 F s       :     3.728356  s :     3.728356
      pz      :     1.533754  p :     5.304745
      px      :     1.892994
      py      :     1.877997
      dz2     :     0.054613  d :     0.153226
      dxz     :     0.039424
      dyz     :     0.041980
      dx2y2   :     0.008940
      dxy     :     0.008268

  4 F s       :     3.733680  s :     3.733680
      pz      :     1.864922  p :     5.308603
      px      :     1.610958
      py      :     1.832723
      dz2     :     0.025906  d :     0.149657
      dxz     :     0.029140
      dyz     :     0.012453
      dx2y2   :     0.043815
      dxy     :     0.038343

  5 F s       :     3.733405  s :     3.733405
      pz      :     1.824881  p :     5.313127
      px      :     1.894088
      py      :     1.594158
      dz2     :     0.032611  d :     0.154063
      dxz     :     0.007859
      dyz     :     0.035957
      dx2y2   :     0.037157
      dxy     :     0.040479

  6 F s       :     3.745603  s :     3.745603
      pz      :     1.874047  p :     5.380767
      px      :     1.902264
      py      :     1.604456
      dz2     :     0.033632  d :     0.172680
      dxz     :     0.006531
      dyz     :     0.046751
      dx2y2   :     0.040805
      dxy     :     0.044960

  7 Brs       :     7.701908  s :     7.701908
      pz      :     5.881368  p :    17.027692
      px      :     5.365652
      py      :     5.780673
      dz2     :     2.008795  d :    10.057514
      dxz     :     2.011919
      dyz     :     2.003513
      dx2y2   :     2.015255
      dxy     :     2.018032


---------------------------------
LOEWDIN BOND ORDERS (THRESH 0.050000)
---------------------------------
B(  0-C ,  1-H ) :   0.8199 B(  0-C ,  2-C ) :   0.8589 B(  0-C ,  3-F ) :   0.1170 
B(  0-C ,  4-F ) :   0.1184 B(  0-C ,  5-F ) :   0.1229 B(  0-C ,  6-F ) :   1.3970 
B(  0-C ,  7-Br) :   1.2945 B(  1-H ,  6-F ) :   0.0808 B(  2-C ,  3-F ) :   1.3178 
B(  2-C ,  4-F ) :   1.2970 B(  2-C ,  5-F ) :   1.2967 B(  2-C ,  6-F ) :   0.1267 
B(  2-C ,  7-Br) :   0.1203 B(  3-F ,  4-F ) :   0.2292 B(  3-F ,  5-F ) :   0.2278 
B(  4-F ,  5-F ) :   0.2295 B(  6-F ,  7-Br) :   0.1770 

------------------------------------------
LOEWDIN REDUCED ORBITAL POPULATIONS PER MO
-------------------------------------------
THRESHOLD FOR PRINTING IS 0.1%%
                      0         1         2         3         4         5   
                 -482.25306 -62.32474 -56.10531 -56.10247 -56.10240 -24.54298
                   2.00000   2.00000   2.00000   2.00000   2.00000   2.00000
                  --------  --------  --------  --------  --------  --------
 4 F  s               0.0       0.0       0.0       0.0       0.0     100.0
 7 Br s             100.0     100.0       0.0       0.0       0.0       0.0
 7 Br pz              0.0       0.0       8.4      58.8      32.7       0.0
 7 Br px              0.0       0.0      74.5       0.2      25.2       0.0
 7 Br py              0.0       0.0      17.0      40.9      42.0       0.0

                      6         7         8         9        10        11   
                 -24.54178 -24.54167 -24.53656 -10.30993 -10.21338  -8.65649
                   2.00000   2.00000   2.00000   2.00000   2.00000   2.00000
                  --------  --------  --------  --------  --------  --------
 0 C  s               0.0       0.0       0.0       0.0      99.3       0.0
 0 C  px              0.0       0.0       0.0       0.0       0.0       0.1
 2 C  s               0.0       0.0       0.0      98.4       0.0       0.0
 3 F  s               0.0      99.9       0.0       0.0       0.0       0.0
 3 F  pz              0.0       0.0       0.0       0.1       0.0       0.0
 3 F  dz2             0.0       0.0       0.0       0.3       0.0       0.0
 4 F  dxy             0.0       0.0       0.0       0.1       0.0       0.0
 5 F  s             100.0       0.0       0.0       0.0       0.0       0.0
 5 F  py              0.0       0.0       0.0       0.1       0.0       0.0
 5 F  dyz             0.0       0.0       0.0       0.2       0.0       0.0
 5 F  dx2y2           0.0       0.0       0.0       0.2       0.0       0.0
 6 F  s               0.0       0.0     100.0       0.0       0.0       0.0
 6 F  py              0.0       0.0       0.0       0.0       0.1       0.0
 6 F  dyz             0.0       0.0       0.0       0.0       0.2       0.0
 6 F  dx2y2           0.0       0.0       0.0       0.0       0.2       0.0
 7 Br s               0.0       0.0       0.0       0.0       0.0      99.8

                     12        13        14        15        16        17   
                  -6.46480  -6.45006  -6.44961  -2.56218  -2.55860  -2.55826
                   2.00000   2.00000   2.00000   2.00000   2.00000   2.00000
                  --------  --------  --------  --------  --------  --------
 7 Br pz              7.6      16.8      75.6       0.0       0.0       0.0
 7 Br px             76.0       7.5      16.4       0.0       0.0       0.0
 7 Br py             16.3      75.7       8.0       0.0       0.0       0.0
 7 Br dz2             0.0       0.0       0.0      14.6       3.4      17.7
 7 Br dxz             0.0       0.0       0.0      16.7      17.1      43.4
 7 Br dyz             0.0       0.0       0.0       4.0       0.7      18.3
 7 Br dx2y2           0.0       0.0       0.0      27.2      36.6      20.1
 7 Br dxy             0.0       0.0       0.0      37.6      42.2       0.4

                     18        19        20        21        22        23   
                  -2.54729  -2.54728  -1.30553  -1.23158  -1.21407  -1.21237
                   2.00000   2.00000   2.00000   2.00000   2.00000   2.00000
                  --------  --------  --------  --------  --------  --------
 0 C  s               0.0       0.0       1.4       7.2       0.0       0.2
 0 C  pz              0.0       0.0       0.4       1.7       0.1       0.0
 0 C  px              0.0       0.0       1.5       0.0       0.0       0.1
 0 C  py              0.0       0.0       0.5       8.7       0.0       0.1
 0 C  dyz             0.0       0.0       0.0       0.5       0.0       0.0
 0 C  dx2y2           0.0       0.0       0.0       0.7       0.0       0.0
 1 H  s               0.0       0.0       0.1       0.4       0.0       0.0
 2 C  s               0.0       0.0      17.5       0.1       0.0       0.0
 2 C  pz              0.0       0.0       0.3       0.0      14.7       0.8
 2 C  px              0.0       0.0       1.7       0.4       2.1       5.1
 2 C  py              0.0       0.0       0.9       2.2       0.0       9.9
 2 C  dz2             0.0       0.0       0.1       0.0       1.9       0.0
 2 C  dxz             0.0       0.0       0.0       0.0       0.0       0.1
 2 C  dyz             0.0       0.0       0.0       0.0       0.1       0.6
 2 C  dx2y2           0.0       0.0       0.0       0.0       0.0       1.2
 2 C  dxy             0.0       0.0       0.2       0.0       0.2       0.2
 3 F  s               0.0       0.0      22.3       0.0      51.0       0.7
 3 F  pz              0.0       0.0       2.3       0.0       0.9       0.0
 3 F  dz2             0.0       0.0       0.6       0.0       0.0       0.0
 3 F  dxz             0.0       0.0       0.0       0.0       0.1       0.1
 3 F  dyz             0.0       0.0       0.0       0.0       0.0       0.3
 4 F  s               0.0       0.0      21.9       0.0      18.8      34.0
 4 F  pz              0.0       0.0       0.2       0.0       0.1       0.1
 4 F  px              0.0       0.0       1.6       0.0       0.3       0.5
 4 F  py              0.0       0.0       0.5       0.0       0.1       0.1
 4 F  dz2             0.0       0.0       0.1       0.0       0.1       0.0
 4 F  dxz             0.0       0.0       0.1       0.0       0.2       0.0
 4 F  dxy             0.0       0.0       0.4       0.0       0.0       0.1
 5 F  s               0.0       0.0      21.5       2.9       8.1      41.8
 5 F  pz              0.0       0.0       0.5       0.0       0.1       0.1
 5 F  py              0.0       0.0       1.7       0.1       0.2       0.6
 5 F  dz2             0.0       0.0       0.0       0.0       0.3       0.0
 5 F  dyz             0.0       0.0       0.3       0.0       0.1       0.0
 5 F  dx2y2           0.0       0.0       0.2       0.0       0.0       0.0
 5 F  dxy             0.0       0.0       0.1       0.0       0.1       0.1
 6 F  s               0.0       0.0       0.6      71.6       0.3       2.3
 6 F  pz              0.0       0.0       0.0       0.3       0.0       0.0
 6 F  py              0.0       0.0       0.1       1.8       0.0       0.0
 6 F  dx2y2           0.0       0.0       0.0       0.1       0.0       0.0
 7 Br px              0.0       0.0       0.2       0.3       0.0       0.0
 7 Br py              0.0       0.0       0.0       0.2       0.0       0.0
 7 Br dz2            55.2       9.2       0.0       0.0       0.0       0.0
 7 Br dxz            14.6       8.2       0.0       0.0       0.0       0.0
 7 Br dyz             5.1      71.9       0.0       0.0       0.0       0.0
 7 Br dx2y2          15.7       0.3       0.0       0.0       0.0       0.0
 7 Br dxy             9.4      10.4       0.0       0.0       0.0       0.0

                     24        25        26        27        28        29   
                  -0.81749  -0.72998  -0.65205  -0.58715  -0.58363  -0.57203
                   2.00000   2.00000   2.00000   2.00000   2.00000   2.00000
                  --------  --------  --------  --------  --------  --------
 0 C  s              20.3       3.3       7.2       0.1       0.0       1.6
 0 C  pz              0.1       0.4       2.5       6.2       0.2       2.3
 0 C  px              2.8      13.2       0.6       0.1       0.0       5.7
 0 C  py              6.1       0.4       0.4       0.0       2.6       7.3
 0 C  dxz             0.0       0.1       0.0       0.1       0.0       0.0
 0 C  dyz             0.1       0.0       0.0       0.0       0.0       0.0
 0 C  dx2y2           0.2       0.0       0.0       0.0       0.0       0.1
 0 C  dxy             0.0       0.3       0.0       0.0       0.0       0.0
 1 H  s               3.3       0.9       4.3       1.9       0.1       1.9
 1 H  pz              0.3       0.1       0.3       0.1       0.0       0.1
 2 C  s               3.6       8.3       4.2       0.0       0.0       0.4
 2 C  pz              0.8       0.8       1.1      12.1       0.0       3.3
 2 C  px              6.0       2.1       2.7       1.9      11.6       3.1
 2 C  py              1.9       2.0       2.2       2.9       6.1       7.1
 3 F  s               0.8       2.2       4.0       4.0       0.1       0.8
 3 F  pz              0.8       4.8      15.2      23.2       0.8       7.3
 3 F  px              0.2       0.1       0.5       0.8       5.9       2.3
 3 F  py              0.1       0.4       0.0       4.2       2.7       3.1
 3 F  dz2             0.1       0.6       0.6       0.1       0.0       0.1
 3 F  dxz             0.1       0.1       0.1       0.1       0.6       0.2
 3 F  dyz             0.1       0.2       0.0       0.3       0.3       0.3
 4 F  s               0.5       3.5       2.2       0.6       4.8       0.1
 4 F  pz              0.0       0.1       2.1       2.9       5.3       1.0
 4 F  px              0.9       7.0       4.7       2.5      25.4       5.3
 4 F  py              0.0       0.4       4.6       5.7       3.8       2.4
 4 F  dz2             0.1       0.2       0.0       0.1       0.0       0.0
 4 F  dxz             0.0       0.0       0.2       0.4       0.1       0.0
 4 F  dyz             0.0       0.0       0.1       0.0       0.0       0.1
 4 F  dx2y2           0.2       0.6       0.0       0.0       0.1       0.4
 4 F  dxy             0.0       0.1       0.4       0.3       0.0       0.1
 5 F  s               1.2       2.5       2.9       2.8       2.1       0.4
 5 F  pz              0.0       0.4       4.7       0.1       5.6       7.1
 5 F  px              0.2       0.1       0.8       1.6       4.4       2.6
 5 F  py              1.2       5.4       7.6      20.3      10.5       0.3
 5 F  dz2             0.1       0.1       0.0       0.1       0.0       0.2
 5 F  dxz             0.0       0.0       0.0       0.0       0.1       0.1
 5 F  dyz             0.0       0.1       0.5       0.1       0.1       0.2
 5 F  dx2y2           0.1       0.6       0.1       0.2       0.0       0.1
 5 F  dxy             0.2       0.1       0.2       0.1       0.4       0.2
 6 F  s               4.0       0.9       2.5       0.2       0.5       2.1
 6 F  pz              0.6       0.3       3.2       0.8       1.2      10.1
 6 F  px              0.1       0.6       0.0       0.2       0.0       4.5
 6 F  py              4.2       1.9       7.6       2.3       2.4      11.7
 6 F  dz2             0.2       0.0       0.0       0.1       0.0       0.1
 6 F  dyz             0.3       0.1       0.5       0.1       0.0       0.4
 6 F  dx2y2           0.5       0.3       0.3       0.0       0.0       0.0
 6 F  dxy             0.1       0.4       0.0       0.0       0.0       0.4
 7 Br s              35.1      33.1       7.1       0.0       0.7       1.1
 7 Br pz              0.2       0.0       0.2       0.1       0.0       0.3
 7 Br px              1.7       0.5       1.1       0.1       0.7       0.2
 7 Br py              0.3       0.0       0.3       0.0       0.0       1.0
 7 Br dx2y2           0.2       0.0       0.0       0.0       0.1       0.0
 7 Br dxy             0.2       0.0       0.1       0.0       0.0       0.1

                     30        31        32        33        34        35   
                  -0.52412  -0.48415  -0.45134  -0.44886  -0.43706  -0.41234
                   2.00000   2.00000   2.00000   2.00000   2.00000   2.00000
                  --------  --------  --------  --------  --------  --------
 0 C  s               1.5       1.0       0.0       0.0       1.9       0.0
 0 C  pz             25.3       1.3       0.1       0.2       0.1       0.0
 0 C  px              0.1      10.7       0.0       0.4       0.9       0.2
 0 C  py              2.2       5.0       0.1       0.1       3.5       0.3
 0 C  dz2             0.1       0.0       0.0       0.0       0.2       0.0
 0 C  dyz             0.3       0.0       0.0       0.0       0.0       0.0
 0 C  dx2y2           0.0       0.1       0.0       0.0       0.1       0.1
 0 C  dxy             0.0       0.1       0.0       0.0       0.3       0.0
 1 H  s              12.1       0.0       0.1       0.1       0.7       0.1
 1 H  pz              0.4       0.0       0.0       0.0       0.0       0.0
 2 C  s               0.1       0.0       0.0       0.0       0.3       0.0
 2 C  pz              1.9       0.0       1.0       0.4       0.1       0.2
 2 C  px              0.0       0.1       0.0       0.7       0.1       0.5
 2 C  py              0.1       0.1       0.4       0.6       0.0       0.8
 2 C  dz2             0.2       0.0       0.5       0.7       0.2       0.2
 2 C  dxz             0.2       0.0       1.5       0.1       0.1       0.1
 2 C  dyz             0.1       0.1       0.3       1.2       0.2       0.0
 2 C  dx2y2           0.0       0.4       0.1       0.0       0.1       1.0
 2 C  dxy             0.0       0.0       0.2       0.5       0.9       0.1
 3 F  s               0.2       0.0       0.1       0.0       0.0       0.0
 3 F  pz              5.2       0.2       5.5       1.1       0.5       0.9
 3 F  px              1.3       0.0      24.9       1.3       3.5      15.4
 3 F  py              0.0       2.0       0.7      27.8       5.7       0.9
 4 F  pz              1.3       1.0      34.4       0.0       0.2      10.0
 4 F  px              0.1       0.1       1.2      17.8       4.7       2.1
 4 F  py              0.5       4.7       5.3       4.7       5.8      40.5
 4 F  dxy             0.0       0.1       0.0       0.1       0.0       0.1
 5 F  s               0.2       0.0       0.1       0.0       0.0       0.0
 5 F  pz              0.1       2.8       1.7      21.5       4.0       0.3
 5 F  px              0.7       0.0      15.1       5.2      15.7      17.0
 5 F  py              3.3       0.0       4.2      10.3       5.4       1.3
 5 F  dxy             0.1       0.0       0.1       0.0       0.0       0.1
 6 F  s               1.7       0.2       0.0       0.0       0.1       0.0
 6 F  pz              2.3      14.7       0.5       0.3      16.4       3.8
 6 F  px              0.2      26.2       0.8       2.7      24.8       2.0
 6 F  py             34.8       1.2       0.7       0.1       0.4       0.1
 6 F  dz2             0.3       0.1       0.0       0.0       0.0       0.0
 6 F  dyz             0.3       0.1       0.0       0.0       0.0       0.0
 6 F  dx2y2           0.1       0.1       0.0       0.0       0.2       0.0
 6 F  dxy             0.0       0.5       0.0       0.0       0.0       0.0
 7 Br s               0.1       6.6       0.0       0.3       0.1       0.0
 7 Br pz              1.8       0.8       0.1       0.0       0.2       0.1
 7 Br px              0.1      13.4       0.0       1.2       1.7       0.2
 7 Br py              0.0       4.7       0.0       0.1       0.0       1.2
 7 Br dz2             0.0       0.1       0.0       0.0       0.0       0.0
 7 Br dxz             0.2       0.1       0.0       0.0       0.0       0.0
 7 Br dx2y2           0.0       0.1       0.0       0.0       0.1       0.0
 7 Br dxy             0.0       0.4       0.0       0.0       0.0       0.0

                     36        37        38        39        40        41   
                  -0.41121  -0.39013  -0.36541  -0.35685  -0.29337  -0.28684
                   2.00000   2.00000   2.00000   2.00000   2.00000   2.00000
                  --------  --------  --------  --------  --------  --------
 0 C  s               0.0       0.0       0.2       0.3       0.1       0.0
 0 C  pz              0.3       0.0      10.1       0.2       0.3       1.4
 0 C  px              0.2       0.0       0.4      11.7       0.1       0.6
 0 C  py              0.3       0.0       2.3       0.6       1.5       0.3
 0 C  dz2             0.0       0.0       1.2       0.0       0.0       0.3
 0 C  dxz             0.0       0.0       0.0       0.0       0.0       0.2
 0 C  dyz             0.1       0.0       0.4       0.0       0.1       0.0
 0 C  dx2y2           0.0       0.0       0.0       0.0       0.3       0.0
 0 C  dxy             0.0       0.0       0.1       1.2       0.0       0.1
 1 H  s               0.2       0.0       9.7       0.0       0.1       2.6
 1 H  px              0.0       0.0       0.0       0.2       0.0       0.0
 2 C  s               0.0       0.0       0.2       1.3       0.1       0.5
 2 C  pz              1.0       0.0       0.2       0.6       0.0       0.1
 2 C  px              0.0       0.0       0.7       3.5       0.2       1.4
 2 C  py              0.4       0.0       0.4       2.1       0.2       0.6
 2 C  dz2             0.6       0.0       0.1       0.1       0.0       0.0
 2 C  dxz             0.2       0.0       0.0       0.3       0.0       0.0
 2 C  dyz             0.4       0.0       0.0       0.1       0.0       0.0
 2 C  dx2y2           0.2       0.0       0.1       0.0       0.0       0.0
 2 C  dxy             0.0       0.0       0.2       0.7       0.0       0.1
 3 F  pz              6.2       0.4       0.4       0.8       0.0       0.2
 3 F  px             19.2       9.2       6.5       3.3       0.0       0.1
 3 F  py             21.4      22.6       0.3       1.4       0.1       0.3
 3 F  dz2             0.0       0.0       0.0       0.0       0.0       0.1
 3 F  dxz             0.1       0.1       0.1       0.1       0.0       0.0
 3 F  dyz             0.1       0.3       0.0       0.1       0.0       0.0
 4 F  pz              9.0      23.6       0.5       1.4       0.0       0.0
 4 F  px              0.0       0.0       0.1       5.8       0.1       0.4
 4 F  py              1.9       8.6       0.0       1.6       0.2       0.2
 4 F  dz2             0.1       0.2       0.0       0.0       0.0       0.0
 4 F  dxz             0.0       0.1       0.0       0.0       0.0       0.0
 4 F  dx2y2           0.0       0.1       0.0       0.3       0.0       0.1
 5 F  pz             21.4      19.8       0.1       0.9       0.0       0.1
 5 F  px             13.4      10.4       2.4       3.8       0.9       0.0
 5 F  py              0.1       3.6       0.3       3.1       0.0       0.2
 5 F  dz2             0.1       0.3       0.0       0.1       0.0       0.0
 5 F  dx2y2           0.0       0.0       0.0       0.1       0.1       0.1
 5 F  dxy             0.0       0.1       0.1       0.2       0.0       0.0
 6 F  s               0.0       0.0       0.0       0.0       0.2       0.0
 6 F  pz              1.3       0.0      36.9       0.4       0.0       0.5
 6 F  px              0.0       0.0       1.5      29.7       1.7       0.1
 6 F  py              1.4       0.0       7.3       1.0       1.3       0.0
 6 F  dz2             0.0       0.0       0.5       0.0       0.1       0.2
 6 F  dyz             0.0       0.0       0.2       0.0       0.0       0.0
 6 F  dx2y2           0.0       0.0       0.1       0.1       0.0       0.0
 6 F  dxy             0.0       0.0       0.0       0.6       0.2       0.1
 7 Br s               0.0       0.0       0.3       0.6       0.0       0.0
 7 Br pz              0.0       0.1       0.1       6.8      17.8      65.4
 7 Br px              0.1       0.0      15.3      10.7       5.6      15.1
 7 Br py              0.2       0.1       0.3       3.6      68.5       8.4
 7 Br dz2             0.0       0.0       0.1       0.0       0.0       0.0
 7 Br dx2y2           0.0       0.0       0.2       0.0       0.0       0.0

                     42        43        44        45        46        47   
                  -0.06211   0.01856   0.07498   0.11886   0.12200   0.14468
                   0.00000   0.00000   0.00000   0.00000   0.00000   0.00000
                  --------  --------  --------  --------  --------  --------
 0 C  s               7.2       2.7      14.5       6.9       1.7       2.7
 0 C  pz              1.5       4.8      13.4       3.0       5.7      19.1
 0 C  px             19.9       0.5       0.8      10.1      14.7       5.1
 0 C  py              4.9      26.6       0.7       0.5       1.4       2.2
 0 C  dz2             0.1       0.8       1.3       0.0       1.5       0.0
 0 C  dxz             0.2       0.2       0.1       1.0       1.4       0.4
 0 C  dyz             0.0       2.2       0.1       0.1       0.0       0.6
 0 C  dx2y2           0.3       2.6       1.1       0.1       0.1       0.1
 0 C  dxy             0.0       0.0       0.0       0.1       1.1       0.0
 1 H  s               0.1       1.3      15.5       1.1       3.6       3.0
 1 H  pz              0.1       0.1       5.4       0.2       0.8       2.3
 1 H  px              0.8       0.1       0.0       0.6       1.8       0.4
 1 H  py              0.1       1.6       0.0       0.1       0.0       0.4
 2 C  s               0.2       0.8       5.5      11.3      19.2       2.1
 2 C  pz              0.7       5.9       5.5       4.3       4.2       6.1
 2 C  px              0.7       0.2       3.2      21.9       2.2       0.9
 2 C  py              0.9       6.9       4.0       1.0       3.9      17.1
 2 C  dz2             0.2       0.7       1.1       0.4       0.2       0.5
 2 C  dxz             0.0       0.2       0.3       0.3       0.0       0.0
 2 C  dyz             0.0       0.6       0.1       0.1       0.0       0.4
 2 C  dx2y2           0.6       1.1       0.7       0.0       0.0       1.2
 2 C  dxy             0.1       0.2       0.1       0.7       0.0       0.0
 3 F  s               0.0       0.9       2.6       0.3       1.4       2.4
 3 F  pz              0.1       1.1       2.9       0.2       0.5       1.8
 3 F  px              0.1       0.2       1.2       2.3       0.1       0.2
 3 F  py              0.0       1.9       0.0       0.1       0.1       1.3
 3 F  dz2             0.1       0.0       0.2       0.6       0.2       0.2
 3 F  dxz             0.1       0.0       0.9       1.6       0.0       0.1
 3 F  dyz             0.0       1.0       0.0       0.3       0.0       1.4
 3 F  dx2y2           0.0       0.1       0.2       0.0       0.1       0.3
 3 F  dxy             0.0       0.1       0.0       0.2       0.4       0.0
 4 F  s               0.5       0.3       0.2       6.6       2.0       0.2
 4 F  pz              0.1       0.8       0.0       0.6       0.4       0.1
 4 F  px              2.0       0.6       1.7       3.2       1.7       2.1
 4 F  py              0.1       0.6       0.1       1.8       0.7       0.3
 4 F  dz2             0.1       0.0       0.6       0.0       0.3       0.0
 4 F  dxz             0.1       0.6       0.0       0.5       0.2       0.1
 4 F  dyz             0.0       0.0       0.0       0.3       0.3       0.3
 4 F  dx2y2           0.4       0.1       0.8       0.2       0.6       1.8
 4 F  dxy             0.0       0.4       0.0       0.2       0.4       0.0
 5 F  s               0.0       1.4       1.1       2.4       2.9       1.7
 5 F  pz              0.1       0.3       0.6       0.6       0.4       4.5
 5 F  px              0.0       0.7       0.7       2.4       0.0       0.0
 5 F  py              0.0       3.3       0.2       1.3       2.0       1.6
 5 F  dz2             0.0       0.3       0.3       0.0       0.3       0.0
 5 F  dxz             0.0       0.1       0.1       1.0       0.1       0.2
 5 F  dyz             0.1       0.1       0.2       0.5       0.1       1.8
 5 F  dx2y2           0.0       0.3       0.3       0.0       0.5       0.1
 5 F  dxy             0.1       0.8       0.3       0.7       0.0       0.1
 6 F  s               0.1       5.9       0.2       0.5       0.0       0.7
 6 F  pz              0.2       1.3       0.8       0.4       0.2       0.4
 6 F  px              2.0       0.0       0.0       0.2       1.0       0.0
 6 F  py              0.4       8.1       1.1       0.2       0.8       0.4
 6 F  dz2             0.2       0.0       0.3       0.2       0.0       0.6
 6 F  dxz             0.7       0.2       0.0       0.5       2.9       0.4
 6 F  dyz             0.0       0.2       3.1       0.4       0.1       1.0
 6 F  dx2y2           0.6       0.7       0.2       0.0       2.1       0.2
 6 F  dxy             1.1       0.0       0.0       0.3       0.0       0.0
 7 Br s               3.8       0.1       1.1       0.4       1.5       0.3
 7 Br pz              2.6       0.3       0.5       0.1       0.9       1.3
 7 Br px             27.6       0.0       0.1       0.6       0.1       0.9
 7 Br py              5.7       2.2       0.4       1.2       0.6       0.2
 7 Br dz2             1.6       0.2       0.1       0.6       0.8       1.6
 7 Br dxz             2.1       1.2       1.1       0.0       1.3       3.2
 7 Br dyz             0.6       0.3       0.1       0.7       3.9       0.4
 7 Br dx2y2           3.5       0.9       0.3       0.4       4.0       0.3
 7 Br dxy             4.3       2.2       2.1       1.4       0.3       0.6

                     48        49        50        51        52        53   
                   0.15018   0.17744   0.20660   0.21872   0.23952   0.24858
                   0.00000   0.00000   0.00000   0.00000   0.00000   0.00000
                  --------  --------  --------  --------  --------  --------
 0 C  s               0.4      10.1       0.6       2.0       1.4       1.5
 0 C  pz              4.0       5.4       0.4       0.6       9.8       4.9
 0 C  px              0.3      16.6       1.8       1.2       1.3       5.6
 0 C  py             16.0       0.6       0.4      13.0       8.2       2.1
 0 C  dz2             0.0       0.0       0.2       0.3       0.5       0.2
 0 C  dxz             0.5       0.1       0.0       0.0       0.0       0.0
 0 C  dyz             0.3       0.0       0.0       0.1       0.0       0.0
 0 C  dx2y2           0.1       0.0       0.0       0.3       0.0       0.0
 0 C  dxy             0.6       0.3       0.0       0.1       0.7       0.0
 1 H  s               0.5       0.6       0.3       0.7       4.2       0.7
 1 H  pz              0.3       0.5       0.1       0.1       0.6       0.3
 1 H  px              0.1       0.0       0.0       0.0       0.3       0.5
 1 H  py              0.9       0.2       0.0       0.0       0.1       0.1
 2 C  s               0.1       4.2      11.6       0.2       0.9       1.9
 2 C  pz             20.3       0.7       1.6       6.8       7.3      27.1
 2 C  px              6.1       7.8      21.5       0.3       5.6       4.6
 2 C  py              4.7       0.1       5.3      26.5       8.6       6.5
 2 C  dz2             1.3       0.1       0.1       0.0       0.3       0.3
 2 C  dxz             0.0       0.0       0.2       0.0       0.2       0.1
 2 C  dyz             0.6       0.0       0.1       0.0       0.0       0.1
 2 C  dx2y2           0.8       0.0       0.0       0.1       0.0       0.0
 2 C  dxy             0.2       0.1       1.0       0.0       0.2       0.9
 3 F  s               3.3       0.2       0.2       0.2       0.0       0.3
 3 F  pz              3.9       2.4       6.2       1.3       0.9       3.1
 3 F  px              0.9       0.8       0.7       0.0       0.1       1.2
 3 F  py              1.1       0.0       0.2       1.7       3.1       2.0
 3 F  dz2             0.4       2.4       6.7       0.1       0.6       2.3
 3 F  dxz             0.5       0.2       1.2       0.0       0.4       0.4
 3 F  dyz             1.0       0.2       0.0       0.3       0.2       0.1
 3 F  dx2y2           0.1       0.1       0.0       0.0       0.2       0.1
 3 F  dxy             0.1       0.1       0.0       0.3       0.5       0.8
 4 F  s               0.6       0.5       0.2       0.4       0.1       0.3
 4 F  pz              4.5       0.0       0.6       0.3       1.0       3.0
 4 F  px              0.7       0.1       6.3       0.1       0.9       0.1
 4 F  py              0.0       0.0       2.3       3.9       0.0       2.4
 4 F  dz2             0.0       0.0       1.1       0.1       0.0       1.3
 4 F  dxz             2.5       0.1       1.9       0.2       0.4       0.2
 4 F  dyz             0.1       0.0       1.0       0.0       0.9       1.0
 4 F  dx2y2           0.0       0.0       0.5       0.2       0.1       0.0
 4 F  dxy             0.2       0.2       5.8       0.1       0.1       0.4
 5 F  s               0.8       0.1       0.4       1.1       0.1       0.1
 5 F  pz              0.2       0.3       1.2       0.7       0.1       3.0
 5 F  px              0.2       0.8       0.5       0.3       0.3       1.0
 5 F  py              3.3       1.0       4.6       4.6       2.4       0.3
 5 F  dz2             0.4       0.0       0.0       0.1       0.4       0.4
 5 F  dxz             1.0       0.1       0.6       0.0       0.1       2.0
 5 F  dyz             0.0       0.8       4.2       0.4       0.2       0.1
 5 F  dx2y2           2.0       1.1       2.3       0.9       1.3       0.2
 5 F  dxy             0.0       0.0       1.5       0.0       0.1       0.1
 6 F  s               1.1       1.1       0.1       0.4       0.0       0.0
 6 F  pz              1.7       1.2       0.0       0.3       7.1       0.4
 6 F  px              1.8       0.5       0.4       1.4       0.2       0.1
 6 F  py              1.0       0.3       0.2       4.5       0.7       0.2
 6 F  dz2             0.1       0.0       0.0       0.8       0.0       0.0
 6 F  dxz             0.0       0.4       0.1       0.0       0.0       0.0
 6 F  dyz             0.0       0.1       0.0       0.9       0.2       0.1
 6 F  dx2y2           0.0       0.1       0.4       2.1       0.0       1.8
 6 F  dxy             1.0       0.2       0.0       0.1       1.2       0.2
 7 Br s               0.1       9.4       0.2       0.1       0.2       0.3
 7 Br pz              0.6       0.6       1.0       5.1       5.4       3.0
 7 Br px              0.1      24.0       1.4       0.5       0.6       3.6
 7 Br py              0.5       0.7       0.0      10.4       1.3       4.8
 7 Br dz2             2.1       0.1       0.0       0.4       2.0       0.7
 7 Br dxz             1.5       0.7       0.4       0.5       5.1       0.5
 7 Br dyz             0.2       1.2       0.3       0.4       4.3       0.4
 7 Br dx2y2           1.5       0.0       0.0       1.7       0.7       0.7
 7 Br dxy             0.7       0.6       0.1       0.3       6.2       0.1

                     54        55        56        57        58        59   
                   0.25851   0.26448   0.28279   0.28576   0.29986   0.32572
                   0.00000   0.00000   0.00000   0.00000   0.00000   0.00000
                  --------  --------  --------  --------  --------  --------
 0 C  s               7.0       0.4       0.3       1.3       4.0       9.8
 0 C  pz              0.6       2.2       5.0       0.1       8.8       0.8
 0 C  px              9.2       1.0       1.3       2.9       1.3      12.3
 0 C  py              0.4       0.6       2.1       2.9      24.1       9.8
 0 C  dz2             0.0       0.0       0.5       0.0       0.0       0.5
 0 C  dxz             0.2       0.0       0.1       0.0       0.0       0.1
 0 C  dyz             0.0       0.0       0.0       0.5       0.3       0.0
 0 C  dx2y2           0.0       0.2       0.0       0.1       0.5       0.0
 0 C  dxy             0.0       0.0       0.1       0.0       0.0       0.1
 1 H  s               1.8       0.6       1.4       2.4       0.9       3.9
 1 H  pz              0.3       0.2       0.4       0.5       0.0       0.7
 1 H  px              0.1       0.1       0.0       0.0       0.0       0.0
 1 H  py              0.1       0.0       0.0       0.5       0.0       0.0
 2 C  s               3.8       2.7       0.2       4.3       3.5       2.1
 2 C  pz              6.7       4.2       3.4       0.9       0.2       1.2
 2 C  px             10.3       1.0       2.0       7.1       0.1       5.9
 2 C  py              4.3       0.5       1.9       3.3       8.6       1.4
 2 C  dz2             0.5       0.0       0.1       0.1       0.0       0.2
 2 C  dxz             0.0       0.0       0.0       0.2       0.2       0.2
 2 C  dyz             0.3       0.1       0.0       0.0       0.4       0.1
 2 C  dxy             0.0       0.0       0.0       0.3       0.0       0.3
 3 F  s               0.6       0.1       0.1       0.1       0.0       0.1
 3 F  pz              1.8       1.1       0.2       0.5       0.5       0.2
 3 F  px              1.8       0.2       2.9       0.7       0.1       0.1
 3 F  py              0.3       0.6       0.1       0.7       0.3       0.3
 3 F  dz2             1.6       0.0       0.4       0.5       0.1       0.0
 3 F  dxz             0.0       0.1       0.3       0.5       0.3       0.1
 3 F  dyz             0.2       0.0       0.0       0.2       0.8       0.1
 3 F  dx2y2           0.5       0.1       0.0       0.2       0.2       0.5
 3 F  dxy             2.7       0.0       0.3       0.8       2.1       0.4
 4 F  s               0.3       0.6       0.0       0.0       0.1       0.3
 4 F  pz              0.0       0.2       0.8       0.0       0.2       0.1
 4 F  px              2.9       0.6       0.3       0.0       0.7       4.0
 4 F  py              0.4       0.0       1.3       1.2       0.6       0.7
 4 F  dz2             0.2       0.1       0.0       0.4       1.2       0.8
 4 F  dxz             0.0       0.4       0.1       0.2       1.1       0.1
 4 F  dyz             0.7       0.7       0.5       0.5       0.8       0.9
 4 F  dx2y2           1.1       0.0       0.4       0.7       0.2       0.1
 4 F  dxy             1.1       0.0       0.5       0.1       0.1       0.1
 5 F  s               0.0       0.1       0.3       0.2       0.1       0.4
 5 F  pz              0.8       0.9       1.1       1.2       0.8       0.0
 5 F  px              1.5       0.2       0.2       2.7       0.2       3.7
 5 F  py              0.3       0.1       0.0       0.4       0.7       0.6
 5 F  dz2             0.1       0.0       0.1       0.2       0.6       0.0
 5 F  dxz             2.0       0.3       0.4       0.0       0.2       1.9
 5 F  dyz             1.6       0.1       0.7       0.2       0.1       0.2
 5 F  dx2y2           0.4       0.4       0.1       0.9       0.1       0.0
 5 F  dxy             0.7       0.0       0.0       0.9       0.3       0.5
 6 F  s               1.4       0.0       0.2       0.6       0.2       2.2
 6 F  pz              0.1       0.1       3.6       0.8       1.0       0.4
 6 F  px              0.6       0.4       2.5       0.1       1.6       1.8
 6 F  py              0.8       0.3       0.5       0.3       6.3       2.3
 6 F  dz2             0.1       0.1       0.0       0.2       1.7       0.5
 6 F  dxz             1.0       0.9       0.0       0.6       1.5       0.9
 6 F  dyz             0.0       0.0       0.1       0.5       4.4       0.1
 6 F  dx2y2           0.0       0.6       0.3       0.2       2.3       0.0
 6 F  dxy             0.1       0.2       0.0       0.1       0.3       1.0
 7 Br s               0.1       0.0       0.2       0.3       0.1       0.2
 7 Br pz              0.3      36.1      27.7       4.4       0.1       5.4
 7 Br px              0.9       1.5       9.6      41.3       0.7       2.3
 7 Br py              4.0      29.9      24.5       5.6       1.5       1.6
 7 Br dz2             6.5       3.5       0.1       0.1       2.4       2.2
 7 Br dxz             6.6       2.1       0.0       0.0       0.4       3.8
 7 Br dyz             1.9       0.1       0.4       0.3       5.9       6.7
 7 Br dx2y2           4.5       0.9       0.0       3.3       1.7       2.2
 7 Br dxy             1.4       2.7       0.5       0.1       2.5       0.8

                     60        61        62        63        64        65   
                   0.41159   0.42944   0.44607   0.49543   0.50027   0.53234
                   0.00000   0.00000   0.00000   0.00000   0.00000   0.00000
                  --------  --------  --------  --------  --------  --------
 0 C  s               0.6       0.0       1.0       1.5       0.5       0.4
 0 C  pz              1.2       0.8       2.0       0.3       0.6       1.6
 0 C  px              0.2       1.0       0.3       1.8       0.1       0.3
[...]
 5 F  py              3.8       1.3       0.4       0.2       4.7       4.0
 5 F  dz2             2.0       2.0       0.6       7.7       0.8       0.0
 5 F  dxz             0.4       0.4       0.7       0.0       0.0       0.0
 5 F  dyz             0.2       0.2       0.0       5.6       0.7       0.3
 5 F  dx2y2           1.8       2.2       0.0       0.9       2.2       0.0
 5 F  dxy            12.2       3.7      10.8       0.1       0.2       0.7
 6 F  s               0.1       4.9       0.3       0.5      34.9       0.1
 6 F  pz              0.0       1.0       2.6       0.0       3.1       0.0
 6 F  px              3.9       4.5       3.4       5.0       0.0       0.9
 6 F  py              0.0       1.6       2.2       0.0       9.1       0.1
 6 F  dz2             0.0       3.3       0.4       0.3       0.6       0.1
 6 F  dxz             0.3       1.4       0.2       0.4       0.1       0.0
 6 F  dyz             0.0       0.8       6.4       0.0       4.2       0.2
 6 F  dx2y2           0.0       0.0       0.1       3.2       2.8       0.5
 6 F  dxy             5.8       8.2       4.8       5.7       0.0       1.0
 7 Br s               0.0       0.0       0.0       0.1       0.0       0.0
 7 Br px              0.0       0.0       0.0       0.1       0.0       0.0
 7 Br dz2             0.0       0.2       0.0       0.1       0.0       0.0
 7 Br dxz             0.0       0.0       0.2       0.0       0.1       0.0
 7 Br dx2y2           0.3       0.0       0.0       0.1       0.0       0.0
 7 Br dxy             0.4       0.0       0.0       0.2       0.0       0.0

                    162       163       164       165       166       167   
                   4.11346   4.14046   4.40904   4.49903   4.73716   4.76775
                   0.00000   0.00000   0.00000   0.00000   0.00000   0.00000
                  --------  --------  --------  --------  --------  --------
 0 C  s               0.0       0.3       0.9       0.1       0.0       0.0
 0 C  pz              0.0       0.3       1.2       0.3       0.1       0.0
 0 C  px              0.0       0.0       0.1       0.1       0.1       0.0
 0 C  py              0.0       0.9       0.8       2.4       0.0       0.2
 0 C  dz2             0.0       0.2       1.2       0.3       0.1       0.0
 0 C  dxz             0.0       0.0       0.2       0.0       0.0       0.0
 0 C  dyz             0.0       0.3       0.9       1.7       0.0       0.0
 0 C  dx2y2           0.0       0.7       1.2       1.9       0.1       0.1
 0 C  dxy             0.0       0.1       0.0       0.5       0.0       0.1
 1 H  s               0.0       0.1       0.4       0.1       0.0       0.0
 1 H  pz              0.0       0.1       0.3       0.0       0.0       0.0
 1 H  py              0.0       0.1       0.2       0.2       0.0       0.0
 2 C  s               0.4       0.1       1.5       0.7       0.0       0.0
 2 C  pz              1.7       0.6       0.1       0.3       5.0       2.4
 2 C  px              0.3       0.0       1.1       1.4       1.9       1.2
 2 C  py              0.8       1.4       0.7       0.5       0.7       4.5
 2 C  dz2             2.5       0.3       0.2       0.0       6.1       1.0
 2 C  dxz             0.1       0.0       0.2       0.2       0.6       0.1
 2 C  dyz             0.0       0.6       0.0       0.4       0.1       2.6
 2 C  dx2y2           0.5       0.8       0.0       0.2       1.0       4.2
 2 C  dxy             0.2       0.0       0.5       0.6       0.9       0.5
 3 F  s              43.0      10.7      11.0       6.7      18.8       5.1
 3 F  pz             13.2       1.1       4.7       2.4      14.7       4.2
 3 F  px              0.2       0.0       0.0       0.1       0.1       0.2
 3 F  py              0.1       0.2       0.1       0.3       0.0       0.9
 3 F  dz2             5.2       0.4       1.9       0.3      10.4       2.5
 3 F  dxz             0.0       0.0       0.1       0.0       0.0       0.1
 3 F  dyz             0.1       0.5       0.1       0.2       0.1       0.7
 3 F  dx2y2           0.0       0.0       0.0       0.1       0.1       0.2
 3 F  dxy             0.0       0.0       0.3       0.0       0.0       0.0
 4 F  s              20.2       5.3       7.4       9.4      15.6       7.4
 4 F  pz              0.0       0.1       0.3       0.7       0.2       1.6
 4 F  px              2.2       0.6       3.7       2.4       9.6       4.8
 4 F  py              0.0       0.0       2.1       0.4       2.8       0.2
 4 F  dz2             0.8       0.0       0.1       0.1       2.4       0.1
 4 F  dxz             0.2       0.2       0.2       0.6       1.2       0.9
 4 F  dyz             0.1       0.1       0.0       0.0       0.2       0.7
 4 F  dx2y2           1.0       0.3       0.1       0.2       1.4       1.7
 4 F  dxy             0.4       0.1       2.1       0.2       3.9       1.0
 5 F  s               2.2      35.0      11.0      11.4       0.0      20.6
 5 F  pz              0.2       1.9       1.1       0.9       0.4       3.1
 5 F  px              0.5       0.0       0.1       0.1       0.3       0.0
 5 F  py              1.6       6.1       3.8       2.5       0.2      14.4
 5 F  dz2             0.0       0.1       0.0       0.0       0.6       0.5
 5 F  dyz             0.1       1.6       0.3       1.1       0.0       5.5
 5 F  dx2y2           0.4       0.9       0.6       0.9       0.0       5.7
 5 F  dxy             0.1       0.0       0.2       0.2       0.2       0.1
 6 F  s               0.1      17.8      18.2      24.7       0.1       0.3
 6 F  pz              0.1       1.8       1.4       1.7       0.0       0.0
 6 F  px              0.1       0.1       0.0       0.0       0.0       0.1
 6 F  py              0.1       5.3      10.0      10.5       0.1       0.0
 6 F  dz2             0.1       0.1       0.6       1.0       0.0       0.0
 6 F  dyz             0.3       1.4       3.3       3.4       0.0       0.1
 6 F  dx2y2           0.1       1.1       3.5       5.3       0.0       0.0
 6 F  dxy             0.0       0.0       0.0       0.1       0.0       0.3

                    168       169       170       171       172       173   
                   7.39120  21.80006  22.01806  57.08728  57.19092  57.20617
                   0.00000   0.00000   0.00000   0.00000   0.00000   0.00000
                  --------  --------  --------  --------  --------  --------
 0 C  s               0.4      91.9       7.6       0.0       0.0       0.0
 2 C  s               0.0       7.5      91.9       0.0       0.0       0.0
 3 F  s               0.0       0.0       0.1       0.6       0.0      58.9
 4 F  s               0.0       0.0       0.1       1.6      98.3       0.0
 5 F  s               0.0       0.0       0.1      11.0       0.4      33.7
 6 F  s               0.0       0.1       0.0      86.7       1.2       7.3
 7 Br s              99.2       0.0       0.0       0.0       0.0       0.0

                    174   
                  57.23647
                   0.00000
                  --------
 3 F  s              40.4
 5 F  s              54.8
 6 F  s               4.6


                      *****************************
                      * MAYER POPULATION ANALYSIS *
                      *****************************

  NA   - Mulliken gross atomic population
  ZA   - Total nuclear charge
  QA   - Mulliken gross atomic charge
  VA   - Mayer's total valence
  BVA  - Mayer's bonded valence
  FA   - Mayer's free valence

  ATOM       NA         ZA         QA         VA         BVA        FA
  0 C      5.8957     6.0000     0.1043     3.8980     3.8980     0.0000
  1 H      0.8199     1.0000     0.1801     0.9436     0.9436     0.0000
  2 C      5.4638     6.0000     0.5362     4.1090     4.1090     0.0000
  3 F      9.1862     9.0000    -0.1862     1.0162     1.0162     0.0000
  4 F      9.1916     9.0000    -0.1916     0.9998     0.9998    -0.0000
  5 F      9.1960     9.0000    -0.1960     1.0024     1.0024     0.0000
  6 F      9.1753     9.0000    -0.1753     0.9327     0.9327     0.0000
  7 Br    35.0715    35.0000    -0.0715     1.1472     1.1472    -0.0000

  Mayer bond orders larger than 0.100000
B(  0-C ,  1-H ) :   0.9298 B(  0-C ,  2-C ) :   0.9637 B(  0-C ,  6-F ) :   0.9224 
B(  0-C ,  7-Br) :   1.0711 B(  2-C ,  3-F ) :   1.0475 B(  2-C ,  4-F ) :   1.0252 
B(  2-C ,  5-F ) :   1.0242 

-------
TIMINGS
-------

Total SCF time: 0 days 0 hours 0 min 13 sec 

Total time                  ....      13.722 sec
Sum of individual times     ....      13.687 sec  ( 99.7%)

SCF preparation             ....       0.665 sec  (  4.8%)
Fock matrix formation       ....       8.187 sec  ( 59.7%)
  Startup                   ....       0.008 sec  (  0.1% of F)
  Split-RI-J                ....       1.536 sec  ( 18.8% of F)
  XC integration            ....       6.532 sec  ( 79.8% of F)
    XC Preparation          ....       0.000 sec  (  0.0% of XC)
    Basis function eval.    ....       1.038 sec  ( 15.9% of XC)
    Density eval.           ....       2.022 sec  ( 31.0% of XC)
    XC-Functional eval.     ....       0.806 sec  ( 12.3% of XC)
    XC-Potential eval.      ....       2.231 sec  ( 34.2% of XC)
Diagonalization             ....       0.000 sec  (  0.0%)
Density matrix formation    ....       0.043 sec  (  0.3%)
Total Energy calculation    ....       0.002 sec  (  0.0%)
Population analysis         ....       4.445 sec  ( 32.4%)
Orbital Transformation      ....       0.015 sec  (  0.1%)
Orbital Orthonormalization  ....       0.000 sec  (  0.0%)
DIIS solution               ....       0.106 sec  (  0.8%)
  MO trafo                  ....       0.000 sec  (  0.0 % of DIIS)
  Orb grad                  ....       0.000 sec  (  0.0 % of DIIS)
  Energy W gradient         ....       0.000 sec  (  0.0 % of DIIS)
  DIIS error                ....       0.006 sec  (  5.9 % of DIIS)
  DIIS work                 ....       0.090 sec  ( 85.1 % of DIIS)
  Form Q                    ....       0.000 sec  (  0.0 % of DIIS)
  Form QpQm                 ....       0.000 sec  (  0.0 % of DIIS)
  Exp/Cayley                ....       0.000 sec  (  0.0 % of DIIS)
  Orb update                ....       0.000 sec  (  0.0 % of DIIS)
  Wake-sleep                ....       0.001 sec  (  1.3 % of DIIS)
SOSCF solution              ....       0.223 sec  (  1.6%)
  MO trafo                  ....       0.219 sec  ( 98.5 % of SOSCF)
  Orb grad                  ....       0.000 sec  (  0.0 % of SOSCF)
  Rot update                ....       0.000 sec  (  0.0 % of SOSCF)
  Step                      ....       0.003 sec  (  1.4 % of SOSCF)
Finished LeanSCF after  17.6 sec

Maximum memory used throughout the entire LEANSCF-calculation: 17.7 MB


-------------------------------------------------------------------------------
                          DFT DISPERSION CORRECTION                            
                                                                               
                                DFTD4 V3.4.0                                   
-------------------------------------------------------------------------------
The R2SCAN3C composite method is recognized
Using three-body term ABC
Active option DFTDOPT                   ...         5   

-------------------------   ----------------
Dispersion correction           -0.001903630
-------------------------   ----------------

------------------   -----------------
gCP correction             0.010822062
------------------   -----------------

-------------------------   --------------------
FINAL SINGLE POINT ENERGY     -3050.310566737509
-------------------------   --------------------


------------------------------------------------------------------------------
                              ORCA PROPERTY CALCULATIONS
------------------------------------------------------------------------------

GBWName                                 ... sp.gbw
Number of atoms                         ...      8
Number of basis functions               ...    175
Max core memory                         ...   1024 MB

Electric properties:
Dipole moment                           ... YES
Quadrupole moment                       ...  NO
Static polarizability (Dipole/Dipole)   ...  NO
Static polarizability (Dipole/Quad.)    ...  NO
Static polarizability (Quad./Quad.)     ...  NO
Static polarizability (Velocity)        ...  NO

Atomic electric properties:
Dipole moment                           ...  NO
Quadrupole moment                       ...  NO
Static polarizability                   ...  NO

Choice of electric origin               ... Center of mass
Position of electric origin             ...     0.000041     0.000006    -0.000004

General magnetic properties:
Magnetizability                         ...  NO

EPR properties:
g-Tensor (aka g-matrix)                 ...  NO
Zero-Field splitting spin-orbit         ...  NO
Zero-field splitting spin-spin          ...  NO
Hyperfine couplings                     ...  NO (   0 nuclei)
Quadrupole couplings                    ...  NO (   0 nuclei)
Contact density                         ...  NO (   0 nuclei)

NMR properties:
Chemical shifts                         ...  NO (   0 nuclei)
Spin-rotation constants                 ...  NO (   0 nuclei)
Spin-spin couplings                     ...  NO (   0 nuclei,    0 pairs)

Choice of magnetic origin               ... GIAO
Position of magnetic origin             ...     0.000000     0.000000     0.000000

Properties with geometric perturbations:
SCF Hessian                             ...  NO
IR spectrum                             ...  NO
VCD spectrum                            ...  NO
X-ray spectroscopy properties:
SCF XES/XAS/RIXS spectra                ...  NO


-------------
DIPOLE MOMENT
-------------

Method             : SCF
Type of density    : Electron Density
Multiplicity       :   1
Irrep              :   0
Energy             : -3050.3194851689340794 Eh
Relativity type    : 
Basis              : AO
                                X                 Y                 Z
Electronic contribution:     -9.309623869      -1.848389712       1.404575002
Nuclear contribution   :      9.188069126       1.937040242      -1.911721697
                        -----------------------------------------
Total Dipole Moment    :     -0.121554744       0.088650530      -0.507146695
                        -----------------------------------------
Magnitude (a.u.)       :      0.528991722
Magnitude (Debye)      :      1.344590102



--------------------
Rotational spectrum 
--------------------
 
Rotational constants in cm-1:             0.101625             0.038803             0.033259 
Rotational constants in MHz :          3046.632485          1163.297900           997.088725 

Dipole components along the rotational axes: 
x,y,z [a.u.] :    -0.121555     0.088652    -0.507146 
x,y,z [Debye]:    -0.308968     0.225335    -1.289064 

 

Dipole moment calculation done in   1.3 sec 

Maximum memory used throughout the entire PROP-calculation: 11.4 MB

--------------------------------
SUGGESTED CITATIONS FOR THIS RUN
--------------------------------

Below you find a list of papers that are relevant to this ORCA run
We neither can nor want to force you to cite these papers, but we appreciate if you do
You receive ORCA, which is the product of decades of hard work by many enthusiastic individuals, for free
The only thing we kindly ask in return is that you cite our papers,
We deeply appreciate it, if you show your appreciation for ORCA by not just citing the generic ORCA reference.

Please note that relegating all ORCA citations to the supporting information does *not* help us.
SI sections are not indexed - citations you put there will not count into any citation statistics
But we need these citations in order to attract the funding resources that allow us to do what we are doing

Therefore, if you are a happy ORCA user, please consider citing a few of the papers listed below in the main body of your paper

In addition to the list printed below, the program has created the file sp.bibtex that contains the list in bibtex format
You can import this file easily into all common literature databanks and citation aid programs


List of essential papers. We consider these as the minimum necessary citations

  1. Neese,F.
     Software update: the ORCA program system, version 5.0
     WIRES Comput. Molec. Sci., 2022 12(1)e1606
     doi.org/10.1002/wcms.1606
  2. Grimme,S.; Hansen,A.; Ehlert,S.; Mewes,J.
     r2SCAN-3c: A 'Swiss army knife' composite electronic-structure method
     J. Chem. Phys., 2021 154 064103
     doi.org/10.1063/5.0040021

List of papers to cite with high priority. The work reported in these papers was absolutely
necessary for this run to complete.
Our perspective: the developers of density functionals and basis sets usually get cited in chemistry papers
Good! But without the algorithms to do something with them, the functionals or basis sets would not do anything.
Hence, in our opinion, the algorithm design and method developments papers are equally worthy of getting cited

  1. Neese,F.
     An improvement of the resolution of the identity approximation for the formation of the Coulomb matrix
     J. Comp. Chem., 2003 24(14)1740-1747
     doi.org/10.1002/jcc.10318
  2. Neese,F.
     The SHARK Integral Generation and Digestion System
     J. Comp. Chem., 2022  1-16
     doi.org/10.1002/jcc.26942
  3. Lehtola,S.; Steigemann,C.; Oliveira,M.; Marques,M.
     Recent developments in Libxc - A comprehensive library of functionals for density functional theory
     Software X, 2018 7 
     doi.org/10.1016/j.softx.2017.11.002
  4. Caldeweyher,E.; Bannwarth,C.; Grimme,S.
     Extension of the D3 dispersion coefficient model
     J. Chem. Phys., 2017 147 034112
     doi.org/10.1063/1.4993215
  5. Caldeweyher,E.; Ehlert,S.; Hansen,A.; Neugebauer,H.; Spicher,S.; Bannwarth,C.; Grimme,S.
     A generally applicable atomic-charge dependent London dispersion correction
     J. Chem. Phys., 2019 150 154122
     doi.org/10.1063/1.5090222
  6. Caldeweyher,E.; Mewes,J.; Ehlert,S.; Grimme,S.
     Extension and evaluation of the D4 London-dispersion model for periodic systems
     Phys. Chem. Chem. Phys., 2020 22(16)8499-8512
     doi.org/10.1039/D0CP00502A
  7. Wittmann,L.; Gordiy,I.; Friede,M.; Helmich-Paris,B.; Grimme,S.; Hansen,A.; Bursch,M.
     Extension of the D3 and D4 London Dispersion Corrections to the full Actinides Series
     Phys. Chem. Chem. Phys., 2024 26(32)21379-21394
     doi.org/https://doi.org/10.1039/D4CP01514B 

List of suggested additional citations. These are papers that are important in the 'surrounding' of 
of this run, or papers that preceded the highly important papers. If you like your results we are grateful for a citation.

  1. Neese,F.
     The ORCA program system
     WIRES Comput. Molec. Sci., 2012 2(1)73-78
     doi.org/10.1002/wcms.81
  2. Neese,F.
     Software update: the ORCA program system, version 4.0
     WIRES Comput. Molec. Sci., 2018 8(1)1-6
     doi.org/10.1002/wcms.1327
  3. Neese,F.; Wennmohs,F.; Becker,U.; Riplinger,C.
     The ORCA quantum chemistry program package
     J. Chem. Phys., 2020 152 Art. No. L224108
     doi.org/10.1063/5.0004608

List of optional additional citations

  1. Neese,F.
     Approximate second-order SCF convergence for spin unrestricted wavefunctions
     Chem. Phys. Lett., 2000 325(1-3)93-98
     doi.org/10.1016/s0009-2614(00)00662-x

Timings for individual modules:

Sum of individual times          ...       19.546 sec (=   0.326 min)
Startup calculation              ...        0.535 sec (=   0.009 min)   2.7 %
SCF iterations                   ...       17.701 sec (=   0.295 min)  90.6 %
Property calculations            ...        1.310 sec (=   0.022 min)   6.7 %
                             ****ORCA TERMINATED NORMALLY****
TOTAL RUN TIME: 0 days 0 hours 0 minutes 23 seconds 424 msec
