 Entering Gaussian System
 *********************************************
 Gaussian 98:
 frequency output generated by the xtb code
 *********************************************
                         Standard orientation:
 --------------------------------------------------------------------
  Center     Atomic     Atomic              Coordinates (Angstroms)
  Number     Number      Type              X           Y           Z
 --------------------------------------------------------------------
    1          6             0       -2.398172    0.655788   -0.410015
    2          6             0       -1.759304   -0.344526    0.546528
    3          6             0       -0.439926   -0.962510    0.071785
    4          6             0        0.813776   -0.065922   -0.017898
    5          6             0        0.842941    0.738473   -1.320299
    6          6             0        0.913549    0.884817    1.176123
    7          6             0        2.039390   -0.989991   -0.010299
    8          1             0       -1.861334    1.600284   -0.418088
    9          1             0       -2.419083    0.258773   -1.422478
   10          1             0       -3.422146    0.860464   -0.102535
   11          1             0       -1.621154    0.123019    1.522232
   12          1             0       -2.460364   -1.172672    0.685710
   13          1             0       -0.603985   -1.419742   -0.907327
   14          1             0       -0.210576   -1.773031    0.769403
   15          1             0        0.775565    0.074833   -2.179820
   16          1             0        0.024645    1.448460   -1.371882
   17          1             0        1.775923    1.294376   -1.393548
   18          1             0        1.870698    1.402266    1.160415
   19          1             0        0.839927    0.334172    2.111539
   20          1             0        0.126664    1.633721    1.149701
   21          1             0        1.976304   -1.714756   -0.819338
   22          1             0        2.953374   -0.414084   -0.138989
   23          1             0        2.108994   -1.532076    0.930497
 --------------------------------------------------------------------
     1 basis functions        1 primitive gaussians
     1 alpha electrons        1 beta electrons
 
 Harmonic frequencies (cm**-1), IR intensities (km*mol⁻¹),
 Raman scattering activities (A**4/amu), Raman depolarization ratios,
 reduced masses (AMU), force constants (mDyne/A) and normal coordinates:
                      1                      2                      3
                        a                      a                      a 
 Frequencies --    57.6986               125.1531               187.0321
 Red. masses --     7.7754                 6.1988                 1.6336
 Frc consts  --     0.0000                 0.0000                 0.0000
 IR Inten    --     0.0111                 0.0405                 0.2046
 Raman Activ --     0.0000                 0.0000                 0.0000
 Depolar     --     0.0000                 0.0000                 0.0000
 Atom AN      X      Y      Z        X      Y      Z        X      Y      Z
   1   6     0.13   0.27   0.40    -0.41  -0.22   0.08    -0.02  -0.04   0.07
   2   6     0.02  -0.20  -0.02     0.06   0.12   0.10     0.01  -0.06   0.02
   3   6    -0.00  -0.08  -0.24    -0.04   0.15  -0.24    -0.01  -0.00  -0.09
   4   6    -0.03  -0.02  -0.08     0.07   0.02  -0.04    -0.01   0.02  -0.02
   5   6     0.13  -0.17  -0.17     0.32   0.08  -0.00     0.11   0.01  -0.03
   6   6    -0.29   0.11  -0.16     0.04  -0.01  -0.01    -0.07   0.07  -0.06
   7   6     0.04   0.07   0.23    -0.03  -0.11   0.10    -0.02   0.01   0.10
   8   1     0.09   0.05   0.21    -0.07  -0.09  -0.22     0.11  -0.08  -0.12
   9   1    -0.01   0.19   0.07    -0.34  -0.20   0.08    -0.18  -0.08   0.05
  10   1     0.05   0.10   0.16    -0.05   0.03   0.20     0.06   0.13   0.14
  11   1     0.01  -0.18   0.05     0.11   0.11  -0.02     0.02  -0.03   0.01
  12   1    -0.01  -0.06  -0.11     0.06   0.02   0.16     0.00  -0.02   0.01
  13   1    -0.01   0.05  -0.10    -0.05   0.14  -0.11    -0.01   0.02  -0.03
  14   1     0.01  -0.07  -0.13    -0.02  -0.03  -0.15     0.00  -0.02  -0.05
  15   1     0.18  -0.09  -0.03     0.25   0.02  -0.01    -0.40   0.05  -0.01
  16   1    -0.03  -0.13  -0.15     0.02  -0.06  -0.08     0.29   0.32   0.17
  17   1    -0.01   0.04   0.02     0.04   0.12   0.11     0.23  -0.35  -0.20
  18   1    -0.09   0.05  -0.02     0.05  -0.08   0.06    -0.08   0.13  -0.09
  19   1    -0.11   0.06  -0.03    -0.09   0.00  -0.01     0.11   0.01  -0.01
  20   1    -0.10   0.01  -0.10     0.07   0.06  -0.06    -0.11  -0.07   0.04
  21   1     0.06  -0.02   0.10    -0.02  -0.06   0.05     0.12   0.14  -0.10
  22   1     0.00   0.04   0.08     0.01  -0.07   0.02     0.02   0.02   0.27
  23   1    -0.01   0.07   0.10    -0.04  -0.01   0.05    -0.15  -0.15  -0.05
                      4                      5                      6
                        a                      a                      a 
 Frequencies --   239.2485               242.8751               260.1131
 Red. masses --     5.4685                 1.9942                 2.0380
 Frc consts  --     0.0000                 0.0000                 0.0000
 IR Inten    --     0.0923                 0.1839                 0.0525
 Raman Activ --     0.0000                 0.0000                 0.0000
 Depolar     --     0.0000                 0.0000                 0.0000
 Atom AN      X      Y      Z        X      Y      Z        X      Y      Z
   1   6     0.26   0.04  -0.07    -0.07   0.06  -0.03    -0.00  -0.11   0.06
   2   6     0.17   0.16   0.11     0.01   0.15   0.02     0.09   0.04   0.16
   3   6    -0.00  -0.13   0.04    -0.03  -0.00   0.05    -0.01   0.04  -0.06
   4   6    -0.08  -0.06  -0.04     0.02  -0.07   0.02     0.00   0.01  -0.06
   5   6    -0.15  -0.05  -0.03    -0.05  -0.14  -0.02     0.06   0.04  -0.04
   6   6    -0.32  -0.19   0.09     0.01  -0.07   0.01    -0.07   0.06  -0.09
   7   6     0.11   0.20  -0.11     0.12   0.07  -0.04    -0.07  -0.07   0.03
   8   1     0.22  -0.07  -0.23    -0.05   0.04  -0.02    -0.22   0.10   0.25
   9   1    -0.13  -0.13   0.04    -0.01   0.01  -0.01     0.33   0.08  -0.03
  10   1     0.15   0.22   0.09    -0.03  -0.01  -0.01    -0.12  -0.31  -0.21
  11   1     0.11   0.12  -0.01     0.02   0.07  -0.01     0.06   0.04   0.02
  12   1     0.00   0.10   0.13    -0.00   0.05   0.04     0.04   0.01   0.10
  13   1    -0.04  -0.05   0.02    -0.02  -0.01   0.02    -0.04   0.05  -0.03
  14   1     0.01  -0.03   0.02    -0.03   0.01   0.03     0.01  -0.02  -0.06
  15   1    -0.05  -0.02  -0.00     0.22  -0.08   0.00    -0.09   0.04  -0.02
  16   1    -0.03  -0.01  -0.02    -0.16  -0.21  -0.12     0.08   0.09   0.05
  17   1    -0.04  -0.02  -0.02    -0.12   0.15   0.08     0.07  -0.08  -0.05
  18   1    -0.00  -0.22   0.24    -0.07   0.10  -0.08     0.11  -0.21   0.16
  19   1    -0.37  -0.07  -0.00     0.16  -0.05   0.00    -0.35   0.07  -0.02
  20   1     0.04   0.08  -0.11    -0.09  -0.12   0.09     0.16   0.20  -0.22
  21   1     0.08   0.07  -0.05     0.27   0.31  -0.29     0.07   0.10  -0.10
  22   1    -0.01   0.12  -0.02     0.04   0.11   0.43     0.01  -0.03   0.21
  23   1     0.07   0.04  -0.04    -0.17  -0.32  -0.19    -0.15  -0.16  -0.06
                      7                      8                      9
                        a                      a                      a 
 Frequencies --   287.3998               295.5441               339.2507
 Red. masses --     7.7138                 4.6515                 7.5679
 Frc consts  --     0.0000                 0.0000                 0.0000
 IR Inten    --     0.2419                 0.0510                 0.1466
 Raman Activ --     0.0000                 0.0000                 0.0000
 Depolar     --     0.0000                 0.0000                 0.0000
 Atom AN      X      Y      Z        X      Y      Z        X      Y      Z
   1   6     0.38  -0.18  -0.04     0.05  -0.03  -0.03    -0.22   0.05   0.07
   2   6     0.02  -0.10   0.25     0.22   0.27   0.19    -0.15   0.05   0.04
   3   6    -0.05  -0.03   0.10    -0.06  -0.01  -0.20     0.02   0.10   0.27
   4   6    -0.14   0.08  -0.04    -0.01  -0.10  -0.07     0.07   0.02  -0.05
   5   6     0.21   0.22   0.04    -0.04  -0.00  -0.01     0.44  -0.11  -0.12
   6   6    -0.17   0.16  -0.10    -0.22  -0.19   0.01    -0.28  -0.12   0.08
   7   6    -0.33  -0.15  -0.17     0.08   0.03   0.11     0.13   0.07  -0.29
   8   1     0.19  -0.10  -0.05    -0.14   0.08   0.05    -0.11   0.04   0.08
   9   1     0.14  -0.13   0.02     0.20  -0.01  -0.01     0.01   0.05   0.00
  10   1     0.11   0.06  -0.08    -0.06  -0.18  -0.14    -0.09  -0.06  -0.02
  11   1     0.01  -0.01   0.06     0.18   0.16  -0.01    -0.12  -0.01   0.03
  12   1    -0.01  -0.01   0.08     0.05   0.12   0.21    -0.01  -0.02  -0.04
  13   1    -0.04   0.00   0.03    -0.10   0.10  -0.09     0.01  -0.11   0.14
  14   1     0.04  -0.01   0.01    -0.03  -0.08  -0.14     0.02   0.13   0.19
  15   1     0.23   0.09  -0.02    -0.07   0.02  -0.02     0.11  -0.06  -0.01
  16   1     0.03   0.02  -0.09     0.01   0.03   0.05     0.19   0.05  -0.10
  17   1     0.04   0.12   0.17     0.01  -0.03  -0.03     0.19  -0.13  -0.01
  18   1    -0.10   0.14  -0.10    -0.19   0.18  -0.11    -0.13   0.05   0.11
  19   1     0.06   0.06  -0.01     0.20  -0.12  -0.01    -0.09  -0.09  -0.01
  20   1    -0.12  -0.03   0.00    -0.24  -0.23   0.15    -0.15  -0.11   0.01
  21   1    -0.16   0.01  -0.09     0.00  -0.11   0.14    -0.02   0.02  -0.08
  22   1    -0.05  -0.11  -0.02    -0.00   0.02  -0.10     0.01   0.04  -0.17
  23   1    -0.13  -0.11  -0.08     0.09   0.15   0.11     0.14   0.02  -0.09
                     10                     11                     12
                        a                      a                      a 
 Frequencies --   377.2845               416.9375               422.6357
 Red. masses --     7.7433                 7.8501                 7.0156
 Frc consts  --     0.0000                 0.0000                 0.0000
 IR Inten    --     0.5898                 0.2102                 0.4061
 Raman Activ --     0.0000                 0.0000                 0.0000
 Depolar     --     0.0000                 0.0000                 0.0000
 Atom AN      X      Y      Z        X      Y      Z        X      Y      Z
   1   6    -0.14   0.13   0.02    -0.02   0.02  -0.01     0.03  -0.02  -0.04
   2   6     0.17   0.11  -0.16    -0.25  -0.02   0.12    -0.10  -0.01   0.06
   3   6     0.15  -0.17   0.08    -0.27  -0.19   0.08    -0.18  -0.02  -0.18
   4   6     0.15  -0.22   0.05    -0.15  -0.24  -0.15    -0.03  -0.11   0.33
   5   6    -0.08   0.15   0.31     0.16   0.20   0.12     0.07  -0.29   0.27
   6   6    -0.25   0.17  -0.25     0.18  -0.13  -0.32     0.03   0.28   0.06
   7   6     0.13  -0.28  -0.07     0.20   0.20   0.10     0.13   0.09  -0.28
   8   1    -0.09   0.07  -0.02     0.04  -0.02   0.02     0.02  -0.01  -0.00
   9   1    -0.12   0.07  -0.00     0.04  -0.00  -0.00     0.05  -0.02  -0.01
  10   1    -0.02  -0.02   0.11    -0.01   0.05  -0.07    -0.01   0.01  -0.07
  11   1     0.07   0.04  -0.05    -0.05   0.01   0.02     0.00   0.00   0.01
  12   1     0.04   0.05  -0.02    -0.10   0.02   0.05    -0.05   0.01   0.03
  13   1     0.08  -0.14   0.06    -0.12  -0.09   0.05    -0.07   0.22  -0.15
  14   1    -0.01   0.02   0.11    -0.06  -0.02   0.05    -0.10  -0.17  -0.23
  15   1    -0.04   0.16   0.00     0.09   0.19  -0.07    -0.00  -0.12   0.11
  16   1    -0.05   0.02   0.22     0.08   0.10   0.08     0.05  -0.05   0.03
  17   1    -0.05   0.09   0.12     0.07   0.03   0.19     0.05  -0.13   0.05
  18   1    -0.11   0.12  -0.08     0.09  -0.11  -0.18     0.02   0.06  -0.06
  19   1    -0.10   0.19   0.01     0.07   0.03  -0.05     0.01   0.21   0.09
  20   1    -0.12  -0.01  -0.24     0.11   0.03  -0.09     0.02   0.09  -0.08
  21   1    -0.01  -0.06  -0.03     0.22   0.00   0.07    -0.04   0.09  -0.13
  22   1     0.05  -0.10  -0.04    -0.03   0.20   0.04    -0.02   0.10  -0.19
  23   1     0.05  -0.10  -0.03     0.10   0.13   0.07     0.22  -0.04  -0.14
                     13                     14                     15
                        a                      a                      a 
 Frequencies --   515.2112               742.3208               824.3177
 Red. masses --     7.6375                 7.8063                 4.8098
 Frc consts  --     0.0000                 0.0000                 0.0000
 IR Inten    --     0.7757                 2.0374                 7.2850
 Raman Activ --     0.0000                 0.0000                 0.0000
 Depolar     --     0.0000                 0.0000                 0.0000
 Atom AN      X      Y      Z        X      Y      Z        X      Y      Z
   1   6     0.08  -0.07  -0.03    -0.07   0.04  -0.03     0.01   0.13  -0.03
   2   6    -0.30  -0.03   0.22    -0.23  -0.11   0.02     0.14   0.15   0.10
   3   6    -0.06   0.39   0.04    -0.16  -0.36  -0.07    -0.02  -0.33   0.16
   4   6     0.32  -0.04  -0.07     0.11   0.08  -0.00    -0.05  -0.05   0.01
   5   6    -0.14   0.07  -0.04     0.01   0.19  -0.29    -0.01   0.14  -0.25
   6   6    -0.07  -0.05  -0.08     0.02   0.24   0.30     0.02   0.12   0.17
   7   6     0.32  -0.22   0.04     0.25  -0.18   0.00     0.06  -0.06  -0.00
   8   1     0.12  -0.07  -0.05     0.09  -0.05   0.12    -0.23   0.16  -0.28
   9   1     0.07  -0.11   0.02     0.01   0.12  -0.05    -0.02  -0.21   0.09
  10   1     0.02   0.11  -0.11    -0.01   0.11  -0.06    -0.03  -0.16   0.02
  11   1    -0.24  -0.08   0.12     0.17   0.16  -0.11    -0.18  -0.23   0.19
  12   1    -0.03  -0.08  -0.11    -0.12   0.08   0.31    -0.06   0.05  -0.38
  13   1    -0.10   0.23  -0.03    -0.00  -0.14  -0.00    -0.12   0.11  -0.03
  14   1    -0.02   0.01  -0.11    -0.03  -0.06   0.02    -0.05  -0.24  -0.12
  15   1    -0.09   0.05  -0.03    -0.01   0.03  -0.06     0.03   0.07  -0.10
  16   1    -0.11  -0.05   0.11    -0.02   0.03  -0.08     0.03   0.07  -0.09
  17   1    -0.10   0.11  -0.10    -0.01   0.08  -0.13     0.02   0.01   0.00
  18   1    -0.06   0.06   0.10    -0.01   0.09   0.11     0.02   0.01   0.03
  19   1    -0.10  -0.03  -0.03     0.01   0.05   0.07     0.01   0.04   0.05
  20   1    -0.09  -0.09  -0.11    -0.00   0.06   0.09     0.01   0.04   0.05
  21   1     0.10  -0.07   0.02     0.02  -0.05   0.00     0.02  -0.02   0.01
  22   1     0.10  -0.08   0.03     0.11  -0.12  -0.00     0.03  -0.03   0.01
  23   1     0.04  -0.05   0.02     0.03  -0.06  -0.00     0.00  -0.01   0.00
                     16                     17                     18
                        a                      a                      a 
 Frequencies --   880.3621               912.7160               956.0845
 Red. masses --     5.8224                 6.0522                 5.3811
 Frc consts  --     0.0000                 0.0000                 0.0000
 IR Inten    --     0.7241                 1.3800                 4.1898
 Raman Activ --     0.0000                 0.0000                 0.0000
 Depolar     --     0.0000                 0.0000                 0.0000
 Atom AN      X      Y      Z        X      Y      Z        X      Y      Z
   1   6    -0.12   0.10  -0.20     0.14  -0.20  -0.03    -0.12   0.09  -0.04
   2   6    -0.06  -0.10   0.08     0.15  -0.00  -0.20    -0.01  -0.01   0.08
   3   6     0.24  -0.22   0.35    -0.09   0.26   0.23     0.17   0.01  -0.02
   4   6     0.14   0.06   0.04    -0.23  -0.14   0.04    -0.21   0.18  -0.02
   5   6     0.01   0.00  -0.00    -0.10   0.08  -0.20    -0.23   0.03   0.19
   6   6     0.05  -0.11  -0.19    -0.06   0.03   0.12    -0.17  -0.01  -0.11
   7   6    -0.14   0.17   0.01     0.11  -0.21  -0.00     0.34  -0.11  -0.07
   8   1     0.03  -0.00   0.10     0.03  -0.04   0.20     0.04  -0.02  -0.02
   9   1    -0.11   0.23  -0.13    -0.15   0.24  -0.11     0.04  -0.02   0.00
  10   1     0.00   0.07   0.04     0.10  -0.13   0.26    -0.05   0.09  -0.11
  11   1    -0.10   0.18  -0.06    -0.10   0.17  -0.11    -0.00  -0.02   0.03
  12   1    -0.01  -0.00   0.15     0.11  -0.05   0.01     0.03  -0.03   0.01
  13   1    -0.01   0.34  -0.08    -0.09   0.21   0.00     0.05   0.03  -0.02
  14   1     0.06  -0.35  -0.25    -0.07  -0.04  -0.06     0.08  -0.01  -0.03
  15   1     0.01   0.01  -0.01     0.06   0.08  -0.11     0.11  -0.15   0.16
  16   1     0.01   0.01   0.01     0.06   0.12  -0.14     0.10   0.16  -0.33
  17   1     0.01  -0.00   0.01     0.04  -0.06   0.12     0.08  -0.21   0.21
  18   1    -0.02   0.04   0.08     0.00  -0.03  -0.07     0.04  -0.17  -0.17
  19   1    -0.05  -0.11  -0.10     0.03   0.08   0.07     0.07  -0.07  -0.06
  20   1    -0.05  -0.10  -0.08     0.02   0.05   0.04     0.08   0.13   0.17
  21   1    -0.13   0.05   0.00     0.18  -0.07  -0.00     0.01  -0.09   0.04
  22   1     0.03  -0.06   0.01    -0.08   0.12   0.01     0.23  -0.24   0.04
  23   1    -0.11   0.04   0.00     0.14  -0.03   0.01    -0.11   0.00   0.02
                     19                     20                     21
                        a                      a                      a 
 Frequencies --   962.3981               967.1398               979.8945
 Red. masses --     3.1805                 5.0910                 5.8915
 Frc consts  --     0.0000                 0.0000                 0.0000
 IR Inten    --     0.2685                 1.2206                 5.1211
 Raman Activ --     0.0000                 0.0000                 0.0000
 Depolar     --     0.0000                 0.0000                 0.0000
 Atom AN      X      Y      Z        X      Y      Z        X      Y      Z
   1   6    -0.05   0.03   0.00     0.03  -0.02   0.01     0.26  -0.18   0.07
   2   6    -0.01  -0.01   0.02     0.00   0.00  -0.02    -0.01   0.07  -0.16
   3   6     0.06  -0.00  -0.01    -0.05  -0.01  -0.02    -0.38  -0.07   0.04
   4   6     0.04  -0.06   0.07     0.03  -0.01  -0.27     0.12   0.18   0.01
   5   6    -0.05   0.22   0.01    -0.10  -0.25   0.17     0.05   0.10   0.18
   6   6     0.13  -0.23   0.14     0.17   0.27   0.12     0.04  -0.06  -0.15
   7   6    -0.11  -0.00  -0.16    -0.04   0.01  -0.27     0.15   0.13  -0.03
   8   1     0.02  -0.01  -0.01    -0.01   0.00   0.00    -0.12   0.06   0.02
   9   1     0.03  -0.02   0.01    -0.01   0.01  -0.00    -0.11   0.04  -0.01
  10   1    -0.02   0.04  -0.05     0.01  -0.02   0.03     0.10  -0.26   0.28
  11   1     0.02  -0.01   0.01    -0.00   0.01  -0.01    -0.05   0.05  -0.05
  12   1     0.01  -0.01   0.02    -0.01   0.01   0.00    -0.11   0.10  -0.06
  13   1     0.04  -0.01  -0.01    -0.04  -0.01   0.00    -0.16  -0.04   0.03
  14   1     0.01   0.00   0.00    -0.01  -0.00  -0.00    -0.13  -0.00   0.04
  15   1     0.02  -0.22   0.21     0.06   0.09  -0.08    -0.02  -0.20   0.22
  16   1     0.02   0.07  -0.31     0.05   0.03   0.08    -0.03  -0.03  -0.10
  17   1     0.04  -0.05  -0.14     0.03  -0.12   0.29     0.01   0.01  -0.16
  18   1    -0.07   0.12  -0.08    -0.03   0.22   0.34    -0.01   0.02   0.04
  19   1    -0.04   0.33   0.26    -0.09  -0.12  -0.09    -0.03  -0.08  -0.08
  20   1    -0.07  -0.18  -0.41    -0.08  -0.06   0.05    -0.02  -0.05  -0.05
  21   1     0.22  -0.15   0.07     0.26  -0.21   0.10    -0.14   0.01   0.03
  22   1    -0.06   0.09   0.10     0.01   0.01   0.13     0.20  -0.22   0.01
  23   1    -0.17   0.18   0.08    -0.28   0.25   0.09    -0.16   0.02   0.00
                     22                     23                     24
                        a                      a                      a 
 Frequencies --  1025.4288              1036.1732              1091.4479
 Red. masses --     4.0498                 4.2771                 4.4777
 Frc consts  --     0.0000                 0.0000                 0.0000
 IR Inten    --     0.4985                 0.0743                 2.3560
 Raman Activ --     0.0000                 0.0000                 0.0000
 Depolar     --     0.0000                 0.0000                 0.0000
 Atom AN      X      Y      Z        X      Y      Z        X      Y      Z
   1   6     0.01  -0.01   0.15     0.02   0.11  -0.10    -0.22  -0.17   0.04
   2   6    -0.04   0.01  -0.16     0.01  -0.12   0.09     0.25   0.28  -0.03
   3   6    -0.06   0.03   0.02     0.01  -0.04   0.03    -0.06  -0.19  -0.06
   4   6    -0.01   0.04   0.19    -0.10   0.15  -0.03     0.03  -0.07  -0.04
   5   6    -0.22   0.07  -0.10     0.10   0.14   0.18    -0.01   0.11   0.07
   6   6     0.22  -0.04  -0.19     0.00   0.13  -0.16     0.08   0.11  -0.04
   7   6     0.01  -0.05   0.18    -0.08  -0.32  -0.01    -0.04   0.01   0.07
   8   1     0.00  -0.01  -0.06    -0.09   0.09  -0.08     0.26  -0.22   0.22
   9   1     0.10  -0.15   0.09    -0.06   0.02  -0.02     0.09   0.09  -0.04
  10   1    -0.03  -0.01  -0.07     0.01  -0.06   0.04    -0.04   0.24  -0.14
  11   1     0.19  -0.06  -0.04     0.04  -0.02   0.01    -0.24   0.00   0.07
  12   1    -0.07   0.07   0.04    -0.07   0.03   0.04     0.29  -0.15  -0.20
  13   1     0.24   0.04  -0.05     0.01   0.02  -0.00    -0.28  -0.10   0.05
  14   1    -0.15  -0.01   0.03     0.14  -0.02  -0.05    -0.10  -0.03   0.03
  15   1     0.10   0.04  -0.06    -0.06  -0.22   0.25    -0.00  -0.11   0.12
  16   1     0.10   0.18  -0.25    -0.06  -0.07  -0.07    -0.01   0.01  -0.12
  17   1     0.06  -0.14   0.21    -0.01   0.06  -0.24     0.01  -0.00  -0.08
  18   1    -0.05   0.18   0.28     0.01   0.01   0.14    -0.00   0.07   0.14
  19   1    -0.12  -0.16  -0.15    -0.03  -0.23  -0.19    -0.04  -0.09  -0.08
  20   1    -0.12  -0.20  -0.16    -0.01   0.03   0.15    -0.03  -0.02   0.04
  21   1    -0.10   0.11  -0.06     0.32  -0.09  -0.02    -0.05   0.05  -0.02
  22   1    -0.06   0.06  -0.07    -0.25   0.30   0.01    -0.04   0.03  -0.03
  23   1     0.21  -0.14  -0.05     0.24  -0.01   0.02     0.07  -0.05  -0.02
                     25                     26                     27
                        a                      a                      a 
 Frequencies --  1092.2218              1139.8075              1213.7756
 Red. masses --     5.5952                 7.9667                 5.9251
 Frc consts  --     0.0000                 0.0000                 0.0000
 IR Inten    --     0.8918                 0.7556                 8.2782
 Raman Activ --     0.0000                 0.0000                 0.0000
 Depolar     --     0.0000                 0.0000                 0.0000
 Atom AN      X      Y      Z        X      Y      Z        X      Y      Z
   1   6     0.03   0.13  -0.31     0.16  -0.20   0.16    -0.02   0.08   0.24
   2   6     0.08  -0.17   0.34    -0.39   0.35   0.02     0.01  -0.10  -0.34
   3   6    -0.04   0.04  -0.23     0.38  -0.17  -0.24     0.02  -0.00   0.19
   4   6    -0.04   0.02  -0.10     0.06   0.01  -0.06    -0.14   0.15  -0.35
   5   6    -0.12  -0.04   0.03    -0.08  -0.02   0.03     0.02  -0.07   0.11
   6   6     0.15  -0.03   0.07    -0.01   0.01   0.03     0.06  -0.05   0.12
   7   6     0.04   0.02   0.17    -0.09  -0.05   0.05     0.06  -0.04   0.12
   8   1    -0.12   0.11  -0.03    -0.02  -0.02   0.08     0.01   0.01  -0.12
   9   1    -0.18   0.19  -0.14    -0.03  -0.01   0.03     0.14  -0.20   0.14
  10   1     0.05  -0.08   0.14     0.05  -0.12   0.14    -0.06   0.03  -0.14
  11   1    -0.10  -0.03   0.10    -0.36   0.25  -0.03    -0.02   0.17  -0.18
  12   1     0.05  -0.08   0.02    -0.16   0.13  -0.06    -0.03   0.03   0.06
  13   1    -0.25  -0.19   0.07     0.10  -0.09  -0.04    -0.38   0.09   0.06
  14   1     0.26   0.16   0.03     0.15   0.00  -0.03     0.33  -0.04  -0.13
  15   1     0.05   0.01  -0.01     0.03  -0.01   0.01    -0.02  -0.04   0.05
  16   1     0.04   0.07  -0.08     0.03   0.04  -0.06    -0.02  -0.04   0.06
  17   1     0.03  -0.09   0.15     0.02  -0.06   0.07    -0.01  -0.00   0.02
  18   1    -0.03   0.12   0.09     0.00  -0.01  -0.03    -0.03   0.07  -0.01
  19   1    -0.05   0.07   0.06     0.01   0.02   0.02    -0.03   0.12   0.10
  20   1    -0.06  -0.11  -0.16     0.01   0.02   0.01    -0.01  -0.04  -0.10
  21   1    -0.16   0.12  -0.05     0.02   0.03  -0.03    -0.05   0.07  -0.04
  22   1     0.02  -0.03  -0.07    -0.08   0.08  -0.02     0.01  -0.02  -0.05
  23   1     0.14  -0.14  -0.05     0.09  -0.03  -0.01     0.11  -0.09  -0.03
                     28                     29                     30
                        a                      a                      a 
 Frequencies --  1229.3168              1261.6372              1284.2440
 Red. masses --     8.1203                 5.7217                 7.4995
 Frc consts  --     0.0000                 0.0000                 0.0000
 IR Inten    --    15.6068                13.8433                 9.5100
 Raman Activ --     0.0000                 0.0000                 0.0000
 Depolar     --     0.0000                 0.0000                 0.0000
 Atom AN      X      Y      Z        X      Y      Z        X      Y      Z
   1   6    -0.05  -0.11  -0.03    -0.10  -0.18  -0.09    -0.02  -0.11  -0.07
   2   6     0.06   0.17   0.06     0.07   0.12   0.01    -0.10   0.10   0.03
   3   6    -0.02  -0.10  -0.03    -0.11  -0.06   0.11     0.16   0.13   0.10
   4   6    -0.54   0.37   0.15     0.32   0.35  -0.18    -0.27  -0.44  -0.38
   5   6     0.17  -0.12  -0.05    -0.10  -0.11   0.05     0.07   0.12   0.10
   6   6     0.16  -0.13  -0.04    -0.10  -0.11   0.05     0.07   0.12   0.10
   7   6     0.19  -0.09  -0.05    -0.09  -0.10   0.05     0.07   0.11   0.10
   8   1     0.06  -0.06   0.10     0.09  -0.11   0.16     0.03  -0.05   0.10
   9   1    -0.00   0.08  -0.05    -0.02   0.14  -0.09    -0.04   0.07  -0.05
  10   1     0.01   0.07   0.01     0.01   0.07   0.02     0.02   0.00   0.05
  11   1    -0.06  -0.04   0.07     0.28  -0.29   0.12     0.26  -0.21   0.08
  12   1    -0.02   0.06  -0.11    -0.29   0.26  -0.16    -0.18   0.15  -0.07
  13   1     0.22   0.01  -0.06    -0.05   0.05   0.00     0.19   0.11  -0.04
  14   1     0.13   0.01  -0.02     0.05  -0.03  -0.02     0.03  -0.03  -0.04
  15   1    -0.09   0.09  -0.08     0.06   0.02  -0.02    -0.05  -0.11   0.13
  16   1    -0.05  -0.11   0.23     0.04   0.05   0.03    -0.06  -0.07  -0.06
  17   1    -0.06   0.12  -0.05     0.02  -0.07   0.15     0.02  -0.00  -0.13
  18   1    -0.04   0.10   0.03    -0.00  -0.06  -0.13    -0.02   0.09   0.14
  19   1    -0.10   0.03   0.01     0.07   0.09   0.08    -0.03   0.04   0.03
  20   1    -0.07  -0.14  -0.19     0.06   0.06  -0.05    -0.02   0.00   0.05
  21   1     0.08  -0.07   0.03     0.07   0.03  -0.04    -0.16   0.06  -0.01
  22   1     0.11  -0.11   0.03    -0.10   0.10  -0.02     0.07  -0.09  -0.07
  23   1     0.01  -0.02  -0.00     0.12  -0.01   0.01    -0.03  -0.09  -0.04
                     31                     32                     33
                        a                      a                      a 
 Frequencies --  1314.9738              1361.6612              1371.0270
 Red. masses --     4.9491                 4.8608                 4.0049
 Frc consts  --     0.0000                 0.0000                 0.0000
 IR Inten    --     6.9519                 4.1668                 0.0390
 Raman Activ --     0.0000                 0.0000                 0.0000
 Depolar     --     0.0000                 0.0000                 0.0000
 Atom AN      X      Y      Z        X      Y      Z        X      Y      Z
   1   6    -0.07  -0.08   0.04     0.10   0.01  -0.08    -0.00   0.06  -0.05
   2   6     0.06  -0.02  -0.08    -0.40   0.24  -0.11    -0.09   0.20  -0.06
   3   6     0.06   0.11  -0.05     0.26  -0.05   0.02    -0.39  -0.09   0.10
   4   6    -0.01  -0.25   0.46    -0.07   0.10   0.12     0.16  -0.10   0.00
   5   6    -0.00   0.05  -0.12     0.02  -0.01  -0.05    -0.04  -0.01   0.04
   6   6     0.01   0.06  -0.11     0.02  -0.02  -0.03    -0.04   0.00  -0.02
   7   6    -0.00   0.06  -0.12     0.01  -0.04  -0.03    -0.05   0.04  -0.00
   8   1     0.05  -0.06   0.03    -0.01   0.01   0.07     0.07  -0.03   0.08
   9   1     0.03   0.03  -0.01    -0.05  -0.06   0.01     0.05  -0.11   0.04
  10   1    -0.02   0.04  -0.03     0.04  -0.11   0.12     0.02  -0.09   0.12
  11   1     0.09  -0.04  -0.01     0.40  -0.29   0.07     0.05  -0.06   0.03
  12   1    -0.31   0.26  -0.09     0.31  -0.27   0.10     0.29  -0.21   0.01
  13   1    -0.35  -0.05   0.09    -0.39  -0.01   0.08     0.36   0.02  -0.07
  14   1     0.46   0.11  -0.06    -0.06  -0.05   0.00     0.60   0.03  -0.15
  15   1     0.00   0.06  -0.06    -0.02   0.00  -0.01     0.04   0.04  -0.04
  16   1     0.02   0.04  -0.06     0.00  -0.00   0.05     0.03   0.03  -0.08
  17   1    -0.02   0.04  -0.04    -0.01   0.03   0.03    -0.00  -0.01  -0.05
  18   1     0.03  -0.04   0.05     0.00  -0.00   0.01    -0.00  -0.01   0.02
  19   1    -0.01  -0.11  -0.09    -0.01  -0.02  -0.02     0.03   0.02   0.02
  20   1    -0.04  -0.03   0.06    -0.02  -0.03  -0.04     0.03   0.04   0.05
  21   1    -0.01  -0.06   0.05     0.01  -0.02   0.01     0.01   0.01  -0.00
  22   1     0.04  -0.03   0.09    -0.01   0.02   0.03     0.02  -0.04   0.02
  23   1    -0.11   0.08   0.03    -0.00   0.02   0.01     0.02   0.01   0.00
                     34                     35                     36
                        a                      a                      a 
 Frequencies --  1406.9694              1408.1894              1417.7199
 Red. masses --     3.2400                 3.2825                 3.1763
 Frc consts  --     0.0000                 0.0000                 0.0000
 IR Inten    --     3.1938                 2.6895                 2.8164
 Raman Activ --     0.0000                 0.0000                 0.0000
 Depolar     --     0.0000                 0.0000                 0.0000
 Atom AN      X      Y      Z        X      Y      Z        X      Y      Z
   1   6     0.04  -0.06   0.05    -0.07   0.09  -0.08    -0.18   0.25  -0.24
   2   6    -0.02   0.02  -0.02     0.02  -0.03   0.01     0.07  -0.08   0.01
   3   6    -0.02   0.01   0.02     0.04   0.00  -0.00     0.06   0.05  -0.03
   4   6     0.02  -0.04  -0.04    -0.03   0.04  -0.06    -0.01   0.00   0.00
   5   6    -0.01  -0.01   0.05     0.01  -0.18   0.29     0.01   0.03  -0.05
   6   6     0.01   0.23   0.28     0.02   0.06   0.11     0.01  -0.00   0.00
   7   6    -0.18   0.15   0.02     0.17  -0.13   0.02    -0.12   0.10   0.00
   8   1    -0.07   0.03  -0.07     0.12  -0.06   0.07     0.29  -0.15   0.29
   9   1    -0.04   0.09  -0.03     0.08  -0.10   0.04     0.24  -0.39   0.13
  10   1    -0.00   0.07  -0.07     0.01  -0.13   0.12     0.04  -0.26   0.37
  11   1     0.03  -0.02   0.01    -0.02  -0.00   0.01    -0.09   0.02   0.00
  12   1     0.02  -0.02   0.01    -0.04   0.03   0.02    -0.11   0.09   0.04
  13   1     0.02   0.00   0.00    -0.02   0.00   0.00    -0.04  -0.04   0.02
  14   1     0.01  -0.01  -0.01    -0.07  -0.01   0.02    -0.12  -0.02   0.00
  15   1     0.01   0.04  -0.03    -0.00   0.32  -0.23    -0.02  -0.06   0.05
  16   1     0.00   0.00  -0.06     0.13   0.10  -0.35    -0.03  -0.03   0.07
  17   1    -0.00  -0.00  -0.06    -0.13   0.16  -0.34     0.02  -0.02   0.07
  18   1     0.11  -0.21  -0.35     0.03  -0.05  -0.15    -0.00   0.01  -0.02
  19   1    -0.02  -0.37  -0.21    -0.04  -0.13  -0.07    -0.03   0.00  -0.00
  20   1    -0.15  -0.15  -0.36    -0.04  -0.05  -0.13    -0.01  -0.01   0.01
  21   1     0.24  -0.10   0.08    -0.21   0.10  -0.08     0.18  -0.08   0.06
  22   1     0.14  -0.23  -0.01    -0.13   0.21  -0.03     0.10  -0.16  -0.00
  23   1     0.21  -0.13  -0.10    -0.20   0.11   0.09     0.15  -0.10  -0.07
                     37                     38                     39
                        a                      a                      a 
 Frequencies --  1431.6971              1484.4778              1488.4027
 Red. masses --     2.9905                 1.8265                 1.6673
 Frc consts  --     0.0000                 0.0000                 0.0000
 IR Inten    --     2.0084                 0.0774                 0.0386
 Raman Activ --     0.0000                 0.0000                 0.0000
 Depolar     --     0.0000                 0.0000                 0.0000
 Atom AN      X      Y      Z        X      Y      Z        X      Y      Z
   1   6    -0.03   0.03  -0.05     0.00  -0.02   0.01    -0.04  -0.03   0.05
   2   6     0.02   0.01  -0.01    -0.04  -0.01   0.07     0.03   0.06  -0.13
   3   6    -0.06   0.03   0.01    -0.01   0.23   0.05     0.00   0.07   0.02
   4   6     0.00  -0.02   0.00     0.00   0.02   0.03     0.01  -0.00  -0.02
   5   6     0.00   0.14  -0.21     0.08  -0.02   0.01    -0.02  -0.09  -0.05
   6   6     0.02   0.13   0.16    -0.03  -0.04  -0.00     0.05   0.07  -0.07
   7   6     0.20  -0.15  -0.00    -0.03  -0.02   0.03    -0.01   0.00   0.07
   8   1     0.03  -0.01   0.07    -0.02   0.01  -0.01     0.04  -0.03  -0.22
   9   1     0.07  -0.08   0.03     0.00   0.02  -0.00     0.15   0.17  -0.07
  10   1     0.02   0.01   0.08     0.00   0.02  -0.01     0.02  -0.04   0.08
  11   1    -0.03   0.00   0.00     0.13   0.14  -0.08    -0.20  -0.26   0.15
  12   1     0.00   0.01   0.01     0.01  -0.04  -0.21    -0.01   0.07   0.36
  13   1     0.08  -0.07   0.02     0.07  -0.51   0.23     0.04  -0.16   0.07
  14   1     0.07  -0.04  -0.07    -0.06  -0.37  -0.42    -0.01  -0.11  -0.14
  15   1    -0.02  -0.25   0.19    -0.25   0.05  -0.02     0.02  -0.13   0.09
  16   1    -0.10  -0.09   0.27    -0.02  -0.05  -0.16     0.19   0.22   0.07
  17   1     0.10  -0.12   0.28    -0.03   0.08   0.13    -0.14   0.24   0.04
  18   1     0.07  -0.12  -0.22    -0.05   0.08   0.05     0.11  -0.20  -0.00
  19   1    -0.04  -0.22  -0.12     0.08  -0.03  -0.01    -0.13   0.16   0.07
  20   1    -0.09  -0.09  -0.20     0.09   0.09  -0.06    -0.20  -0.20   0.19
  21   1    -0.28   0.13  -0.10     0.11   0.08  -0.08     0.14   0.06  -0.06
  22   1    -0.16   0.26  -0.01     0.03  -0.07  -0.10    -0.00  -0.04  -0.21
  23   1    -0.25   0.15   0.11    -0.01   0.05   0.04    -0.11  -0.02   0.00
                     40                     41                     42
                        a                      a                      a 
 Frequencies --  1494.3685              1497.5839              1506.1153
 Red. masses --     1.6671                 1.6439                 1.6775
 Frc consts  --     0.0000                 0.0000                 0.0000
 IR Inten    --     2.6267                 0.2167                 0.6218
 Raman Activ --     0.0000                 0.0000                 0.0000
 Depolar     --     0.0000                 0.0000                 0.0000
 Atom AN      X      Y      Z        X      Y      Z        X      Y      Z
   1   6     0.09   0.02  -0.02     0.03   0.06   0.02    -0.02  -0.07  -0.04
   2   6     0.07   0.03  -0.11     0.02   0.00  -0.00     0.04   0.03  -0.11
   3   6    -0.00   0.03   0.00    -0.01  -0.09  -0.02     0.01   0.05   0.01
   4   6     0.02   0.01   0.01     0.02  -0.00  -0.00    -0.02   0.06  -0.01
   5   6     0.05   0.09   0.06     0.14  -0.03  -0.03     0.01   0.05   0.07
   6   6     0.08   0.00  -0.02    -0.10   0.07  -0.03    -0.11   0.03  -0.04
   7   6    -0.07  -0.09  -0.02     0.00  -0.01   0.06     0.06   0.05  -0.05
   8   1    -0.03   0.03   0.18     0.11  -0.05   0.05    -0.17   0.09   0.03
   9   1    -0.25  -0.11   0.05    -0.17  -0.03   0.02     0.16  -0.03   0.00
  10   1    -0.05  -0.00  -0.18    -0.07  -0.15  -0.14     0.09   0.23   0.14
  11   1    -0.17  -0.19   0.11    -0.03  -0.00   0.01    -0.18  -0.17   0.10
  12   1    -0.02   0.07   0.27    -0.01   0.01   0.01    -0.01   0.05   0.27
  13   1    -0.00  -0.05   0.02    -0.02   0.19  -0.09     0.00  -0.13   0.06
  14   1    -0.01  -0.03  -0.04     0.04   0.14   0.15    -0.02  -0.10  -0.11
  15   1    -0.13   0.16  -0.11    -0.47  -0.01   0.04     0.01   0.13  -0.10
  16   1    -0.22  -0.27  -0.16    -0.03  -0.06  -0.23    -0.15  -0.17  -0.07
  17   1     0.15  -0.24   0.02    -0.07   0.17   0.31     0.12  -0.20  -0.07
  18   1     0.01  -0.01  -0.13     0.11  -0.21   0.24     0.09  -0.16   0.27
  19   1    -0.25   0.07   0.02     0.35   0.02   0.04     0.37   0.04   0.05
  20   1    -0.08  -0.08   0.18    -0.07  -0.07  -0.16    -0.02  -0.02  -0.17
  21   1     0.03   0.20  -0.19     0.11   0.06  -0.05    -0.15  -0.20   0.19
  22   1     0.09  -0.13   0.09    -0.01  -0.02  -0.18    -0.06   0.14   0.13
  23   1     0.16   0.27   0.14    -0.11  -0.01   0.01     0.01  -0.18  -0.11
                     43                     44                     45
                        a                      a                      a 
 Frequencies --  1506.6679              1508.5668              1517.2910
 Red. masses --     1.6126                 1.5520                 1.6061
 Frc consts  --     0.0000                 0.0000                 0.0000
 IR Inten    --     2.0748                 0.9233                 1.5586
 Raman Activ --     0.0000                 0.0000                 0.0000
 Depolar     --     0.0000                 0.0000                 0.0000
 Atom AN      X      Y      Z        X      Y      Z        X      Y      Z
   1   6    -0.10  -0.09  -0.04     0.08   0.01  -0.06     0.04   0.07   0.01
   2   6    -0.05  -0.04   0.05     0.01  -0.01   0.02     0.00  -0.01   0.05
   3   6     0.02  -0.05  -0.01    -0.01   0.01   0.00     0.01   0.05   0.02
   4   6    -0.03  -0.01   0.01    -0.01   0.04   0.06    -0.07   0.01  -0.06
   5   6    -0.00   0.04   0.02    -0.08   0.02   0.02    -0.08  -0.03  -0.00
   6   6    -0.02   0.04  -0.04     0.00   0.03  -0.04    -0.05   0.10  -0.05
   7   6    -0.07  -0.10   0.06     0.04   0.03   0.14    -0.04  -0.06  -0.08
   8   1    -0.15   0.08  -0.12    -0.11   0.07   0.31     0.10  -0.05   0.10
   9   1     0.41   0.05  -0.03    -0.24  -0.22   0.09    -0.22  -0.06   0.03
  10   1     0.14   0.25   0.32    -0.01   0.11  -0.13    -0.08  -0.15  -0.16
  11   1     0.10   0.12  -0.07     0.05   0.07  -0.04     0.06   0.09  -0.05
  12   1     0.02  -0.05  -0.14    -0.00  -0.01  -0.09    -0.01  -0.01  -0.12
  13   1    -0.04   0.12  -0.05    -0.02  -0.04   0.02     0.04  -0.10   0.04
  14   1    -0.01   0.09   0.11     0.02  -0.02  -0.03    -0.05  -0.08  -0.08
  15   1     0.04   0.05  -0.04     0.28   0.04  -0.05     0.28  -0.07   0.03
  16   1    -0.07  -0.08  -0.01    -0.01   0.00   0.13     0.12   0.15   0.19
  17   1     0.06  -0.10  -0.06     0.07  -0.15  -0.19    -0.04   0.04  -0.16
  18   1     0.07  -0.12   0.12     0.06  -0.11   0.05     0.16  -0.29   0.23
  19   1     0.11   0.05   0.03     0.02   0.06   0.03     0.24   0.10   0.07
  20   1    -0.08  -0.08  -0.02    -0.09  -0.09   0.03    -0.18  -0.19  -0.07
  21   1     0.17   0.29  -0.28     0.27   0.02  -0.03    -0.15   0.08  -0.07
  22   1     0.09  -0.19  -0.12    -0.07   0.00  -0.49     0.08  -0.06   0.31
  23   1     0.04   0.29   0.17    -0.35  -0.16  -0.06     0.26   0.21   0.10
                     46                     47                     48
                        a                      a                      a 
 Frequencies --  1521.8850              1524.2506              2951.6795
 Red. masses --     1.5956                 1.6216                 1.8248
 Frc consts  --     0.0000                 0.0000                 0.0000
 IR Inten    --     2.4772                 2.0533                28.9426
 Raman Activ --     0.0000                 0.0000                 0.0000
 Depolar     --     0.0000                 0.0000                 0.0000
 Atom AN      X      Y      Z        X      Y      Z        X      Y      Z
   1   6    -0.02   0.07   0.08     0.07  -0.06  -0.10    -0.01  -0.01  -0.01
   2   6     0.02   0.04  -0.06     0.05  -0.00  -0.08     0.12   0.14   0.01
   3   6     0.03   0.02  -0.01     0.01   0.01  -0.00     0.05  -0.10   0.16
   4   6    -0.07  -0.03   0.05    -0.03  -0.08  -0.01    -0.00  -0.00   0.01
   5   6    -0.06   0.06  -0.01    -0.00  -0.09  -0.05    -0.01  -0.00  -0.00
   6   6    -0.09  -0.07   0.05    -0.05  -0.05   0.05     0.00   0.00  -0.01
   7   6    -0.02  -0.04   0.06    -0.04  -0.03  -0.00     0.00   0.01  -0.01
   8   1     0.23  -0.13  -0.21    -0.29   0.17   0.32     0.02   0.04  -0.00
   9   1    -0.03   0.16  -0.06    -0.08  -0.23   0.09    -0.00   0.01   0.02
  10   1    -0.08  -0.28  -0.07     0.07   0.32  -0.00     0.03  -0.01  -0.01
  11   1    -0.13  -0.15   0.10    -0.14  -0.11   0.07     0.00  -0.02  -0.08
  12   1    -0.01   0.05   0.19    -0.02   0.05   0.18    -0.42  -0.50   0.08
  13   1    -0.01  -0.02   0.01    -0.00   0.03  -0.01    -0.03  -0.10  -0.17
  14   1     0.00  -0.00  -0.01     0.01   0.02   0.02    -0.14   0.49  -0.43
  15   1     0.23   0.01  -0.02    -0.01  -0.13   0.09     0.00   0.01   0.01
  16   1    -0.05  -0.04   0.15     0.22   0.25   0.03     0.00  -0.00  -0.00
  17   1     0.08  -0.15  -0.15    -0.17   0.29   0.04     0.01   0.01  -0.00
  18   1    -0.12   0.21   0.11    -0.10   0.18   0.02    -0.00  -0.00  -0.00
  19   1     0.27  -0.17  -0.07     0.12  -0.13  -0.06    -0.00  -0.01   0.02
  20   1     0.24   0.25  -0.26     0.18   0.19  -0.15    -0.00   0.00  -0.00
  21   1     0.14   0.15  -0.14     0.01   0.11  -0.10    -0.00  -0.00  -0.00
  22   1     0.04  -0.10  -0.17     0.06  -0.09   0.05    -0.01  -0.01   0.00
  23   1    -0.07   0.11   0.07     0.08   0.14   0.07     0.00  -0.01   0.02
                     49                     50                     51
                        a                      a                      a 
 Frequencies --  2954.8554              2971.7427              2995.6623
 Red. masses --     1.9226                 1.5310                 1.6440
 Frc consts  --     0.0000                 0.0000                 0.0000
 IR Inten    --    41.5297                50.5418                31.6582
 Raman Activ --     0.0000                 0.0000                 0.0000
 Depolar     --     0.0000                 0.0000                 0.0000
 Atom AN      X      Y      Z        X      Y      Z        X      Y      Z
   1   6     0.02   0.01  -0.00    -0.01  -0.01  -0.00    -0.02   0.02   0.04
   2   6    -0.11  -0.15  -0.03     0.05   0.06  -0.01    -0.00  -0.07  -0.22
   3   6     0.04  -0.04   0.21     0.00   0.18   0.09    -0.01  -0.01  -0.04
   4   6     0.00   0.00   0.01     0.00   0.01   0.00    -0.00  -0.00  -0.00
   5   6    -0.01  -0.00  -0.01    -0.00  -0.01  -0.01     0.00   0.00   0.00
   6   6     0.00   0.00  -0.00     0.00  -0.00  -0.00    -0.02  -0.00   0.01
   7   6     0.00   0.00  -0.01    -0.01  -0.02  -0.00     0.00   0.00   0.01
   8   1    -0.03  -0.05   0.00     0.02   0.03  -0.00    -0.01  -0.01   0.01
   9   1     0.00   0.00  -0.01    -0.00   0.01   0.02    -0.01  -0.06  -0.14
  10   1    -0.04   0.01   0.01     0.02  -0.00  -0.01     0.09  -0.01  -0.02
  11   1     0.02   0.08   0.21     0.01   0.01   0.01     0.14   0.41   0.81
  12   1     0.38   0.45  -0.08    -0.18  -0.22   0.03    -0.14  -0.17  -0.01
  13   1    -0.08  -0.23  -0.48    -0.12  -0.29  -0.70     0.02   0.05   0.10
  14   1    -0.10   0.35  -0.28     0.12  -0.37   0.36     0.01  -0.03   0.02
  15   1     0.00   0.01   0.02     0.00   0.02   0.02    -0.00  -0.02  -0.02
  16   1     0.01  -0.01  -0.00    -0.00   0.00  -0.00    -0.00   0.00   0.00
  17   1     0.01   0.01  -0.00     0.01   0.01  -0.00    -0.01  -0.00   0.00
  18   1    -0.01  -0.00   0.00     0.00   0.00   0.00     0.03   0.02   0.00
  19   1    -0.00  -0.01   0.01     0.00   0.00  -0.00    -0.00   0.02  -0.02
  20   1     0.01  -0.00   0.00    -0.01   0.01  -0.00     0.02  -0.02   0.00
  21   1     0.00   0.00   0.00     0.00   0.03   0.03    -0.00  -0.01  -0.01
  22   1    -0.01  -0.00  -0.00     0.02   0.01  -0.00    -0.00  -0.00   0.00
  23   1     0.00  -0.01   0.02    -0.00   0.01  -0.02    -0.00   0.01  -0.01
                     52                     53                     54
                        a                      a                      a 
 Frequencies --  3020.1745              3022.2749              3023.1430
 Red. masses --     1.9085                 1.9210                 1.9117
 Frc consts  --     0.0000                 0.0000                 0.0000
 IR Inten    --    13.8994                 2.8627                 4.3374
 Raman Activ --     0.0000                 0.0000                 0.0000
 Depolar     --     0.0000                 0.0000                 0.0000
 Atom AN      X      Y      Z        X      Y      Z        X      Y      Z
   1   6     0.06  -0.00  -0.04     0.01  -0.01  -0.01    -0.04   0.01   0.02
   2   6     0.00   0.00  -0.00     0.00   0.00   0.00    -0.00  -0.00  -0.00
   3   6     0.00  -0.00   0.01    -0.00   0.01  -0.00    -0.00  -0.01  -0.00
   4   6     0.00   0.00   0.00    -0.00   0.00  -0.00     0.00  -0.00  -0.00
   5   6     0.19   0.14   0.06    -0.04   0.04   0.06     0.00   0.04   0.04
   6   6    -0.07  -0.06   0.04    -0.06  -0.09   0.09     0.16   0.04  -0.01
   7   6    -0.05  -0.06   0.02     0.07   0.10  -0.20    -0.11  -0.13  -0.15
   8   1    -0.03  -0.07  -0.01     0.01   0.01  -0.00    -0.00   0.01   0.00
   9   1     0.01   0.04   0.10     0.00   0.01   0.03    -0.01  -0.02  -0.04
  10   1    -0.19   0.04   0.06    -0.06   0.01   0.02     0.14  -0.03  -0.04
  11   1     0.00   0.00   0.01     0.00  -0.00  -0.00     0.00   0.01   0.01
  12   1    -0.01  -0.02   0.00    -0.00  -0.01   0.00     0.01   0.01  -0.00
  13   1    -0.00  -0.01  -0.02    -0.00  -0.00  -0.01     0.01   0.01   0.02
  14   1    -0.00   0.02  -0.02     0.00  -0.02   0.02    -0.00   0.01  -0.01
  15   1     0.01  -0.19  -0.25    -0.02  -0.18  -0.22    -0.01  -0.11  -0.14
  16   1    -0.01   0.06   0.01     0.04  -0.03   0.01     0.02  -0.01   0.01
  17   1    -0.66  -0.38   0.05     0.11   0.07   0.00    -0.02  -0.00   0.01
  18   1     0.25   0.13  -0.00     0.22   0.11   0.00    -0.47  -0.25   0.02
  19   1     0.00   0.09  -0.16     0.02   0.20  -0.33     0.02  -0.00   0.01
  20   1    -0.01  -0.01   0.01    -0.03   0.00   0.01    -0.10   0.12  -0.01
  21   1    -0.00   0.04   0.06     0.03   0.18   0.15     0.03   0.36   0.41
  22   1     0.19   0.12  -0.03    -0.33  -0.21   0.02     0.37   0.24  -0.08
  23   1    -0.01   0.05  -0.10     0.04  -0.31   0.55    -0.01  -0.13   0.18
                     55                     56                     57
                        a                      a                      a 
 Frequencies --  3023.6521              3029.0880              3030.0986
 Red. masses --     1.8434                 1.8952                 1.5582
 Frc consts  --     0.0000                 0.0000                 0.0000
 IR Inten    --    61.8485                92.2889                39.1384
 Raman Activ --     0.0000                 0.0000                 0.0000
 Depolar     --     0.0000                 0.0000                 0.0000
 Atom AN      X      Y      Z        X      Y      Z        X      Y      Z
   1   6    -0.24   0.01   0.09     0.01   0.00   0.01    -0.01  -0.02  -0.01
   2   6    -0.02  -0.00   0.03     0.00   0.00   0.00    -0.00  -0.00   0.00
   3   6     0.00  -0.00   0.01     0.00  -0.01  -0.00     0.00  -0.00   0.00
   4   6     0.00   0.00   0.00    -0.01  -0.01   0.00    -0.01  -0.00   0.00
   5   6     0.04   0.03  -0.00    -0.07  -0.10  -0.08    -0.09   0.05   0.11
   6   6    -0.06  -0.03   0.02    -0.09  -0.11   0.13    -0.10   0.01  -0.05
   7   6     0.00   0.01   0.00    -0.09  -0.11   0.01    -0.00  -0.12   0.03
   8   1     0.07   0.18   0.02     0.00   0.01   0.00     0.03   0.04  -0.00
   9   1    -0.04  -0.04  -0.09     0.00  -0.02  -0.04    -0.00   0.02   0.05
  10   1     0.82  -0.16  -0.26    -0.06   0.01   0.02     0.02  -0.01  -0.01
  11   1    -0.02  -0.05  -0.09    -0.00  -0.01  -0.02    -0.00  -0.01  -0.01
  12   1     0.06   0.06  -0.01     0.00   0.00  -0.00     0.01   0.01  -0.00
  13   1    -0.00  -0.01  -0.02     0.01   0.01   0.03     0.00  -0.00   0.00
  14   1    -0.01   0.02  -0.01    -0.01   0.03  -0.02    -0.00   0.02  -0.02
  15   1     0.01   0.01   0.00     0.02   0.26   0.33    -0.05  -0.33  -0.41
  16   1     0.02  -0.01   0.00    -0.01  -0.02  -0.01     0.04  -0.04   0.02
  17   1    -0.17  -0.10   0.01     0.22   0.12  -0.03     0.33   0.21  -0.01
  18   1     0.18   0.09  -0.00     0.28   0.14   0.01     0.30   0.17  -0.02
  19   1    -0.00   0.04  -0.07     0.03   0.30  -0.49    -0.03  -0.11   0.18
  20   1     0.03  -0.04   0.01     0.01  -0.04   0.02     0.08  -0.09  -0.00
  21   1    -0.00  -0.02  -0.02     0.00   0.12   0.16     0.03   0.23   0.29
  22   1    -0.02  -0.01   0.00     0.36   0.23  -0.05     0.01  -0.01   0.00
  23   1     0.00  -0.00   0.01    -0.02   0.06  -0.13    -0.02   0.21  -0.39
                     58                     59                     60
                        a                      a                      a 
 Frequencies --  3032.3179              3034.5352              3036.0779
 Red. masses --     1.7245                 1.7773                 1.3299
 Frc consts  --     0.0000                 0.0000                 0.0000
 IR Inten    --    38.0718               119.5194                55.4952
 Raman Activ --     0.0000                 0.0000                 0.0000
 Depolar     --     0.0000                 0.0000                 0.0000
 Atom AN      X      Y      Z        X      Y      Z        X      Y      Z
   1   6     0.04   0.05   0.09     0.04   0.11   0.20    -0.01  -0.01  -0.03
   2   6     0.00   0.01   0.01     0.01   0.02   0.04    -0.00  -0.00  -0.01
   3   6    -0.00   0.00  -0.00     0.00   0.00   0.01    -0.00  -0.01  -0.00
   4   6    -0.00  -0.00  -0.01     0.00   0.00   0.01     0.01  -0.00  -0.00
   5   6     0.04  -0.05  -0.07     0.00   0.04   0.04     0.04  -0.02  -0.06
   6   6    -0.10   0.06  -0.11     0.05  -0.04   0.05     0.06  -0.01   0.04
   7   6    -0.01  -0.04  -0.13     0.03   0.01   0.06     0.12  -0.05  -0.02
   8   1    -0.03  -0.06   0.01    -0.08  -0.12   0.03     0.00   0.00  -0.00
   9   1     0.00  -0.14  -0.36    -0.00  -0.31  -0.77     0.00   0.05   0.12
  10   1    -0.10   0.03   0.05    -0.06   0.03   0.05     0.02  -0.01  -0.01
  11   1    -0.01  -0.02  -0.04    -0.02  -0.06  -0.12     0.00   0.01   0.02
  12   1    -0.00  -0.00   0.00    -0.01  -0.00   0.01    -0.00  -0.00  -0.00
  13   1     0.00   0.01   0.01    -0.01  -0.02  -0.04     0.00   0.01   0.02
  14   1     0.00  -0.01   0.00    -0.00   0.01  -0.01    -0.00   0.01  -0.01
  15   1     0.03   0.23   0.28    -0.01  -0.14  -0.17     0.03   0.17   0.21
  16   1    -0.04   0.03  -0.01     0.01   0.00   0.01    -0.00   0.00  -0.01
  17   1    -0.15  -0.10  -0.00    -0.00   0.01   0.01    -0.18  -0.11   0.00
  18   1     0.30   0.17  -0.03    -0.11  -0.07   0.01    -0.20  -0.11   0.01
  19   1    -0.05  -0.26   0.42     0.03   0.12  -0.20     0.02   0.10  -0.16
  20   1     0.12  -0.12  -0.01    -0.09   0.08   0.00    -0.03   0.03   0.00
  21   1     0.03   0.26   0.28    -0.00  -0.07  -0.07     0.05   0.32   0.37
  22   1    -0.01  -0.01  -0.02    -0.09  -0.06   0.02    -0.47  -0.33   0.07
  23   1     0.01  -0.12   0.19    -0.01   0.10  -0.16    -0.00   0.19  -0.36
                     61                     62                     63
                        a                      a                      a 
 Frequencies --  3044.1980              3045.8134              3073.1758
 Red. masses --     1.5111                 1.5187                 1.6398
 Frc consts  --     0.0000                 0.0000                 0.0000
 IR Inten    --    13.9959                44.5298                35.1915
 Raman Activ --     0.0000                 0.0000                 0.0000
 Depolar     --     0.0000                 0.0000                 0.0000
 Atom AN      X      Y      Z        X      Y      Z        X      Y      Z
   1   6    -0.06  -0.19   0.02    -0.03  -0.07  -0.00    -0.02  -0.02   0.00
   2   6    -0.01  -0.02   0.00    -0.01  -0.01  -0.01    -0.00  -0.00   0.00
   3   6    -0.00  -0.00   0.00    -0.00  -0.00  -0.00     0.00  -0.00   0.00
   4   6    -0.00   0.00   0.00     0.00  -0.01  -0.00     0.01  -0.01   0.00
   5   6     0.00   0.02   0.00    -0.02   0.01  -0.02     0.17  -0.16   0.02
   6   6    -0.03   0.06   0.01     0.11  -0.16  -0.02     0.01  -0.02   0.00
   7   6    -0.00   0.00   0.00     0.00  -0.00   0.00     0.00  -0.00  -0.00
   8   1     0.45   0.75   0.00     0.15   0.24   0.00     0.06   0.09  -0.00
   9   1    -0.01  -0.08  -0.14    -0.00  -0.01  -0.01    -0.00  -0.00  -0.00
  10   1    -0.23   0.01   0.07    -0.05  -0.00   0.01     0.01  -0.01  -0.00
  11   1     0.00   0.00   0.01     0.00   0.02   0.03    -0.00   0.00   0.00
  12   1     0.03   0.03  -0.00     0.02   0.02  -0.00     0.01   0.01  -0.00
  13   1    -0.00  -0.00  -0.00     0.00   0.01   0.01    -0.00  -0.00  -0.00
  14   1    -0.00   0.01  -0.01    -0.00   0.00  -0.00    -0.00   0.01  -0.01
  15   1    -0.00  -0.01  -0.02     0.00   0.05   0.06     0.02  -0.06  -0.05
  16   1     0.05  -0.04   0.00     0.08  -0.07  -0.00    -0.73   0.61  -0.02
  17   1    -0.06  -0.03   0.00    -0.00   0.00  -0.00     0.09   0.02  -0.00
  18   1    -0.11  -0.05   0.00     0.23   0.09  -0.01     0.02   0.01   0.00
  19   1    -0.00   0.03  -0.04     0.01  -0.10   0.12     0.00   0.01  -0.02
  20   1     0.20  -0.18   0.01    -0.64   0.59  -0.04    -0.06   0.06  -0.00
  21   1    -0.00  -0.01  -0.01     0.00   0.01   0.01     0.00   0.01   0.01
  22   1     0.01   0.00  -0.00    -0.01  -0.01   0.00    -0.02  -0.01   0.00
  23   1    -0.00  -0.00   0.00    -0.00   0.02  -0.03     0.00  -0.00   0.00
