      -----------------------------------------------------------      
     |                   =====================                   |     
     |                           x T B                           |     
     |                   =====================                   |     
     |                         S. Grimme                         |     
     |          Mulliken Center for Theoretical Chemistry        |     
     |                    University of Bonn                     |     
      -----------------------------------------------------------      

   * xtb version 6.7.1 (edcfbbe) compiled by 'albert@albert-system' on 2024-07-22

   xtb is free software: you can redistribute it and/or modify it under
   the terms of the GNU Lesser General Public License as published by
   the Free Software Foundation, either version 3 of the License, or
   (at your option) any later version.
   
   xtb is distributed in the hope that it will be useful,
   but WITHOUT ANY WARRANTY; without even the implied warranty of
   MERCHANTABILITY or FITNESS FOR A PARTICULAR PURPOSE.  See the
   GNU Lesser General Public License for more details.
   
   Cite this work as:
   * C. Bannwarth, E. Caldeweyher, S. Ehlert, A. Hansen, P. Pracht,
     J. Seibert, S. Spicher, S. Grimme, WIREs Comput. Mol. Sci., 2020, 11,
     e01493. DOI: 10.1002/wcms.1493
   
   for GFN2-xTB:
   * C. Bannwarth, S. Ehlert and S. Grimme., J. Chem. Theory Comput., 2019,
     15, 1652-1671. DOI: 10.1021/acs.jctc.8b01176
   for GFN1-xTB:
   * S. Grimme, C. Bannwarth, P. Shushkov, J. Chem. Theory Comput., 2017,
     13, 1989-2009. DOI: 10.1021/acs.jctc.7b00118
   for GFN0-xTB:
   * P. Pracht, E. Caldeweyher, S. Ehlert, S. Grimme, ChemRxiv, 2019, preprint.
     DOI: 10.26434/chemrxiv.8326202.v1
   for GFN-FF:
   * S. Spicher and S. Grimme, Angew. Chem. Int. Ed., 2020, 59, 15665-15673.
     DOI: 10.1002/anie.202004239
   
   for ALPB and GBSA implicit solvation:
   * S. Ehlert, M. Stahn, S. Spicher, S. Grimme, J. Chem. Theory Comput.,
     2021, 17, 4250-4261. DOI: 10.1021/acs.jctc.1c00471
   
   for ddCOSMO and CPCM-X implicit solvation:
   * M. Stahn, S. Ehlert, S. Grimme, J. Phys. Chem. A,
     2023, XX, XXXX-XXXX. DOI: 10.1021/acs.jpca.3c04382
   
   for DFT-D4:
   * E. Caldeweyher, C. Bannwarth and S. Grimme, J. Chem. Phys., 2017,
     147, 034112. DOI: 10.1063/1.4993215
   * E. Caldeweyher, S. Ehlert, A. Hansen, H. Neugebauer, S. Spicher,
     C. Bannwarth and S. Grimme, J. Chem. Phys., 2019, 150, 154122.
     DOI: 10.1063/1.5090222
   * E. Caldeweyher, J.-M. Mewes, S. Ehlert and S. Grimme, Phys. Chem. Chem. Phys.
     2020, 22, 8499-8512. DOI: 10.1039/D0CP00502A
   
   for sTDA-xTB:
   * S. Grimme and C. Bannwarth, J. Chem. Phys., 2016, 145, 054103.
     DOI: 10.1063/1.4959605
   
   in the mass-spec context:
   * V. Asgeirsson, C. Bauer and S. Grimme, Chem. Sci., 2017, 8, 4879.
     DOI: 10.1039/c7sc00601b
   * J. Koopman and S. Grimme, ACS Omega 2019, 4, 12, 15120-15133.
     DOI: 10.1021/acsomega.9b02011
   
   for metadynamics refer to:
   * S. Grimme, J. Chem. Theory Comput., 2019, 155, 2847-2862
     DOI: 10.1021/acs.jctc.9b00143
   
   for SPH calculations refer to:
   * S. Spicher and S. Grimme, J. Chem. Theory Comput., 2021, 17, 1701-1714
     DOI: 10.1021/acs.jctc.0c01306
   
   for ONIOM refer to:
   * C. Plett, A. Katbashev, S. Ehlert, S. Grimme, M. Bursch,
     Phys. Chem. Chem. Phys., 2023, 25, 17860-17868. DOI: 10.1039/D3CP02178E
   
   for DIPRO refer to:
   * J. Kohn, N. Gildemeister, S. Grimme, D. Fazzi, A. Hansen,
     J. Chem. Phys., 2023, just accepted.
   
   for PTB refer to:
   * S. Grimme, M. Mueller, A. Hansen, J. Chem. Phys., 2023, 158, 124111.
     DOI: 10.1063/5.0137838
   
   with help from (in alphabetical order)
   P. Atkinson, C. Bannwarth, F. Bohle, G. Brandenburg, E. Caldeweyher
   M. Checinski, S. Dohm, S. Ehlert, S. Ehrlich, I. Gerasimov, C. Hölzer
   A. Katbashev, J. Kohn, J. Koopman, C. Lavigne, S. Lehtola, F. März, M. Müller,
   F. Musil, H. Neugebauer, J. Pisarek, C. Plett, P. Pracht, F. Pultar,
   J. Seibert, P. Shushkov, S. Spicher, M. Stahn, M. Steiner, T. Strunk,
   J. Stückrath, T. Rose, and J. Unsleber
   
 * started run on 2025/04/15 at 19:56:17.858     
   ID    Z sym.   atoms
    1    6 C      1, 2, 4-9
    2    8 O      3
    3    1 H      10-23

           -------------------------------------------------
          |                Calculation Setup                |
           -------------------------------------------------

          program call               : /software/projects/pawsey0265/mwang1/xtb/bin/xtb xtb_rrho.coord --gfn2 --ohess vtight --chrg 0 --enso --norestart -I rrho-xcontrol-inp --parallel 1
          hostname                   : nid002803
          coordinate file            : xtb_rrho.coord
          omp threads                :                     1


           -------------------------------------------------
          |                 G F N 2 - x T B                 |
           -------------------------------------------------

        Reference                      10.1021/acs.jctc.8b01176
      * Hamiltonian:
        H0-scaling (s, p, d)           1.850000    2.230000    2.230000
        zeta-weighting                 0.500000
      * Dispersion:
        s8                             2.700000
        a1                             0.520000
        a2                             5.000000
        s9                             5.000000
      * Repulsion:
        kExp                           1.500000    1.000000
        rExp                           1.000000
      * Coulomb:
        alpha                          2.000000
        third order                    shell-resolved
        anisotropic                    true
        a3                             3.000000
        a5                             4.000000
        cn-shift                       1.200000
        cn-exp                         4.000000
        max-rad                        5.000000


          ...................................................
          :                      SETUP                      :
          :.................................................:
          :  # basis functions                  50          :
          :  # atomic orbitals                  50          :
          :  # shells                           32          :
          :  # electrons                        52          :
          :  max. iterations                   250          :
          :  Hamiltonian                  GFN2-xTB          :
          :  restarted?                      false          :
          :  GBSA solvation                  false          :
          :  PC potential                    false          :
          :  electronic temp.          300.0000000     K    :
          :  accuracy                    1.0000000          :
          :  -> integral cutoff          0.2500000E+02      :
          :  -> integral neglect         0.1000000E-07      :
          :  -> SCF convergence          0.1000000E-05 Eh   :
          :  -> wf. convergence          0.1000000E-03 e    :
          :  Broyden damping             0.4000000          :
          :  net charge                          0          :
          :  unpaired electrons                  0          :
          ...................................................

 iter      E             dE          RMSdq      gap      omega  full diag
   1    -28.6359068 -0.286359E+02  0.313E+00    4.60       0.0  T
   2    -28.7031799 -0.672731E-01  0.159E+00    3.59       1.0  T
   3    -28.7104068 -0.722686E-02  0.105E+00    4.07       1.0  T
   4    -28.7140459 -0.363914E-02  0.197E-01    3.78       1.0  T
   5    -28.7143042 -0.258258E-03  0.689E-02    3.84       1.0  T
   6    -28.7143177 -0.135396E-04  0.251E-02    3.84       1.0  T
   7    -28.7143182 -0.479735E-06  0.645E-03    3.84       3.2  T
   8    -28.7143184 -0.228611E-06  0.198E-03    3.84      10.5  T
   9    -28.7143184 -0.805240E-09  0.763E-04    3.84      27.3  T
  10    -28.7143184 -0.515358E-08  0.256E-04    3.84      81.3  T

   *** convergence criteria satisfied after 10 iterations ***

         #    Occupation            Energy/Eh            Energy/eV
      -------------------------------------------------------------
         1        2.0000           -0.7030876             -19.1320
       ...           ...                  ...                  ...
        20        2.0000           -0.4653352             -12.6624
        21        2.0000           -0.4570784             -12.4377
        22        2.0000           -0.4396323             -11.9630
        23        2.0000           -0.4230616             -11.5121
        24        2.0000           -0.4189316             -11.3997
        25        2.0000           -0.4173505             -11.3567
        26        2.0000           -0.3884778             -10.5710 (HOMO)
        27                         -0.2474722              -6.7341 (LUMO)
        28                          0.0460596               1.2533
        29                          0.0773460               2.1047
        30                          0.0792905               2.1576
        31                          0.0909979               2.4762
       ...                                ...                  ...
        50                          0.6000430              16.3280
      -------------------------------------------------------------
                  HL-Gap            0.1410056 Eh            3.8370 eV
             Fermi-level           -0.3179750 Eh           -8.6525 eV

 SCC (total)                   0 d,  0 h,  0 min,  0.058 sec
 SCC setup                      ...        0 min,  0.000 sec (  0.531%)
 Dispersion                     ...        0 min,  0.000 sec (  0.383%)
 classical contributions        ...        0 min,  0.000 sec (  0.084%)
 integral evaluation            ...        0 min,  0.003 sec (  4.582%)
 iterations                     ...        0 min,  0.043 sec ( 74.561%)
 molecular gradient             ...        0 min,  0.011 sec ( 19.524%)
 printout                       ...        0 min,  0.000 sec (  0.284%)

         :::::::::::::::::::::::::::::::::::::::::::::::::::::
         ::                     SUMMARY                     ::
         :::::::::::::::::::::::::::::::::::::::::::::::::::::
         :: total energy             -28.347486528016 Eh    ::
         :: gradient norm              0.026977085342 Eh/a0 ::
         :: HOMO-LUMO gap              3.836958597155 eV    ::
         ::.................................................::
         :: SCC energy               -28.714197037982 Eh    ::
         :: -> isotropic ES            0.028365074114 Eh    ::
         :: -> anisotropic ES          0.005285345094 Eh    ::
         :: -> anisotropic XC          0.013097606055 Eh    ::
         :: -> dispersion             -0.017609110621 Eh    ::
         :: repulsion energy           0.366710509966 Eh    ::
         :: add. restraining           0.000000000000 Eh    ::
         :: total charge               0.000000000000 e     ::
         :::::::::::::::::::::::::::::::::::::::::::::::::::::

      ----------------------------------------------------------- 
     |                   =====================                   |
     |                        A N C O P T                        |
     |                   =====================                   |
     |               Approximate Normal Coordinate               |
     |                Rational Function Optimizer                |
      ----------------------------------------------------------- 
      ----------------------------------------------------------- 
     |                   =====================                   |
     |                        A N C O P T                        |
     |                   =====================                   |
     |               Approximate Normal Coordinate               |
     |                Rational Function Optimizer                |
      ----------------------------------------------------------- 

          ...................................................
          :                      SETUP                      :
          :.................................................:
          :   optimization level         verytight          :
          :   max. optcycles                   460          :
          :   ANC micro-cycles                  20          :
          :   degrees of freedom                63          :
          :.................................................:
          :   RF solver                   davidson          :
          :   write xtbopt.log                true          :
          :   linear?                        false          :
          :   energy convergence         0.1000000E-06 Eh   :
          :   grad. convergence          0.2000000E-03 Eh/α :
          :   maxmium RF displ.          1.0000000          :
          :   Hlow (freq-cutoff)         0.1000000E-01      :
          :   Hmax (freq-cutoff)         5.0000000          :
          :   S6 in model hess.         20.0000000          :
          ...................................................

generating ANC from exact Hessian ...
Using Lindh-Hessian (1995)
 Shifting diagonal of input Hessian by   8.068667469616641E-003
 Lowest  eigenvalues of input Hessian
    0.000000    0.000000    0.000000    0.000000    0.000000    0.000000
    0.010000    0.012022    0.012695    0.016838    0.019090    0.020457
    0.024566    0.027246    0.029632    0.036505    0.050607    0.055754
 Highest eigenvalues
    1.190804    1.202094    1.256955    1.260521    1.364053    2.096763
 

........................................................................
.............................. CYCLE    1 ..............................
........................................................................

 iter      E             dE          RMSdq      gap      omega  full diag
   1    -28.7143184 -0.287143E+02  0.791E-05    3.84       0.0  T
   2    -28.7143184 -0.611777E-10  0.461E-05    3.84     452.5  T
   3    -28.7143184 -0.229008E-10  0.208E-05    3.84    1001.2  T
     SCC iter.                  ...        0 min,  0.001 sec
     gradient                   ...        0 min,  0.005 sec
 * total energy  :   -28.3474865 Eh     change       -0.2918448E-09 Eh
   gradient norm :     0.0269806 Eh/α   predicted     0.0000000E+00 (-100.00%)
   displ. norm   :     0.1457860 α      lambda       -0.1674614E-02
   maximum displ.:     0.0725640 α      in ANC's #6, #24, #25, ...

........................................................................
.............................. CYCLE    2 ..............................
........................................................................

 iter      E             dE          RMSdq      gap      omega  full diag
   1    -28.7269741 -0.287270E+02  0.102E-01    3.90       0.0  T
   2    -28.7269984 -0.243173E-04  0.570E-02    3.88       1.0  T
   3    -28.7269974  0.104124E-05  0.224E-02    3.89       1.0  T
   4    -28.7270001 -0.277476E-05  0.458E-03    3.88       4.6  T
   5    -28.7270004 -0.256721E-06  0.146E-03    3.89      14.3  T
   6    -28.7270004 -0.989715E-08  0.525E-04    3.89      39.7  T
   7    -28.7270004 -0.109346E-08  0.201E-04    3.89     103.9  T
     SCC iter.                  ...        0 min,  0.003 sec
     gradient                   ...        0 min,  0.005 sec
 * total energy  :   -28.3484720 Eh     change       -0.9855005E-03 Eh
   gradient norm :     0.0073218 Eh/α   predicted    -0.8551412E-03 ( -13.23%)
   displ. norm   :     0.0738031 α      lambda       -0.1894314E-03
   maximum displ.:     0.0435145 α      in ANC's #6, #4, #3, ...

........................................................................
.............................. CYCLE    3 ..............................
........................................................................

 iter      E             dE          RMSdq      gap      omega  full diag
   1    -28.7312550 -0.287313E+02  0.397E-02    3.90       0.0  T
   2    -28.7312579 -0.288915E-05  0.223E-02    3.90       1.0  T
   3    -28.7312578  0.745254E-07  0.721E-03    3.90       2.9  T
   4    -28.7312581 -0.221773E-06  0.140E-03    3.90      14.9  T
   5    -28.7312581 -0.252556E-07  0.509E-04    3.90      40.9  T
   6    -28.7312581 -0.107547E-08  0.197E-04    3.90     106.0  T
     SCC iter.                  ...        0 min,  0.002 sec
     gradient                   ...        0 min,  0.005 sec
 * total energy  :   -28.3485746 Eh     change       -0.1026128E-03 Eh
   gradient norm :     0.0018759 Eh/α   predicted    -0.9523359E-04 (  -7.19%)
   displ. norm   :     0.1115748 α      lambda        0.1406728E-03
   maximum displ.:     0.0659550 α      in ANC's #6, #4, #3, ...

........................................................................
.............................. CYCLE    4 ..............................
........................................................................

 iter      E             dE          RMSdq      gap      omega  full diag
   1    -28.7372529 -0.287373E+02  0.595E-02    3.92       0.0  T
   2    -28.7372592 -0.628004E-05  0.336E-02    3.91       1.0  T
   3    -28.7372591  0.141833E-06  0.105E-02    3.92       2.0  T
   4    -28.7372595 -0.453933E-06  0.202E-03    3.91      10.3  T
   5    -28.7372596 -0.506651E-07  0.754E-04    3.91      27.6  T
   6    -28.7372596 -0.221534E-08  0.290E-04    3.91      71.8  T
     SCC iter.                  ...        0 min,  0.002 sec
     gradient                   ...        0 min,  0.005 sec
 * total energy  :   -28.3484049 Eh     change        0.1697310E-03 Eh
   gradient norm :     0.0115576 Eh/α   predicted     0.7072175E-04 ( -58.33%)
   displ. norm   :     0.0491915 α      lambda       -0.2526617E-03
   maximum displ.:     0.0193720 α      in ANC's #6, #4, #1, ...

........................................................................
.............................. CYCLE    5 ..............................
........................................................................

 iter      E             dE          RMSdq      gap      omega  full diag
   1    -28.7332785 -0.287333E+02  0.368E-02    3.90       0.0  T
   2    -28.7332807 -0.219553E-05  0.210E-02    3.90       1.0  T
   3    -28.7332806  0.943958E-07  0.661E-03    3.90       3.2  T
   4    -28.7332808 -0.221363E-06  0.128E-03    3.90      16.3  T
   5    -28.7332809 -0.202019E-07  0.496E-04    3.90      42.0  T
   6    -28.7332809 -0.647670E-09  0.204E-04    3.90     102.3  T
     SCC iter.                  ...        0 min,  0.002 sec
     gradient                   ...        0 min,  0.005 sec
 * total energy  :   -28.3485738 Eh     change       -0.1689259E-03 Eh
   gradient norm :     0.0042237 Eh/α   predicted    -0.1266370E-03 ( -25.03%)
   displ. norm   :     0.0297867 α      lambda       -0.5307977E-04
   maximum displ.:     0.0120792 α      in ANC's #6, #7, #10, ...

........................................................................
.............................. CYCLE    6 ..............................
........................................................................

 iter      E             dE          RMSdq      gap      omega  full diag
   1    -28.7307173 -0.287307E+02  0.200E-02    3.89       0.0  T
   2    -28.7307182 -0.922366E-06  0.111E-02    3.89       1.9  T
   3    -28.7307182  0.210327E-07  0.404E-03    3.89       5.2  T
   4    -28.7307183 -0.659365E-07  0.836E-04    3.89      24.9  T
   5    -28.7307183 -0.960177E-08  0.269E-04    3.89      77.6  T
     SCC iter.                  ...        0 min,  0.002 sec
     gradient                   ...        0 min,  0.005 sec
 * total energy  :   -28.3486004 Eh     change       -0.2659584E-04 Eh
   gradient norm :     0.0005709 Eh/α   predicted    -0.2656400E-04 (  -0.12%)
   displ. norm   :     0.0170319 α      lambda       -0.3024780E-05
   maximum displ.:     0.0097094 α      in ANC's #7, #6, #3, ...

........................................................................
.............................. CYCLE    7 ..............................
........................................................................

 iter      E             dE          RMSdq      gap      omega  full diag
   1    -28.7307346 -0.287307E+02  0.927E-03    3.89       0.0  T
   2    -28.7307346 -0.175226E-07  0.547E-03    3.89       3.8  T
   3    -28.7307346  0.151702E-08  0.711E-04    3.89      29.3  T
   4    -28.7307346 -0.723110E-08  0.258E-04    3.89      80.8  T
     SCC iter.                  ...        0 min,  0.013 sec
     gradient                   ...        0 min,  0.009 sec
 * total energy  :   -28.3486026 Eh     change       -0.2130351E-05 Eh
   gradient norm :     0.0005999 Eh/α   predicted    -0.1534401E-05 ( -27.97%)
   displ. norm   :     0.0169648 α      lambda       -0.1928629E-05
   maximum displ.:     0.0102577 α      in ANC's #7, #3, #6, ...

........................................................................
.............................. CYCLE    8 ..............................
........................................................................

 iter      E             dE          RMSdq      gap      omega  full diag
   1    -28.7307864 -0.287308E+02  0.100E-02    3.89       0.0  T
   2    -28.7307864 -0.144872E-07  0.588E-03    3.89       3.5  T
   3    -28.7307864 -0.105319E-08  0.508E-04    3.89      41.1  T
   4    -28.7307864 -0.269825E-08  0.210E-04    3.89      99.5  T
     SCC iter.                  ...        0 min,  0.002 sec
     gradient                   ...        0 min,  0.009 sec
 * total energy  :   -28.3486043 Eh     change       -0.1756082E-05 Eh
   gradient norm :     0.0001657 Eh/α   predicted    -0.9652489E-06 ( -45.03%)
   displ. norm   :     0.0089452 α      lambda       -0.3855098E-06
   maximum displ.:     0.0049358 α      in ANC's #3, #6, #4, ...

........................................................................
.............................. CYCLE    9 ..............................
........................................................................

 iter      E             dE          RMSdq      gap      omega  full diag
   1    -28.7308115 -0.287308E+02  0.599E-03    3.89       0.0  T
   2    -28.7308115 -0.408882E-08  0.352E-03    3.89       5.9  T
   3    -28.7308115 -0.117915E-09  0.307E-04    3.89      67.9  T
   4    -28.7308116 -0.122781E-08  0.124E-04    3.89     168.7  T
     SCC iter.                  ...        0 min,  0.003 sec
     gradient                   ...        0 min,  0.014 sec
 * total energy  :   -28.3486048 Eh     change       -0.4444244E-06 Eh
   gradient norm :     0.0001079 Eh/α   predicted    -0.1938439E-06 ( -56.38%)
   displ. norm   :     0.0203442 α      lambda       -0.6511967E-06
   maximum displ.:     0.0102190 α      in ANC's #1, #4, #3, ...

........................................................................
.............................. CYCLE   10 ..............................
........................................................................

 iter      E             dE          RMSdq      gap      omega  full diag
   1    -28.7308286 -0.287308E+02  0.128E-02    3.89       0.0  T
   2    -28.7308286 -0.180232E-07  0.749E-03    3.89       2.8  T
   3    -28.7308286 -0.332139E-08  0.507E-04    3.89      41.1  T
   4    -28.7308286 -0.219450E-08  0.247E-04    3.89      84.3  T
     SCC iter.                  ...        0 min,  0.003 sec
     gradient                   ...        0 min,  0.009 sec
 * total energy  :   -28.3486054 Eh     change       -0.6592193E-06 Eh
   gradient norm :     0.0001854 Eh/α   predicted    -0.3281571E-06 ( -50.22%)
   displ. norm   :     0.0190490 α      lambda       -0.4656551E-06
   maximum displ.:     0.0131323 α      in ANC's #1, #4, #6, ...

........................................................................
.............................. CYCLE   11 ..............................
........................................................................

 iter      E             dE          RMSdq      gap      omega  full diag
   1    -28.7308229 -0.287308E+02  0.102E-02    3.89       0.0  T
   2    -28.7308229 -0.114614E-07  0.599E-03    3.89       3.5  T
   3    -28.7308229 -0.294561E-08  0.364E-04    3.89      57.2  T
   4    -28.7308229 -0.700311E-09  0.190E-04    3.89     109.9  T
     SCC iter.                  ...        0 min,  0.010 sec
     gradient                   ...        0 min,  0.006 sec
 * total energy  :   -28.3486059 Eh     change       -0.4860233E-06 Eh
   gradient norm :     0.0001797 Eh/α   predicted    -0.2336382E-06 ( -51.93%)
   displ. norm   :     0.0096531 α      lambda       -0.2423091E-06
   maximum displ.:     0.0077223 α      in ANC's #1, #4, #6, ...

........................................................................
.............................. CYCLE   12 ..............................
........................................................................

 iter      E             dE          RMSdq      gap      omega  full diag
   1    -28.7308248 -0.287308E+02  0.409E-03    3.89       0.0  T
   2    -28.7308249 -0.219240E-08  0.241E-03    3.89       8.7  T
   3    -28.7308249 -0.486654E-09  0.155E-04    3.89     134.7  T
   4    -28.7308249 -0.141792E-09  0.785E-05    3.89     265.6  T
     SCC iter.                  ...        0 min,  0.004 sec
     gradient                   ...        0 min,  0.007 sec
 * total energy  :   -28.3486062 Eh     change       -0.2788792E-06 Eh
   gradient norm :     0.0000679 Eh/α   predicted    -0.1234600E-06 ( -55.73%)
   displ. norm   :     0.0081383 α      lambda       -0.1572693E-06
   maximum displ.:     0.0065683 α      in ANC's #1, #3, #6, ...

........................................................................
.............................. CYCLE   13 ..............................
........................................................................

 iter      E             dE          RMSdq      gap      omega  full diag
   1    -28.7308053 -0.287308E+02  0.278E-03    3.89       0.0  T
   2    -28.7308053 -0.848051E-09  0.165E-03    3.89      12.7  T
   3    -28.7308053  0.116540E-09  0.154E-04    3.89     135.3  T
   4    -28.7308053 -0.394753E-09  0.589E-05    3.89     354.2  T
     SCC iter.                  ...        0 min,  0.002 sec
     gradient                   ...        0 min,  0.005 sec
 * total energy  :   -28.3486064 Eh     change       -0.1843747E-06 Eh
   gradient norm :     0.0000680 Eh/α   predicted    -0.7996553E-07 ( -56.63%)
   displ. norm   :     0.0075234 α      lambda       -0.1114734E-06
   maximum displ.:     0.0060878 α      in ANC's #1, #3, #6, ...

........................................................................
.............................. CYCLE   14 ..............................
........................................................................

 iter      E             dE          RMSdq      gap      omega  full diag
   1    -28.7308047 -0.287308E+02  0.222E-03    3.89       0.0  T
   2    -28.7308047 -0.391321E-09  0.131E-03    3.89      15.9  T
   3    -28.7308047 -0.743228E-11  0.959E-05    3.89     217.5  T
   4    -28.7308047 -0.123336E-09  0.415E-05    3.89     502.8  T
     SCC iter.                  ...        0 min,  0.002 sec
     gradient                   ...        0 min,  0.005 sec
 * total energy  :   -28.3486065 Eh     change       -0.1334899E-06 Eh
   gradient norm :     0.0000701 Eh/α   predicted    -0.5627717E-07 ( -57.84%)
   displ. norm   :     0.0069425 α      lambda       -0.7602401E-07
   maximum displ.:     0.0056892 α      in ANC's #1, #3, #6, ...

........................................................................
.............................. CYCLE   15 ..............................
........................................................................

 iter      E             dE          RMSdq      gap      omega  full diag
   1    -28.7308101 -0.287308E+02  0.217E-03    3.89       0.0  T
   2    -28.7308101 -0.323279E-09  0.128E-03    3.89      16.3  T
   3    -28.7308101 -0.692211E-10  0.696E-05    3.89     299.5  T
   4    -28.7308101 -0.371116E-10  0.353E-05    3.89     590.5  T
     SCC iter.                  ...        0 min,  0.005 sec
     gradient                   ...        0 min,  0.005 sec
 * total energy  :   -28.3486066 Eh     change       -0.9157582E-07 Eh
   gradient norm :     0.0000428 Eh/α   predicted    -0.4057058E-07 ( -55.70%)
   displ. norm   :     0.0048071 α      lambda       -0.3323497E-07
   maximum displ.:     0.0041105 α      in ANC's #1, #3, #6, ...

   *** GEOMETRY OPTIMIZATION CONVERGED AFTER 15 ITERATIONS ***

------------------------------------------------------------------------
 total energy gain   :        -0.0011201 Eh       -0.7029 kcal/mol
 total RMSD          :         0.0589524 a0        0.0312 Å
 total power (kW/mol):        -0.1960493 (step)  -13.4738 (real)
------------------------------------------------------------------------

 ANCopt (total)                0 d,  0 h,  0 min,  0.218 sec
 optimizer setup                ...        0 min,  0.000 sec (  0.207%)
 model hessian                  ...        0 min,  0.015 sec (  6.902%)
 ANC generation                 ...        0 min,  0.001 sec (  0.263%)
 coordinate transformation      ...        0 min,  0.000 sec (  0.051%)
 single point calculation       ...        0 min,  0.198 sec ( 90.574%)
 optimization log               ...        0 min,  0.002 sec (  1.061%)
 hessian update                 ...        0 min,  0.000 sec (  0.053%)
 rational function              ...        0 min,  0.001 sec (  0.617%)

================
 final structure:
================
$coord
       -4.57729234799930       -1.63216501826050       -1.01235118108372      C
       -2.82422477188504        0.24599499922483        0.23409871719856      C
       -3.17101766022442        0.96538381080496        2.36657593515642      O
       -0.67265400707312        1.21330075807156       -1.41168217433034      C
        0.83668388779177       -0.92009394424819       -2.66383482401825      C
        2.32341996480136       -2.41273924016249       -0.69527134199749      C
        4.13159132253807       -0.66711422986589        0.71535237330498      C
        2.66517783304304        1.45714049160304        1.99645278606188      C
        1.11046889888452        2.94335224659618        0.07391714446950      C
       -6.36452883336237       -1.67605483643876        0.00021858785345      H
       -4.89662356256290       -1.16579643263741       -2.98577661378149      H
       -3.73543482252031       -3.50655136883053       -0.90923741184141      H
       -1.59192714715467        2.32666405038889       -2.90385932851383      H
       -0.40909073955412       -2.17239242283825       -3.72590197683038      H
        2.16182972473727       -0.07719831237490       -4.00518375320911      H
        1.02106201108991       -3.27558671391090        0.65464333282197      H
        3.37668594315571       -3.92753457781685       -1.62145571720097      H
        5.19031038424516       -1.73927348250477        2.12470458085118      H
        5.48795220649772        0.13466499810063       -0.62056664143253      H
        1.39902972507228        0.66381926282319        3.41591507680669      H
        3.97026018851815        2.73444269157432        2.95689126027216      H
        0.00172232541808        4.37998446335845        1.05298698776752      H
        2.37602473275808        3.89437144501206       -1.25183071478894      H
$end
 
 Bond Distances (Angstroems)
 ---------------------------
C1-C2=1.5111         C1-H10=1.0873        C1-H11=1.0863        C1-H12=1.0887        C2-C1=1.5111         C2-O3=1.2050         
C2-C4=1.5221         O3-C2=1.2050         C4-C2=1.5221         C4-C5=1.5335         C4-C9=1.5318         C4-H13=1.0988        
C5-C4=1.5335         C5-C6=1.5258         C5-H14=1.0907        C5-H15=1.0929        C6-C5=1.5258         C6-C7=1.5251         
C6-H16=1.0926        C6-H17=1.0924        C7-C6=1.5251         C7-C8=1.5249         C7-H18=1.0918        C7-H19=1.0931        
C8-C7=1.5249         C8-C9=1.5266         C8-H20=1.0906        C8-H21=1.0918        C9-C4=1.5318         C9-C8=1.5266         
C9-H22=1.0912        C9-H23=1.0927        H10-C1=1.0873        H11-C1=1.0863        H12-C1=1.0887        H13-C4=1.0988        
H14-C5=1.0907        H15-C5=1.0929        H16-C6=1.0926        H17-C6=1.0924        H18-C7=1.0918        H19-C7=1.0931        
H20-C8=1.0906        H21-C8=1.0918        H22-C9=1.0912        H23-C9=1.0927        
 C  H  Rav=1.0915 sigma=0.0029  Rmin=1.0863  Rmax=1.0988    14
 C  C  Rav=1.5251 sigma=0.0064  Rmin=1.5111  Rmax=1.5335     8
 O  C  Rav=1.2050 sigma=0.0000  Rmin=1.2050  Rmax=1.2050     1
 
 selected bond angles (degree)
 --------------------
H10-C1-C2=109.45               H11-C1-C2=111.45               H11-C1-H10=110.08              H12-C1-C2=109.03               
H12-C1-H10=108.17              H12-C1-H11=108.59              O3-C2-C1=121.54                C4-C2-C1=115.51                
C4-C2-O3=122.92                C5-C4-C2=112.91                C9-C4-C2=111.60                C9-C4-C5=109.93                
H13-C4-C2=105.09               H13-C4-C5=108.35               H13-C4-C9=108.73               C6-C5-C4=110.77                
H14-C5-C4=110.80               H14-C5-C6=110.42               H15-C5-C4=108.32               H15-C5-C6=108.90               
H15-C5-H14=107.52              C7-C6-C5=110.13                H16-C6-C5=109.72               H16-C6-C7=109.20               
H17-C6-C5=109.67               H17-C6-C7=110.12               H17-C6-H16=107.97              C8-C7-C6=110.17                
H18-C7-C6=109.97               H18-C7-C8=109.91               H19-C7-C6=109.30               H19-C7-C8=109.60               
H19-C7-H18=107.85              C9-C8-C7=110.96                H20-C8-C7=109.58               H20-C8-C9=109.04               
H21-C8-C7=109.96               H21-C8-C9=109.40               H21-C8-H20=107.84              C8-C9-C4=111.47                
H22-C9-C4=109.20               H22-C9-C8=109.41               H23-C9-C4=108.86               H23-C9-C8=109.56               
H23-C9-H22=108.27              
 
 selected dihedral angles (degree)
 ---------------------------------
O3-C2-C1-H10= 18.66           O3-C2-C1-H11=140.66           O3-C2-C1-H12=260.53           C4-C2-C1-H10=200.63           
C4-C2-C1-H11=322.63           C4-C2-C1-H12= 82.49           C5-C4-C2-C1=308.78            C5-C4-C2-O3=130.78            
C9-C4-C2-C1=184.35            C9-C4-C2-O3=  6.35            H13-C4-C2-C1= 66.68           H13-C4-C2-O3=248.68           
C6-C5-C4-C2=291.60            C6-C5-C4-C9= 56.94            C6-C5-C4-H13=175.63           H14-C5-C4-C2= 54.51           
H14-C5-C4-C9=179.85           H14-C5-C4-H13=298.54          H15-C5-C4-C2=172.23           H15-C5-C4-C9=297.57           
H15-C5-C4-H13= 56.26          C7-C6-C5-C4=301.04            C7-C6-C5-H14=177.91           C7-C6-C5-H15= 60.07           
H16-C6-C5-C4= 61.27           H16-C6-C5-H14=298.14          H16-C6-C5-H15=180.29          H17-C6-C5-C4=179.71           
H17-C6-C5-H14= 56.58          H17-C6-C5-H15=298.73          C8-C7-C6-C5= 58.60            C8-C7-C6-H16=298.06           
C8-C7-C6-H17=179.67           H18-C7-C6-C5=179.90           H18-C7-C6-H16= 59.36          H18-C7-C6-H17=300.97          
H19-C7-C6-C5=298.12           H19-C7-C6-H16=177.57          H19-C7-C6-H17= 59.18          C9-C8-C7-C6=302.86            
C9-C8-C7-H18=181.53           C9-C8-C7-H19= 63.16           H20-C8-C7-C6= 63.33           H20-C8-C7-H18=301.99          
H20-C8-C7-H19=183.63          H21-C8-C7-C6=181.69           H21-C8-C7-H18= 60.36          H21-C8-C7-H19=301.99          
C8-C9-C4-C2= 70.68            C8-C9-C4-C5=304.60            C8-C9-C4-H13=186.14           H22-C9-C4-C2=309.68           
H22-C9-C4-C5=183.60           H22-C9-C4-H13= 65.14          H23-C9-C4-C2=191.66           H23-C9-C4-C5= 65.58           
H23-C9-C4-H13=307.12          C4-C9-C8-C7= 55.98            C4-C9-C8-H20=295.19           C4-C9-C8-H21=177.48           
H22-C9-C8-C7=176.86           H22-C9-C8-H20= 56.08          H22-C9-C8-H21=298.36          H23-C9-C8-C7=295.41           
H23-C9-C8-H20=174.63          H23-C9-C8-H21= 56.92          
           -------------------------------------------------
          |                Final Singlepoint                |
           -------------------------------------------------

          ...................................................
          :                      SETUP                      :
          :.................................................:
          :  # basis functions                  50          :
          :  # atomic orbitals                  50          :
          :  # shells                           32          :
          :  # electrons                        52          :
          :  max. iterations                   250          :
          :  Hamiltonian                  GFN2-xTB          :
          :  restarted?                      false          :
          :  GBSA solvation                  false          :
          :  PC potential                    false          :
          :  electronic temp.          300.0000000     K    :
          :  accuracy                    1.0000000          :
          :  -> integral cutoff          0.2500000E+02      :
          :  -> integral neglect         0.1000000E-07      :
          :  -> SCF convergence          0.1000000E-05 Eh   :
          :  -> wf. convergence          0.1000000E-03 e    :
          :  Broyden damping             0.4000000          :
          :  net charge                          0          :
          :  unpaired electrons                  0          :
          ...................................................

 iter      E             dE          RMSdq      gap      omega  full diag
   1    -28.7308101 -0.287308E+02  0.140E-05    3.89       0.0  T
   2    -28.7308101 -0.962785E-12  0.850E-06    3.89    2453.4  T
   3    -28.7308101 -0.280664E-12  0.537E-06    3.89    3881.4  T

   *** convergence criteria satisfied after 3 iterations ***

         #    Occupation            Energy/Eh            Energy/eV
      -------------------------------------------------------------
         1        2.0000           -0.7063773             -19.2215
       ...           ...                  ...                  ...
        20        2.0000           -0.4655439             -12.6681
        21        2.0000           -0.4578401             -12.4585
        22        2.0000           -0.4402852             -11.9808
        23        2.0000           -0.4246014             -11.5540
        24        2.0000           -0.4173062             -11.3555
        25        2.0000           -0.4155698             -11.3082
        26        2.0000           -0.3881634             -10.5625 (HOMO)
        27                         -0.2453311              -6.6758 (LUMO)
        28                          0.0558403               1.5195
        29                          0.0838139               2.2807
        30                          0.0890910               2.4243
        31                          0.0968992               2.6368
       ...                                ...                  ...
        50                          0.6332730              17.2322
      -------------------------------------------------------------
                  HL-Gap            0.1428323 Eh            3.8867 eV
             Fermi-level           -0.3167473 Eh           -8.6191 eV

 SCC (total)                   0 d,  0 h,  0 min,  0.009 sec
 SCC setup                      ...        0 min,  0.000 sec (  4.261%)
 Dispersion                     ...        0 min,  0.000 sec (  0.795%)
 classical contributions        ...        0 min,  0.000 sec (  0.291%)
 integral evaluation            ...        0 min,  0.002 sec ( 22.101%)
 iterations                     ...        0 min,  0.001 sec ( 14.226%)
 molecular gradient             ...        0 min,  0.005 sec ( 57.164%)
 printout                       ...        0 min,  0.000 sec (  0.941%)

         :::::::::::::::::::::::::::::::::::::::::::::::::::::
         ::                     SUMMARY                     ::
         :::::::::::::::::::::::::::::::::::::::::::::::::::::
         :: total energy             -28.348606596809 Eh    ::
         :: gradient norm              0.000042725595 Eh/a0 ::
         :: HOMO-LUMO gap              3.886664278737 eV    ::
         ::.................................................::
         :: SCC energy               -28.730691865592 Eh    ::
         :: -> isotropic ES            0.028052177153 Eh    ::
         :: -> anisotropic ES          0.004930755624 Eh    ::
         :: -> anisotropic XC          0.012787489325 Eh    ::
         :: -> dispersion             -0.017754558163 Eh    ::
         :: repulsion energy           0.382085268783 Eh    ::
         :: add. restraining           0.000000000000 Eh    ::
         :: total charge              -0.000000000000 e     ::
         :::::::::::::::::::::::::::::::::::::::::::::::::::::

           ------------------------------------------------- 
          |                Numerical Hessian                |
           ------------------------------------------------- 
step length          :   0.00500
SCC accuracy         :   0.30000
Hessian scale factor :   1.00000
frozen atoms in %    :   0.00000    0
RMS gradient         :   0.00004
estimated CPU  time      0.02 min
estimated wall time      0.02 min

writing file <hessian>.

 projected vibrational frequencies (cm⁻¹)
eigval :       -0.00    -0.00    -0.00     0.00     0.00     0.00
eigval :       51.44   116.56   157.04   171.99   264.98   289.68
eigval :      361.88   386.05   416.91   455.41   525.80   549.65
eigval :      671.18   774.27   820.06   867.31   891.64   935.83
eigval :      945.89   956.22   970.46   986.73  1011.73  1086.57
eigval :     1096.73  1109.30  1118.54  1140.16  1152.68  1176.69
eigval :     1219.31  1247.13  1252.77  1282.37  1307.39  1332.30
eigval :     1346.51  1348.36  1355.18  1361.34  1368.81  1454.33
eigval :     1466.16  1475.88  1487.21  1488.96  1496.08  1505.53
eigval :     1767.05  2890.17  2958.39  2961.33  2965.53  2970.81
eigval :     2975.96  2981.94  2986.08  2993.70  2994.79  3007.51
eigval :     3019.72  3044.24  3051.34
           -------------------------------------------------
          |                Property Printout                |
           -------------------------------------------------

    * Orbital Energies and Occupations

         #    Occupation            Energy/Eh            Energy/eV
      -------------------------------------------------------------
         1        2.0000           -0.7063773             -19.2215
       ...           ...                  ...                  ...
        14        2.0000           -0.4989509             -13.5771
        15        2.0000           -0.4927548             -13.4085
        16        2.0000           -0.4823317             -13.1249
        17        2.0000           -0.4784728             -13.0199
        18        2.0000           -0.4710189             -12.8171
        19        2.0000           -0.4678525             -12.7309
        20        2.0000           -0.4655439             -12.6681
        21        2.0000           -0.4578400             -12.4585
        22        2.0000           -0.4402852             -11.9808
        23        2.0000           -0.4246014             -11.5540
        24        2.0000           -0.4173062             -11.3555
        25        2.0000           -0.4155698             -11.3082
        26        2.0000           -0.3881634             -10.5625 (HOMO)
        27                         -0.2453311              -6.6758 (LUMO)
        28                          0.0558403               1.5195
        29                          0.0838139               2.2807
        30                          0.0890910               2.4243
        31                          0.0968992               2.6368
        32                          0.1051949               2.8625
        33                          0.1118035               3.0423
        34                          0.1176371               3.2011
        35                          0.1466799               3.9914
        36                          0.1603226               4.3626
        37                          0.1695448               4.6136
       ...                                ...                  ...
        50                          0.6332731              17.2322
      -------------------------------------------------------------
                  HL-Gap            0.1428323 Eh            3.8867 eV
             Fermi-level           -0.3167473 Eh           -8.6191 eV

     #   Z          covCN         q      C6AA      α(0)
     1   6 C        3.753    -0.138    23.210     6.870
     2   6 C        2.811     0.242    22.962     7.851
     3   8 O        0.857    -0.358    20.865     6.124
     4   6 C        3.855    -0.041    21.260     6.558
     5   6 C        3.807    -0.057    21.601     6.616
     6   6 C        3.805    -0.053    21.529     6.605
     7   6 C        3.806    -0.056    21.573     6.612
     8   6 C        3.805    -0.057    21.595     6.616
     9   6 C        3.807    -0.053    21.526     6.605
    10   1 H        0.925     0.066     2.132     2.284
    11   1 H        0.925     0.053     2.280     2.361
    12   1 H        0.925     0.070     2.090     2.261
    13   1 H        0.923     0.045     2.379     2.412
    14   1 H        0.924     0.032     2.563     2.504
    15   1 H        0.924     0.039     2.460     2.453
    16   1 H        0.924     0.030     2.589     2.516
    17   1 H        0.924     0.028     2.621     2.532
    18   1 H        0.924     0.028     2.614     2.528
    19   1 H        0.924     0.031     2.579     2.511
    20   1 H        0.924     0.048     2.345     2.395
    21   1 H        0.924     0.029     2.604     2.524
    22   1 H        0.924     0.044     2.393     2.419
    23   1 H        0.924     0.030     2.586     2.515

 Mol. C6AA /au·bohr⁶  :       4064.920587
 Mol. C8AA /au·bohr⁸  :      88441.139457
 Mol. α(0) /au        :         94.671613


Wiberg/Mayer (AO) data.
largest (>0.10) Wiberg bond orders for each atom

 ---------------------------------------------------------------------------
     #   Z sym  total        # sym  WBO       # sym  WBO       # sym  WBO
 ---------------------------------------------------------------------------
     1   6 C    3.995 --     2 C    1.000    10 H    0.980    11 H    0.975
                            12 H    0.954
     2   6 C    3.914 --     3 O    1.869     1 C    1.000     4 C    0.973
     3   8 O    2.076 --     2 C    1.869
     4   6 C    3.995 --     9 C    0.996     5 C    0.982     2 C    0.973
                            13 H    0.940
     5   6 C    3.997 --     6 C    1.009     4 C    0.982    15 H    0.975
                            14 H    0.975
     6   6 C    3.998 --     5 C    1.009     7 C    1.009    17 H    0.977
                            16 H    0.976
     7   6 C    3.998 --     8 C    1.009     6 C    1.009    18 H    0.978
                            19 H    0.977
     8   6 C    3.997 --     7 C    1.009     9 C    1.009    21 H    0.977
                            20 H    0.975
     9   6 C    3.997 --     8 C    1.009     4 C    0.996    23 H    0.977
                            22 H    0.975
    10   1 H    0.995 --     1 C    0.980
    11   1 H    0.997 --     1 C    0.975
    12   1 H    0.995 --     1 C    0.954
    13   1 H    0.998 --     4 C    0.940
    14   1 H    0.999 --     5 C    0.975
    15   1 H    0.998 --     5 C    0.975
    16   1 H    0.999 --     6 C    0.976
    17   1 H    0.999 --     6 C    0.977
    18   1 H    0.999 --     7 C    0.978
    19   1 H    0.999 --     7 C    0.977
    20   1 H    0.998 --     8 C    0.975
    21   1 H    0.999 --     8 C    0.977
    22   1 H    0.998 --     9 C    0.975
    23   1 H    0.999 --     9 C    0.977
 ---------------------------------------------------------------------------

Topologies differ in total number of bonds
Writing topology from bond orders to xtbtopo.mol

molecular dipole:
                 x           y           z       tot (Debye)
 q only:        0.247      -0.344      -0.917
   full:        0.226      -0.418      -1.139       3.136
molecular quadrupole (traceless):
                xx          xy          yy          xz          yz          zz
 q only:        0.437       2.616       1.250       4.619      -0.856      -1.687
  q+dip:        0.684       3.366       1.269       4.610      -2.020      -1.953
   full:        0.647       2.687       1.724       5.329      -2.033      -2.371

           -------------------------------------------------
          |                Geometry Summary                 |
           -------------------------------------------------

      molecular mass/u    :      126.1964626
   center of mass at/Å    :       -0.0282352       0.0618369      -0.0134446
  moments of inertia/u·Å² :        0.2035132E+03   0.3641256E+03   0.4408213E+03
rotational constants/cm⁻¹ :        0.8283313E-01   0.4629621E-01   0.3824142E-01

 * 21 selected distances

     #   Z          #   Z                                           value/Å
     2   6 C        3   8 O                                       1.2049965
     4   6 C        5   6 C                                       1.5334604 (max)
     5   6 C        6   6 C                                       1.5257949
     6   6 C        7   6 C                                       1.5251463
     7   6 C        8   6 C                                       1.5249163
     4   6 C        9   6 C                                       1.5318389
     8   6 C        9   6 C                                       1.5265722
     1   6 C       10   1 H                                       1.0872549
     1   6 C       11   1 H                                       1.0862812 (min)
     1   6 C       12   1 H                                       1.0887018
     4   6 C       13   1 H                                       1.0987577
     5   6 C       14   1 H                                       1.0906949
     5   6 C       15   1 H                                       1.0929402
     6   6 C       16   1 H                                       1.0925827
     6   6 C       17   1 H                                       1.0924392
     7   6 C       18   1 H                                       1.0917845
     7   6 C       19   1 H                                       1.0931378
     8   6 C       20   1 H                                       1.0905883
     8   6 C       21   1 H                                       1.0918484
     9   6 C       22   1 H                                       1.0911590
     9   6 C       23   1 H                                       1.0926808

 * 3 distinct bonds (by element types)

   Z      Z             #   av. dist./Å        max./Å        min./Å
   1 H    6 C          14     1.0914894     1.0987577     1.0862812
   6 C    6 C           6     1.5279548     1.5334604     1.5249163
   6 C    8 O           1     1.2049965     1.2049965     1.2049965

           -------------------------------------------------
          |               Frequency Printout                |
           -------------------------------------------------
 projected vibrational frequencies (cm⁻¹)
eigval :       -0.00    -0.00    -0.00     0.00     0.00     0.00
eigval :       51.44   116.56   157.04   171.99   264.98   289.68
eigval :      361.88   386.05   416.91   455.41   525.80   549.65
eigval :      671.18   774.27   820.06   867.31   891.64   935.83
eigval :      945.89   956.22   970.46   986.73  1011.73  1086.57
eigval :     1096.73  1109.30  1118.54  1140.16  1152.68  1176.69
eigval :     1219.31  1247.13  1252.77  1282.37  1307.39  1332.30
eigval :     1346.51  1348.36  1355.18  1361.34  1368.81  1454.33
eigval :     1466.16  1475.88  1487.21  1488.96  1496.08  1505.53
eigval :     1767.05  2890.17  2958.39  2961.33  2965.53  2970.81
eigval :     2975.96  2981.94  2986.08  2993.70  2994.79  3007.51
eigval :     3019.72  3044.24  3051.34
 reduced masses (amu)
   1: 10.45   2: 10.66   3: 11.27   4: 11.07   5: 11.01   6: 10.33   7: 11.74   8:  9.62
   9:  2.10  10:  8.74  11:  8.59  12:  7.63  13:  8.30  14:  7.27  15:  9.60  16:  9.81
  17:  6.55  18: 10.52  19:  8.69  20:  8.95  21:  4.52  22:  7.27  23:  6.18  24:  7.66
  25:  7.32  26:  4.69  27:  5.23  28:  6.66  29:  7.37  30:  3.64  31:  6.32  32:  4.54
  33:  6.08  34:  3.01  35:  6.67  36:  6.46  37:  4.79  38:  3.92  39:  3.31  40:  5.83
  41:  6.66  42:  3.96  43:  4.70  44:  4.64  45:  5.23  46:  5.03  47:  3.31  48:  1.65
  49:  1.67  50:  1.91  51:  1.97  52:  1.90  53:  1.92  54:  2.01  55: 13.39  56:  1.75
  57:  1.86  58:  1.88  59:  1.86  60:  1.90  61:  1.69  62:  1.65  63:  1.62  64:  1.60
  65:  1.63  66:  1.67  67:  1.79  68:  1.45  69:  1.92
 IR intensities (km·mol⁻¹)
   1:  0.37   2:  0.56   3:  0.09   4:  0.57   5:  0.73   6:  0.70   7:  4.03   8:  0.50
   9:  0.33  10:  2.20  11:  1.94  12:  1.47  13:  0.48  14:  0.26  15:  0.42  16:  4.56
  17:  0.98  18:  5.86  19:  9.22  20:  2.26  21:  0.13  22:  1.65  23:  2.26  24:  4.24
  25:  6.28  26:  3.40  27: 17.44  28: 16.84  29:  6.49  30:  2.13  31:  1.11  32:  0.56
  33: 27.00  34:  5.94  35: 90.02  36:  7.58  37:  3.40  38:  0.30  39:  0.03  40:  3.21
  41: 15.18  42:  0.18  43:  1.04  44:  1.89  45:  0.98  46:  1.21  47: 29.42  48:  9.56
  49:  8.03  50:  0.74  51:  1.08  52:  0.75  53:  0.87  54:  0.70  55:284.10  56: 37.51
  57:  9.89  58:  9.10  59: 12.01  60: 75.12  61:  4.74  62:106.32  63: 99.45  64: 26.50
  65: 81.11  66: 55.52  67:  7.57  68: 10.32  69: 18.53
 Raman intensities (Ä⁴*amu⁻¹)
   1:  0.00   2:  0.00   3:  0.00   4:  0.00   5:  0.00   6:  0.00   7:  0.00   8:  0.00
   9:  0.00  10:  0.00  11:  0.00  12:  0.00  13:  0.00  14:  0.00  15:  0.00  16:  0.00
  17:  0.00  18:  0.00  19:  0.00  20:  0.00  21:  0.00  22:  0.00  23:  0.00  24:  0.00
  25:  0.00  26:  0.00  27:  0.00  28:  0.00  29:  0.00  30:  0.00  31:  0.00  32:  0.00
  33:  0.00  34:  0.00  35:  0.00  36:  0.00  37:  0.00  38:  0.00  39:  0.00  40:  0.00
  41:  0.00  42:  0.00  43:  0.00  44:  0.00  45:  0.00  46:  0.00  47:  0.00  48:  0.00
  49:  0.00  50:  0.00  51:  0.00  52:  0.00  53:  0.00  54:  0.00  55:  0.00  56:  0.00
  57:  0.00  58:  0.00  59:  0.00  60:  0.00  61:  0.00  62:  0.00  63:  0.00  64:  0.00
  65:  0.00  66:  0.00  67:  0.00  68:  0.00  69:  0.00
 output can be read by thermo (or use thermo option).
 writing <g98.out> molden fake output.
 recommended (thermochemical) frequency scaling factor: 1.0
           -------------------------------------------------
          |             Thermodynamic Functions             |
           -------------------------------------------------

Molecule has no symmetry elements
It seems to be the C1 point group
c1  symmetry found (for desy threshold:  0.10E+00) used in thermo

          ...................................................
          :                      SETUP                      :
          :.................................................:
          :  # frequencies                          63      :
          :  # imaginary freq.                       0      :
          :  linear?                             false      :
          :  only rotor calc.                    false      :
          :  symmetry                               c1      :
          :  rotational number                       1      :
          :  scaling factor                  1.0000000      :
          :  rotor cutoff                    0.0000000 cm⁻¹ :
          :  imag. cutoff                 -100.0000000 cm⁻¹ :
          :.................................................:

    mode    ω/cm⁻¹     T·S(HO)/kcal·mol⁻¹    T·S(FR)/kcal·mol⁻¹   T·S(vib)
   ------------------------------------------------------------------------
       1     51.44    -1.41956 (100.00%)    -1.04785 (  0.00%)    -1.41956
       2    116.56    -0.94116 (100.00%)    -0.80570 (  0.00%)    -0.94116
       3    157.04    -0.77075 (100.00%)    -0.71741 (  0.00%)    -0.77075
       4    171.99    -0.71961 (100.00%)    -0.69048 (  0.00%)    -0.71961
       5    264.98    -0.48560 (100.00%)    -0.56247 (  0.00%)    -0.48560
       6    289.68    -0.44001 (100.00%)    -0.53607 (  0.00%)    -0.44001
   ------------------------------------------------------------------------

   temp. (K)  partition function   enthalpy   heat capacity  entropy
                                   cal/mol     cal/K/mol   cal/K/mol   J/K/mol
 298.15  VIB   177.                 3928.688     29.023     23.465
         ROT  0.437E+06              888.752      2.981     28.789
         INT  0.774E+08             4817.440     32.004     52.254
         TR   0.137E+28             1481.254      4.968     40.393
         TOT                        6298.6943    36.9724    92.6474   387.6368

       T/K    H(0)-H(T)+PV         H(T)/Eh          T*S/Eh         G(T)/Eh
   ------------------------------------------------------------------------
    298.15    0.100376E-01    0.214671E+00    0.440198E-01    0.170651E+00
   ------------------------------------------------------------------------

         :::::::::::::::::::::::::::::::::::::::::::::::::::::
         ::                  THERMODYNAMIC                  ::
         :::::::::::::::::::::::::::::::::::::::::::::::::::::
         :: total free energy         -28.177955624212 Eh   ::
         ::.................................................::
         :: total energy              -28.348606596809 Eh   ::
         :: zero point energy           0.204633136940 Eh   ::
         :: G(RRHO) w/o ZPVE           -0.033982164344 Eh   ::
         :: G(RRHO) contrib.            0.170650972597 Eh   ::
         :::::::::::::::::::::::::::::::::::::::::::::::::::::

optimized geometry written to: xtbopt.coord


           -------------------------------------------------
          | TOTAL ENERGY              -28.348606596809 Eh   |
          | TOTAL ENTHALPY            -28.133935851654 Eh   |
          | TOTAL FREE ENERGY         -28.177955624212 Eh   |
          | GRADIENT NORM               0.000042770642 Eh/α |
          | HOMO-LUMO GAP               3.886665213479 eV   |
           -------------------------------------------------

------------------------------------------------------------------------
 * finished run on 2025/04/15 at 19:56:19.486     
------------------------------------------------------------------------
 total:
 * wall-time:     0 d,  0 h,  0 min,  1.627 sec
 *  cpu-time:     0 d,  0 h,  0 min,  1.542 sec
 * ratio c/w:     0.948 speedup
 SCF:
 * wall-time:     0 d,  0 h,  0 min,  0.058 sec
 *  cpu-time:     0 d,  0 h,  0 min,  0.026 sec
 * ratio c/w:     0.453 speedup
 ANC optimizer:
 * wall-time:     0 d,  0 h,  0 min,  0.230 sec
 *  cpu-time:     0 d,  0 h,  0 min,  0.201 sec
 * ratio c/w:     0.874 speedup
 analytical hessian:
 * wall-time:     0 d,  0 h,  0 min,  1.300 sec
 *  cpu-time:     0 d,  0 h,  0 min,  1.297 sec
 * ratio c/w:     0.998 speedup

