 Entering Gaussian System
 *********************************************
 Gaussian 98:
 frequency output generated by the xtb code
 *********************************************
                         Standard orientation:
 --------------------------------------------------------------------
  Center     Atomic     Atomic              Coordinates (Angstroms)
  Number     Number      Type              X           Y           Z
 --------------------------------------------------------------------
    1          6             0       -1.793015    0.733060    0.563947
    2          6             0       -0.702042   -0.319620    0.367672
    3          6             0       -0.998548   -1.138902   -0.886684
    4          6             0        0.702000    0.319552    0.367802
    5          6             0        1.792955   -0.733167    0.563975
    6          6             0        0.998627    1.139085   -0.886362
    7          1             0       -2.764114    0.253190    0.665256
    8          1             0       -1.607062    1.320146    1.460812
    9          1             0       -1.839599    1.408874   -0.286489
   10          1             0       -0.738995   -0.997801    1.229228
   11          1             0       -1.065088   -0.497357   -1.761542
   12          1             0       -0.229909   -1.887422   -1.059093
   13          1             0       -1.950429   -1.653885   -0.773727
   14          1             0        0.738871    0.997561    1.229494
   15          1             0        1.606919   -1.320424    1.460712
   16          1             0        1.839615   -1.408818   -0.286585
   17          1             0        2.764045   -0.253317    0.665465
   18          1             0        1.065203    0.497720   -1.761349
   19          1             0        1.950520    1.654008   -0.773231
   20          1             0        0.230028    1.887670   -1.058669
 --------------------------------------------------------------------
     1 basis functions        1 primitive gaussians
     1 alpha electrons        1 beta electrons
 
 Harmonic frequencies (cm**-1), IR intensities (km*mol⁻¹),
 Raman scattering activities (A**4/amu), Raman depolarization ratios,
 reduced masses (AMU), force constants (mDyne/A) and normal coordinates:
                      1                      2                      3
                        a                      a                      a 
 Frequencies --    55.2778               186.9132               219.4582
 Red. masses --     7.0844                 1.1406                 1.4650
 Frc consts  --     0.0000                 0.0000                 0.0000
 IR Inten    --     0.0003                 0.0245                 0.1176
 Raman Activ --     0.0000                 0.0000                 0.0000
 Depolar     --     0.0000                 0.0000                 0.0000
 Atom AN      X      Y      Z        X      Y      Z        X      Y      Z
   1   6    -0.01  -0.14   0.32    -0.01   0.02  -0.03    -0.02  -0.05  -0.08
   2   6     0.02  -0.04  -0.07    -0.00   0.03   0.01     0.04  -0.01  -0.03
   3   6    -0.06   0.28  -0.26     0.01  -0.04   0.05    -0.01   0.06  -0.07
   4   6    -0.02   0.04  -0.07    -0.00   0.03  -0.01     0.04  -0.01   0.03
   5   6     0.01   0.14   0.32    -0.01   0.02   0.03    -0.02  -0.05   0.08
   6   6     0.06  -0.28  -0.26     0.01  -0.04  -0.05    -0.01   0.06   0.07
   7   1    -0.01  -0.05  -0.01    -0.03   0.02  -0.24     0.04  -0.04   0.29
   8   1    -0.03  -0.17   0.18    -0.13  -0.14   0.11     0.14   0.21  -0.20
   9   1     0.03   0.08   0.19     0.16   0.14   0.09    -0.21  -0.22  -0.18
  10   1     0.04  -0.08  -0.07     0.00   0.02   0.01     0.02  -0.01  -0.01
  11   1    -0.12   0.16  -0.01    -0.33   0.02   0.06    -0.23   0.06   0.03
  12   1     0.03   0.15  -0.19     0.18   0.21  -0.16     0.10   0.16  -0.18
  13   1     0.03   0.00  -0.06     0.16  -0.28   0.15     0.10  -0.15   0.07
  14   1    -0.04   0.08  -0.07     0.00   0.02  -0.01     0.02  -0.01   0.01
  15   1     0.03   0.17   0.18    -0.13  -0.14  -0.11     0.14   0.21   0.20
  16   1    -0.03  -0.08   0.19     0.16   0.14  -0.09    -0.21  -0.22   0.18
  17   1     0.01   0.05  -0.01    -0.03   0.02   0.24     0.04  -0.04  -0.29
  18   1     0.12  -0.16  -0.01    -0.33   0.02  -0.06    -0.23   0.06  -0.03
  19   1    -0.03  -0.00  -0.06     0.16  -0.28  -0.15     0.10  -0.15  -0.07
  20   1    -0.03  -0.15  -0.19     0.18   0.21   0.16     0.10   0.16   0.18
                      4                      5                      6
                        a                      a                      a 
 Frequencies --   220.0981               252.3098               270.3506
 Red. masses --     1.8890                 2.5615                 8.4810
 Frc consts  --     0.0000                 0.0000                 0.0000
 IR Inten    --     0.0001                 0.0001                 0.1602
 Raman Activ --     0.0000                 0.0000                 0.0000
 Depolar     --     0.0000                 0.0000                 0.0000
 Atom AN      X      Y      Z        X      Y      Z        X      Y      Z
   1   6     0.02   0.05  -0.12     0.02   0.14  -0.11     0.34   0.20  -0.15
   2   6    -0.00   0.00   0.04    -0.02   0.06   0.09    -0.04  -0.21  -0.09
   3   6     0.03  -0.10   0.09     0.14   0.06   0.05    -0.30  -0.05  -0.14
   4   6     0.00  -0.00   0.04     0.02  -0.06   0.09    -0.04  -0.21   0.09
   5   6    -0.02  -0.05  -0.12    -0.02  -0.14  -0.11     0.34   0.20   0.15
   6   6    -0.03   0.10   0.09    -0.14  -0.06   0.05    -0.30  -0.05   0.14
   7   1    -0.05   0.05  -0.43     0.00   0.05   0.01     0.04   0.18  -0.05
   8   1    -0.21  -0.22   0.16     0.02   0.10  -0.07     0.16   0.05  -0.05
   9   1     0.28   0.23   0.12    -0.00  -0.01  -0.08     0.18   0.05  -0.05
  10   1    -0.02   0.02   0.02    -0.03   0.03   0.03    -0.07  -0.07  -0.03
  11   1    -0.01  -0.05   0.02    -0.29   0.07   0.08    -0.10   0.01  -0.02
  12   1     0.02  -0.02   0.03     0.24   0.27  -0.17    -0.11  -0.03  -0.09
  13   1     0.02  -0.05   0.05     0.22  -0.29   0.12    -0.10   0.02  -0.01
  14   1     0.02  -0.02   0.02     0.03  -0.03   0.03    -0.07  -0.07   0.03
  15   1     0.21   0.22   0.16    -0.02  -0.10  -0.07     0.16   0.05   0.05
  16   1    -0.28  -0.23   0.12     0.00   0.01  -0.08     0.18   0.05   0.05
  17   1     0.05  -0.05  -0.43    -0.00  -0.05   0.01     0.04   0.18   0.05
  18   1     0.02   0.05   0.02     0.29  -0.07   0.08    -0.10   0.01   0.02
  19   1    -0.02   0.05   0.05    -0.22   0.29   0.12    -0.10   0.02   0.01
  20   1    -0.02   0.02   0.03    -0.24  -0.27  -0.17    -0.11  -0.03   0.09
                      7                      8                      9
                        a                      a                      a 
 Frequencies --   294.9375               341.9164               397.4541
 Red. masses --     7.6414                 8.0136                 7.3444
 Frc consts  --     0.0000                 0.0000                 0.0000
 IR Inten    --     0.1882                 0.1876                 0.4386
 Raman Activ --     0.0000                 0.0000                 0.0000
 Depolar     --     0.0000                 0.0000                 0.0000
 Atom AN      X      Y      Z        X      Y      Z        X      Y      Z
   1   6    -0.03  -0.10   0.01     0.33   0.13   0.20    -0.02   0.23   0.23
   2   6    -0.00  -0.04  -0.14     0.05  -0.06  -0.19    -0.30  -0.05  -0.05
   3   6    -0.46  -0.23   0.08     0.15  -0.28  -0.08     0.21  -0.19  -0.10
   4   6     0.00   0.04  -0.14    -0.05   0.06  -0.19    -0.30  -0.05   0.05
   5   6     0.03   0.10   0.01    -0.33  -0.13   0.20    -0.02   0.23  -0.23
   6   6     0.46   0.23   0.08    -0.15   0.28  -0.08     0.21  -0.19   0.10
   7   1     0.00  -0.05   0.03     0.06   0.12   0.12    -0.04   0.17   0.17
   8   1     0.01  -0.03   0.00     0.23  -0.03   0.08     0.16   0.04   0.05
   9   1    -0.04  -0.02   0.01     0.08   0.09   0.10    -0.02   0.08   0.08
  10   1     0.06   0.01  -0.02     0.04  -0.01  -0.05    -0.10  -0.02  -0.02
  11   1    -0.31  -0.09   0.02     0.02  -0.14  -0.06     0.08  -0.08  -0.05
  12   1    -0.11  -0.01  -0.09     0.09  -0.05   0.03     0.17   0.03   0.07
  13   1    -0.08  -0.13   0.20     0.07  -0.13   0.00     0.11  -0.16  -0.11
  14   1    -0.06  -0.01  -0.02    -0.04   0.01  -0.05    -0.10  -0.02   0.02
  15   1    -0.01   0.03   0.00    -0.23   0.03   0.08     0.16   0.04  -0.05
  16   1     0.04   0.02   0.01    -0.08  -0.09   0.10    -0.02   0.08  -0.08
  17   1    -0.00   0.05   0.03    -0.06  -0.12   0.12    -0.04   0.17  -0.17
  18   1     0.31   0.09   0.02    -0.02   0.14  -0.06     0.08  -0.08   0.05
  19   1     0.08   0.13   0.20    -0.07   0.13   0.00     0.11  -0.16   0.11
  20   1     0.11   0.01  -0.09    -0.09   0.05   0.03     0.17   0.03  -0.07
                     10                     11                     12
                        a                      a                      a 
 Frequencies --   479.4578               543.2244               785.3011
 Red. masses --     8.2933                 7.5528                 8.2042
 Frc consts  --     0.0000                 0.0000                 0.0000
 IR Inten    --     1.5145                 2.6942                 0.9000
 Raman Activ --     0.0000                 0.0000                 0.0000
 Depolar     --     0.0000                 0.0000                 0.0000
 Atom AN      X      Y      Z        X      Y      Z        X      Y      Z
   1   6    -0.36   0.19   0.13    -0.01   0.02   0.03    -0.21   0.10   0.08
   2   6    -0.17   0.27  -0.18     0.17   0.26  -0.37    -0.23  -0.26   0.22
   3   6     0.04  -0.07  -0.02    -0.08  -0.18  -0.17    -0.09  -0.22  -0.21
   4   6     0.17  -0.27  -0.18     0.17   0.26   0.37     0.23   0.26   0.22
   5   6     0.36  -0.19   0.13    -0.01   0.02  -0.03     0.21  -0.10   0.08
   6   6    -0.04   0.07  -0.02    -0.08  -0.18   0.17     0.09   0.22  -0.21
   7   1    -0.06  -0.04   0.06     0.05  -0.09   0.06    -0.15   0.22   0.01
   8   1    -0.10  -0.02   0.09     0.03  -0.07   0.05    -0.00   0.09  -0.03
   9   1    -0.22   0.13   0.10    -0.15   0.09   0.08     0.11  -0.03  -0.04
  10   1    -0.08   0.09  -0.04     0.01   0.04  -0.13    -0.05  -0.09   0.04
  11   1     0.03  -0.12  -0.08    -0.11  -0.22  -0.16     0.03   0.05   0.01
  12   1     0.08   0.02   0.13    -0.07  -0.11   0.01     0.00  -0.02  -0.10
  13   1     0.04  -0.08  -0.01    -0.02  -0.01   0.15    -0.03  -0.09  -0.21
  14   1     0.08  -0.09  -0.04     0.01   0.04   0.13     0.05   0.09   0.04
  15   1     0.10   0.02   0.09     0.03  -0.07  -0.05     0.00  -0.09  -0.03
  16   1     0.22  -0.13   0.10    -0.15   0.09  -0.08    -0.11   0.03  -0.04
  17   1     0.06   0.04   0.06     0.05  -0.09  -0.06     0.15  -0.22   0.01
  18   1    -0.03   0.12  -0.08    -0.11  -0.22   0.16    -0.03  -0.05   0.01
  19   1    -0.04   0.08  -0.01    -0.02  -0.01  -0.15     0.03   0.09  -0.21
  20   1    -0.08  -0.02   0.13    -0.07  -0.11  -0.01    -0.00   0.02  -0.10
                     13                     14                     15
                        a                      a                      a 
 Frequencies --   929.3448               944.2604               948.0617
 Red. masses --     5.5762                 4.5400                 2.6836
 Frc consts  --     0.0000                 0.0000                 0.0000
 IR Inten    --     3.0707                 0.6765                 0.8080
 Raman Activ --     0.0000                 0.0000                 0.0000
 Depolar     --     0.0000                 0.0000                 0.0000
 Atom AN      X      Y      Z        X      Y      Z        X      Y      Z
   1   6    -0.14   0.23   0.01     0.06  -0.10  -0.22    -0.08   0.04  -0.15
   2   6     0.18  -0.07   0.11    -0.11  -0.04  -0.15     0.03  -0.07  -0.05
   3   6     0.06  -0.26  -0.11     0.06   0.07   0.23     0.09  -0.12   0.11
   4   6     0.18  -0.07  -0.11    -0.11  -0.04   0.15    -0.03   0.07  -0.05
   5   6    -0.14   0.23  -0.01     0.06  -0.10   0.22     0.08  -0.04  -0.15
   6   6     0.06  -0.26   0.11     0.06   0.07  -0.23    -0.09   0.12   0.11
   7   1     0.01  -0.03   0.02     0.03  -0.01   0.13    -0.01   0.01   0.11
   8   1    -0.08   0.03   0.04     0.28  -0.27   0.05     0.18  -0.18   0.05
   9   1    -0.15   0.11   0.05    -0.18   0.19   0.13    -0.18   0.20   0.12
  10   1     0.03   0.13   0.14    -0.15   0.11   0.05    -0.04   0.17   0.13
  11   1     0.01   0.18   0.15     0.02   0.14   0.15     0.02   0.24   0.23
  12   1    -0.10  -0.11  -0.34    -0.01   0.02  -0.05    -0.08  -0.07  -0.27
  13   1    -0.06   0.05  -0.11    -0.01   0.06   0.02    -0.05   0.10  -0.05
  14   1     0.03   0.13  -0.14    -0.15   0.11  -0.05     0.04  -0.17   0.13
  15   1    -0.08   0.03  -0.04     0.28  -0.27  -0.05    -0.18   0.18   0.05
  16   1    -0.15   0.11  -0.05    -0.17   0.19  -0.13     0.18  -0.20   0.12
  17   1     0.01  -0.03  -0.02     0.03  -0.01  -0.13     0.01  -0.01   0.11
  18   1     0.01   0.18  -0.15     0.02   0.14  -0.15    -0.02  -0.24   0.23
  19   1    -0.06   0.05   0.11    -0.01   0.06  -0.02     0.05  -0.10  -0.05
  20   1    -0.10  -0.11   0.34    -0.01   0.02   0.05     0.08   0.07  -0.27
                     16                     17                     18
                        a                      a                      a 
 Frequencies --   975.5014               985.4049               991.8063
 Red. masses --     5.0726                 3.5806                 4.7432
 Frc consts  --     0.0000                 0.0000                 0.0000
 IR Inten    --     0.0121                 0.7444                 0.3650
 Raman Activ --     0.0000                 0.0000                 0.0000
 Depolar     --     0.0000                 0.0000                 0.0000
 Atom AN      X      Y      Z        X      Y      Z        X      Y      Z
   1   6    -0.15   0.16   0.10     0.24   0.05  -0.02    -0.18  -0.16  -0.08
   2   6     0.23  -0.01   0.05    -0.05   0.08   0.04    -0.11  -0.09  -0.13
   3   6     0.23  -0.04  -0.13    -0.20  -0.06  -0.03     0.07   0.20   0.15
   4   6    -0.23   0.01   0.05    -0.05   0.08  -0.04     0.11   0.09  -0.13
   5   6     0.15  -0.16   0.10     0.24   0.05   0.02     0.18   0.16  -0.08
   6   6    -0.23   0.04  -0.13    -0.20  -0.06   0.03    -0.07  -0.20   0.15
   7   1    -0.05   0.05  -0.02     0.22  -0.32  -0.03    -0.21   0.30   0.07
   8   1    -0.11   0.12  -0.01    -0.15   0.01   0.04     0.27  -0.12  -0.03
   9   1     0.02  -0.02  -0.03    -0.16   0.01   0.01     0.13   0.03   0.02
  10   1     0.05  -0.08  -0.05    -0.09   0.09   0.06    -0.01  -0.10  -0.10
  11   1    -0.14  -0.07  -0.06     0.10   0.02   0.01    -0.04  -0.07  -0.05
  12   1    -0.16  -0.19  -0.22     0.11   0.12   0.13    -0.00   0.02   0.12
  13   1    -0.01   0.18   0.32     0.01  -0.18  -0.27     0.03   0.06   0.19
  14   1    -0.05   0.08  -0.05    -0.09   0.09  -0.06     0.01   0.10  -0.10
  15   1     0.11  -0.12  -0.01    -0.15   0.01  -0.04    -0.27   0.12  -0.03
  16   1    -0.02   0.02  -0.03    -0.16   0.01  -0.01    -0.13  -0.03   0.02
  17   1     0.05  -0.05  -0.02     0.22  -0.32   0.03     0.21  -0.30   0.07
  18   1     0.14   0.07  -0.06     0.10   0.02  -0.01     0.04   0.07  -0.05
  19   1     0.01  -0.18   0.32     0.01  -0.18   0.27    -0.03  -0.06   0.19
  20   1     0.16   0.19  -0.22     0.11   0.12  -0.13     0.00  -0.02   0.12
                     19                     20                     21
                        a                      a                      a 
 Frequencies --  1071.4287              1077.1771              1151.7488
 Red. masses --     5.0986                 5.6078                 7.2086
 Frc consts  --     0.0000                 0.0000                 0.0000
 IR Inten    --     5.2913                14.6316                19.3627
 Raman Activ --     0.0000                 0.0000                 0.0000
 Depolar     --     0.0000                 0.0000                 0.0000
 Atom AN      X      Y      Z        X      Y      Z        X      Y      Z
   1   6    -0.11   0.08   0.14     0.01   0.24   0.02    -0.23   0.12  -0.06
   2   6     0.15  -0.03  -0.29     0.00  -0.31  -0.05     0.33  -0.18  -0.13
   3   6    -0.01  -0.01   0.20     0.14   0.15   0.10    -0.19   0.04   0.12
   4   6    -0.15   0.03  -0.29     0.00  -0.31   0.05     0.33  -0.18   0.13
   5   6     0.11  -0.08   0.14     0.01   0.24  -0.02    -0.23   0.12   0.06
   6   6     0.01   0.01   0.20     0.14   0.15  -0.10    -0.19   0.04  -0.12
   7   1    -0.08   0.10  -0.06     0.11  -0.18  -0.03    -0.09   0.11   0.04
   8   1    -0.10   0.15  -0.04    -0.20   0.08   0.04     0.05  -0.02  -0.00
   9   1     0.12  -0.09  -0.06    -0.18   0.05   0.01    -0.06   0.10   0.04
  10   1     0.38   0.05  -0.02    -0.21  -0.19  -0.11     0.13  -0.15  -0.11
  11   1     0.09   0.16   0.16    -0.06  -0.06  -0.03     0.12   0.03   0.03
  12   1     0.05   0.06  -0.01    -0.04  -0.04   0.03     0.12   0.14   0.17
  13   1    -0.01  -0.02  -0.14     0.03   0.09   0.22     0.02  -0.14  -0.17
  14   1    -0.38  -0.05  -0.02    -0.21  -0.19   0.11     0.13  -0.15   0.11
  15   1     0.10  -0.15  -0.04    -0.20   0.08  -0.04     0.05  -0.02   0.00
  16   1    -0.12   0.09  -0.06    -0.18   0.05  -0.01    -0.06   0.10  -0.04
  17   1     0.08  -0.10  -0.06     0.11  -0.18   0.03    -0.09   0.11  -0.04
  18   1    -0.09  -0.16   0.16    -0.06  -0.06   0.03     0.12   0.03  -0.03
  19   1     0.01   0.02  -0.14     0.03   0.09  -0.22     0.02  -0.14   0.17
  20   1    -0.05  -0.06  -0.01    -0.04  -0.04  -0.03     0.12   0.14  -0.17
                     22                     23                     24
                        a                      a                      a 
 Frequencies --  1179.0662              1183.7671              1223.9978
 Red. masses --     7.1623                 6.8689                 6.3113
 Frc consts  --     0.0000                 0.0000                 0.0000
 IR Inten    --     0.0354                 0.7473                 2.6284
 Raman Activ --     0.0000                 0.0000                 0.0000
 Depolar     --     0.0000                 0.0000                 0.0000
 Atom AN      X      Y      Z        X      Y      Z        X      Y      Z
   1   6    -0.04   0.25  -0.12    -0.05   0.02  -0.17    -0.11  -0.03  -0.10
   2   6     0.14  -0.40   0.01     0.07  -0.09   0.39     0.33   0.10   0.22
   3   6    -0.07   0.10   0.06    -0.03   0.12  -0.24    -0.12   0.03  -0.19
   4   6    -0.14   0.40   0.01     0.07  -0.09  -0.39    -0.33  -0.10   0.22
   5   6     0.04  -0.25  -0.12    -0.05   0.02   0.17     0.11   0.03  -0.10
   6   6     0.07  -0.10   0.06    -0.03   0.12   0.24     0.12  -0.03  -0.19
   7   1     0.07  -0.08   0.04     0.00   0.00   0.08    -0.07   0.11   0.07
   8   1    -0.07  -0.03   0.05     0.11  -0.14   0.03     0.13  -0.07  -0.01
   9   1    -0.24   0.16   0.06    -0.11   0.14   0.08     0.01   0.10   0.06
  10   1     0.08  -0.25  -0.11     0.05   0.06   0.16     0.26   0.20   0.20
  11   1     0.03  -0.04  -0.03    -0.06  -0.21  -0.22     0.03  -0.11  -0.14
  12   1     0.05   0.06   0.15    -0.01  -0.02   0.12     0.04   0.04   0.10
  13   1     0.02  -0.05   0.01     0.05  -0.04   0.08     0.02  -0.08  -0.04
  14   1    -0.08   0.25  -0.11     0.05   0.06  -0.16    -0.26  -0.20   0.20
  15   1     0.07   0.03   0.05     0.11  -0.14  -0.03    -0.13   0.07  -0.01
  16   1     0.24  -0.16   0.06    -0.11   0.14  -0.08    -0.01  -0.10   0.06
  17   1    -0.07   0.08   0.04     0.00   0.00  -0.08     0.07  -0.11   0.07
  18   1    -0.03   0.04  -0.03    -0.06  -0.21   0.22    -0.03   0.11  -0.14
  19   1    -0.02   0.05   0.01     0.05  -0.04  -0.08    -0.02   0.08  -0.04
  20   1    -0.05  -0.06   0.15    -0.01  -0.02  -0.12    -0.04  -0.04   0.10
                     25                     26                     27
                        a                      a                      a 
 Frequencies --  1306.4741              1314.6368              1353.0562
 Red. masses --     3.2226                 5.5081                 5.1318
 Frc consts  --     0.0000                 0.0000                 0.0000
 IR Inten    --     4.5164                 1.3256                 1.7084
 Raman Activ --     0.0000                 0.0000                 0.0000
 Depolar     --     0.0000                 0.0000                 0.0000
 Atom AN      X      Y      Z        X      Y      Z        X      Y      Z
   1   6    -0.05  -0.09   0.12     0.07   0.03   0.06     0.06   0.04  -0.11
   2   6     0.22  -0.09  -0.10    -0.25  -0.30  -0.11    -0.35   0.15   0.15
   3   6    -0.04   0.06  -0.03     0.07   0.13  -0.08     0.08  -0.02  -0.01
   4   6     0.22  -0.09   0.10     0.25   0.30  -0.11     0.35  -0.15   0.15
   5   6    -0.05  -0.09  -0.12    -0.07  -0.03   0.06    -0.06  -0.04  -0.11
   6   6    -0.04   0.06   0.03    -0.07  -0.13  -0.08    -0.08   0.02  -0.01
   7   1    -0.09   0.12  -0.01     0.02  -0.03  -0.03     0.06  -0.08   0.05
   8   1    -0.05   0.09  -0.03    -0.10   0.04   0.02     0.03  -0.10   0.04
   9   1     0.08  -0.06  -0.01    -0.04  -0.04  -0.02    -0.03   0.03  -0.00
  10   1    -0.46   0.30   0.21     0.11   0.35   0.31     0.49  -0.15  -0.09
  11   1     0.02  -0.03  -0.04    -0.07  -0.05  -0.07    -0.06  -0.02  -0.01
  12   1     0.03   0.03   0.06    -0.02  -0.03   0.09    -0.06  -0.07  -0.08
  13   1     0.02  -0.02   0.02     0.03   0.05   0.15    -0.01   0.03  -0.01
  14   1    -0.46   0.30  -0.21    -0.11  -0.35   0.31    -0.49   0.15  -0.09
  15   1    -0.05   0.09   0.03     0.10  -0.04   0.02    -0.03   0.10   0.04
  16   1     0.08  -0.06   0.01     0.04   0.04  -0.02     0.03  -0.03  -0.00
  17   1    -0.09   0.12   0.01    -0.02   0.03  -0.03    -0.06   0.08   0.05
  18   1     0.02  -0.03   0.04     0.07   0.05  -0.07     0.06   0.02  -0.01
  19   1     0.02  -0.02  -0.02    -0.03  -0.05   0.15     0.01  -0.03  -0.01
  20   1     0.03   0.03  -0.06     0.02   0.03   0.09     0.06   0.07  -0.08
                     28                     29                     30
                        a                      a                      a 
 Frequencies --  1360.6677              1404.3785              1410.3508
 Red. masses --     4.4168                 3.3623                 3.3335
 Frc consts  --     0.0000                 0.0000                 0.0000
 IR Inten    --     6.4440                 2.4937                 4.4608
 Raman Activ --     0.0000                 0.0000                 0.0000
 Depolar     --     0.0000                 0.0000                 0.0000
 Atom AN      X      Y      Z        X      Y      Z        X      Y      Z
   1   6    -0.01  -0.07  -0.05    -0.15   0.15   0.04    -0.10   0.12   0.05
   2   6     0.13   0.24   0.26     0.03  -0.07  -0.03    -0.00  -0.05  -0.07
   3   6    -0.00  -0.07   0.06     0.02   0.14   0.17     0.05   0.15   0.21
   4   6     0.13   0.24  -0.26    -0.03   0.07  -0.03    -0.00  -0.05   0.07
   5   6    -0.01  -0.07   0.05     0.15  -0.15   0.04    -0.10   0.12  -0.05
   6   6    -0.00  -0.07  -0.06    -0.02  -0.14   0.17     0.05   0.15  -0.21
   7   1    -0.02   0.05   0.05     0.11  -0.23  -0.02     0.06  -0.15  -0.07
   8   1     0.04  -0.02  -0.01     0.20  -0.12   0.05     0.16  -0.10   0.04
   9   1     0.02   0.04   0.03     0.19  -0.12  -0.11     0.11  -0.12  -0.11
  10   1    -0.38  -0.30  -0.24    -0.04   0.05   0.04     0.03   0.08   0.05
  11   1    -0.01  -0.04  -0.01    -0.02  -0.22  -0.16    -0.06  -0.25  -0.18
  12   1    -0.04  -0.03  -0.13    -0.13  -0.07  -0.20    -0.15  -0.08  -0.24
  13   1    -0.01  -0.04  -0.14     0.05  -0.13  -0.21     0.04  -0.11  -0.28
  14   1    -0.38  -0.30   0.24     0.04  -0.05   0.04     0.03   0.08  -0.05
  15   1     0.04  -0.02   0.01    -0.20   0.12   0.05     0.16  -0.10  -0.04
  16   1     0.02   0.04  -0.03    -0.19   0.12  -0.11     0.11  -0.12   0.11
  17   1    -0.02   0.05  -0.05    -0.11   0.23  -0.02     0.06  -0.15   0.07
  18   1    -0.01  -0.04   0.01     0.02   0.22  -0.16    -0.06  -0.25   0.18
  19   1    -0.01  -0.04   0.14    -0.05   0.13  -0.21     0.04  -0.11   0.28
  20   1    -0.04  -0.03   0.13     0.13   0.07  -0.20    -0.15  -0.08   0.24
                     31                     32                     33
                        a                      a                      a 
 Frequencies --  1420.2843              1424.6148              1491.2377
 Red. masses --     3.1456                 3.0258                 1.5927
 Frc consts  --     0.0000                 0.0000                 0.0000
 IR Inten    --     4.7778                 0.3231                 0.4559
 Raman Activ --     0.0000                 0.0000                 0.0000
 Depolar     --     0.0000                 0.0000                 0.0000
 Atom AN      X      Y      Z        X      Y      Z        X      Y      Z
   1   6    -0.20   0.17   0.02    -0.15   0.15   0.03     0.08   0.06  -0.00
   2   6     0.05   0.02   0.04     0.01  -0.00   0.01    -0.01   0.02   0.02
   3   6    -0.04  -0.10  -0.12    -0.03  -0.10  -0.18    -0.13   0.00   0.02
   4   6     0.05   0.02  -0.04    -0.01   0.00   0.01    -0.01   0.02  -0.02
   5   6    -0.20   0.17  -0.02     0.15  -0.15   0.03     0.08   0.06   0.00
   6   6    -0.04  -0.10   0.12     0.03   0.10  -0.18    -0.13   0.00  -0.02
   7   1     0.13  -0.28  -0.00     0.10  -0.23  -0.04    -0.06   0.14  -0.00
   8   1     0.26  -0.16   0.06     0.23  -0.15   0.06    -0.08  -0.20   0.15
   9   1     0.26  -0.14  -0.13     0.18  -0.14  -0.13    -0.14  -0.19  -0.14
  10   1    -0.11  -0.03  -0.02     0.01  -0.01  -0.00    -0.01  -0.01  -0.01
  11   1     0.04   0.13   0.09     0.03   0.23   0.15     0.40  -0.06  -0.07
  12   1     0.10   0.07   0.12     0.10   0.04   0.24     0.04   0.11  -0.24
  13   1    -0.04   0.09   0.16    -0.02   0.07   0.22     0.06  -0.07   0.24
  14   1    -0.11  -0.03   0.02    -0.01   0.01  -0.00    -0.01  -0.01   0.01
  15   1     0.26  -0.16  -0.06    -0.23   0.15   0.06    -0.08  -0.20  -0.15
  16   1     0.26  -0.14   0.13    -0.18   0.14  -0.13    -0.14  -0.19   0.14
  17   1     0.13  -0.28   0.00    -0.10   0.23  -0.04    -0.06   0.14   0.00
  18   1     0.04   0.13  -0.09    -0.03  -0.23   0.15     0.40  -0.06   0.07
  19   1    -0.04   0.09  -0.16     0.02  -0.07   0.22     0.06  -0.07  -0.24
  20   1     0.10   0.07  -0.12    -0.10  -0.04   0.24     0.04   0.11   0.24
                     34                     35                     36
                        a                      a                      a 
 Frequencies --  1498.3262              1498.9284              1506.1326
 Red. masses --     1.5890                 1.5553                 1.5578
 Frc consts  --     0.0000                 0.0000                 0.0000
 IR Inten    --     0.7413                 0.2851                 2.5609
 Raman Activ --     0.0000                 0.0000                 0.0000
 Depolar     --     0.0000                 0.0000                 0.0000
 Atom AN      X      Y      Z        X      Y      Z        X      Y      Z
   1   6     0.03   0.05  -0.11    -0.05  -0.07  -0.01     0.06   0.07  -0.09
   2   6     0.01  -0.02  -0.03     0.00   0.01  -0.01     0.06   0.03  -0.03
   3   6     0.04  -0.07   0.06     0.06   0.10  -0.06     0.02   0.04  -0.02
   4   6     0.01  -0.02   0.03    -0.00  -0.01  -0.01    -0.06  -0.03  -0.03
   5   6     0.03   0.05   0.11     0.05   0.07  -0.01    -0.06  -0.07  -0.09
   6   6     0.04  -0.07  -0.06    -0.06  -0.10  -0.06    -0.02  -0.04  -0.02
   7   1     0.01   0.07   0.35     0.05  -0.10   0.02    -0.04   0.16   0.31
   8   1    -0.27  -0.16   0.15     0.04   0.20  -0.14    -0.28  -0.27   0.23
   9   1     0.14  -0.07  -0.07     0.11   0.19   0.15     0.05  -0.19  -0.16
  10   1     0.01   0.03   0.02    -0.01  -0.02  -0.02    -0.05   0.01  -0.01
  11   1    -0.16  -0.11  -0.06    -0.13   0.16   0.12    -0.07   0.08   0.06
  12   1     0.16   0.16  -0.02    -0.23  -0.29   0.21    -0.11  -0.13   0.10
  13   1    -0.15   0.26  -0.13     0.14  -0.27  -0.06     0.07  -0.13  -0.05
  14   1     0.01   0.03  -0.02     0.01   0.02  -0.02     0.05  -0.01  -0.01
  15   1    -0.27  -0.16  -0.15    -0.04  -0.20  -0.14     0.28   0.27   0.23
  16   1     0.14  -0.07   0.07    -0.11  -0.19   0.15    -0.05   0.19  -0.16
  17   1     0.01   0.07  -0.35    -0.05   0.10   0.02     0.04  -0.16   0.31
  18   1    -0.16  -0.11   0.06     0.13  -0.16   0.12     0.07  -0.08   0.06
  19   1    -0.15   0.26   0.13    -0.14   0.27  -0.06    -0.07   0.13  -0.05
  20   1     0.16   0.16   0.02     0.23   0.29   0.21     0.11   0.13   0.10
                     37                     38                     39
                        a                      a                      a 
 Frequencies --  1510.6904              1511.6446              1519.4342
 Red. masses --     1.5733                 1.5616                 1.5468
 Frc consts  --     0.0000                 0.0000                 0.0000
 IR Inten    --     1.0225                 5.4988                 1.9343
 Raman Activ --     0.0000                 0.0000                 0.0000
 Depolar     --     0.0000                 0.0000                 0.0000
 Atom AN      X      Y      Z        X      Y      Z        X      Y      Z
   1   6    -0.07  -0.04  -0.12     0.07   0.08   0.04     0.02  -0.01   0.10
   2   6    -0.03  -0.04  -0.03     0.04   0.03   0.01     0.01  -0.02   0.04
   3   6    -0.03  -0.04   0.02     0.07   0.01  -0.06     0.00  -0.10   0.05
   4   6     0.03   0.04  -0.03     0.04   0.03  -0.01     0.01  -0.02  -0.04
   5   6     0.07   0.04  -0.12     0.07   0.08  -0.04     0.02  -0.01  -0.10
   6   6     0.03   0.04   0.02     0.07   0.01   0.06     0.00  -0.10  -0.05
   7   1     0.11  -0.14   0.39    -0.09   0.17  -0.14    -0.05   0.02  -0.33
   8   1    -0.18   0.11  -0.04     0.01  -0.24   0.16     0.20   0.05  -0.07
   9   1     0.37   0.18   0.12    -0.24  -0.25  -0.19    -0.23  -0.02   0.00
  10   1    -0.02   0.02   0.01    -0.03  -0.02  -0.02    -0.00  -0.01   0.01
  11   1     0.08  -0.05  -0.04    -0.24   0.12   0.10    -0.06  -0.13  -0.09
  12   1     0.11   0.13  -0.08    -0.08  -0.14   0.23     0.22   0.24  -0.07
  13   1    -0.05   0.11   0.06     0.02  -0.05  -0.12    -0.17   0.30  -0.05
  14   1     0.02  -0.02   0.01    -0.03  -0.02   0.02    -0.00  -0.01  -0.01
  15   1     0.18  -0.11  -0.04     0.01  -0.24  -0.16     0.20   0.05   0.07
  16   1    -0.37  -0.18   0.12    -0.24  -0.25   0.19    -0.23  -0.02  -0.00
  17   1    -0.11   0.14   0.39    -0.09   0.17   0.14    -0.05   0.02   0.33
  18   1    -0.08   0.05  -0.04    -0.24   0.12  -0.10    -0.06  -0.13   0.09
  19   1     0.05  -0.11   0.06     0.02  -0.05   0.12    -0.17   0.30   0.05
  20   1    -0.11  -0.13  -0.08    -0.08  -0.14  -0.23     0.22   0.24   0.07
                     40                     41                     42
                        a                      a                      a 
 Frequencies --  1520.4490              2911.0428              2915.1511
 Red. masses --     1.6013                 1.7404                 1.7539
 Frc consts  --     0.0000                 0.0000                 0.0000
 IR Inten    --     0.0323                39.5793                68.7367
 Raman Activ --     0.0000                 0.0000                 0.0000
 Depolar     --     0.0000                 0.0000                 0.0000
 Atom AN      X      Y      Z        X      Y      Z        X      Y      Z
   1   6    -0.02   0.01  -0.00    -0.01  -0.01   0.00     0.00  -0.00  -0.01
   2   6     0.05  -0.02   0.00     0.01   0.12  -0.14    -0.00  -0.11   0.15
   3   6     0.13  -0.07   0.03    -0.00  -0.01   0.00     0.00   0.01  -0.00
   4   6    -0.05   0.02   0.00     0.01   0.12   0.14     0.00   0.11   0.15
   5   6     0.02  -0.01  -0.00    -0.01  -0.01  -0.00    -0.00   0.00  -0.01
   6   6    -0.13   0.07   0.03    -0.00  -0.01  -0.00    -0.00  -0.01  -0.00
   7   1     0.01  -0.02   0.01     0.02   0.01  -0.00    -0.01  -0.01  -0.00
   8   1     0.01   0.01  -0.01     0.00  -0.00   0.00     0.01   0.02   0.02
   9   1     0.03   0.01   0.01    -0.00   0.02  -0.03     0.00  -0.02   0.02
  10   1    -0.02   0.01   0.01    -0.02  -0.42   0.54     0.02   0.42  -0.53
  11   1    -0.48  -0.04   0.01    -0.00   0.01  -0.02     0.00  -0.02   0.03
  12   1     0.09   0.04   0.20    -0.01   0.01   0.00     0.00  -0.00  -0.00
  13   1    -0.17   0.26  -0.31     0.02   0.01  -0.00    -0.02  -0.01   0.00
  14   1     0.02  -0.01   0.01    -0.02  -0.42  -0.53    -0.02  -0.42  -0.53
  15   1    -0.01  -0.01  -0.01     0.00  -0.00  -0.00    -0.01  -0.02   0.02
  16   1    -0.03  -0.01   0.01    -0.00   0.02   0.03    -0.00   0.02   0.02
  17   1    -0.01   0.02   0.01     0.02   0.01   0.00     0.01   0.01  -0.00
  18   1     0.48   0.04   0.01    -0.00   0.01   0.02    -0.00   0.02   0.03
  19   1     0.17  -0.26  -0.31     0.02   0.01   0.00     0.02   0.01   0.00
  20   1    -0.09  -0.04   0.20    -0.01   0.01  -0.00    -0.00   0.00  -0.00
                     43                     44                     45
                        a                      a                      a 
 Frequencies --  3024.1503              3024.6645              3028.4594
 Red. masses --     1.9261                 1.9225                 1.8879
 Frc consts  --     0.0000                 0.0000                 0.0000
 IR Inten    --     3.6717                 3.4904                 8.0006
 Raman Activ --     0.0000                 0.0000                 0.0000
 Depolar     --     0.0000                 0.0000                 0.0000
 Atom AN      X      Y      Z        X      Y      Z        X      Y      Z
   1   6    -0.10  -0.08  -0.05    -0.11  -0.11  -0.02    -0.06  -0.08  -0.09
   2   6     0.00  -0.00  -0.00     0.00  -0.00  -0.00    -0.01  -0.01  -0.00
   3   6     0.13   0.06  -0.05     0.12   0.03  -0.02    -0.12  -0.07   0.05
   4   6     0.00  -0.00   0.00    -0.00   0.00  -0.00     0.01   0.01  -0.00
   5   6    -0.10  -0.08   0.05     0.11   0.11  -0.02     0.06   0.08  -0.09
   6   6     0.13   0.06   0.05    -0.12  -0.03  -0.02     0.12   0.07   0.05
   7   1     0.31   0.15  -0.04     0.39   0.19  -0.04     0.16   0.08  -0.03
   8   1     0.04   0.15   0.25     0.04   0.14   0.24     0.07   0.22   0.35
   9   1    -0.01  -0.01  -0.01    -0.02   0.07  -0.12    -0.01  -0.03   0.01
  10   1     0.00   0.00  -0.00    -0.00  -0.01   0.01    -0.00   0.00  -0.00
  11   1     0.03  -0.07   0.10     0.02  -0.01   0.02    -0.03   0.09  -0.12
  12   1    -0.07   0.09   0.01    -0.08   0.10   0.01     0.03  -0.06  -0.00
  13   1    -0.41  -0.22   0.05    -0.35  -0.19   0.05     0.41   0.22  -0.05
  14   1     0.00   0.00   0.00     0.00   0.01   0.01     0.00  -0.00  -0.00
  15   1     0.04   0.15  -0.25    -0.04  -0.14   0.24    -0.07  -0.22   0.35
  16   1    -0.02  -0.01   0.01     0.02  -0.07  -0.12     0.01   0.03   0.01
  17   1     0.31   0.16   0.04    -0.38  -0.19  -0.04    -0.16  -0.08  -0.03
  18   1     0.03  -0.07  -0.10    -0.02   0.01   0.02     0.03  -0.09  -0.12
  19   1    -0.42  -0.22  -0.05     0.34   0.19   0.05    -0.41  -0.22  -0.05
  20   1    -0.07   0.10  -0.01     0.08  -0.10   0.01    -0.03   0.06  -0.00
                     46                     47                     48
                        a                      a                      a 
 Frequencies --  3028.7217              3030.0717              3030.6897
 Red. masses --     1.8809                 1.9394                 1.8406
 Frc consts  --     0.0000                 0.0000                 0.0000
 IR Inten    --    14.9236               162.6498                58.0681
 Raman Activ --     0.0000                 0.0000                 0.0000
 Depolar     --     0.0000                 0.0000                 0.0000
 Atom AN      X      Y      Z        X      Y      Z        X      Y      Z
   1   6    -0.00   0.01   0.18     0.11   0.12  -0.04     0.06   0.05  -0.17
   2   6     0.00   0.00   0.01     0.01   0.01  -0.01     0.00   0.01  -0.01
   3   6     0.03   0.06  -0.04     0.11   0.03  -0.04     0.06   0.02   0.00
   4   6     0.00   0.00  -0.01     0.01   0.01   0.01    -0.00  -0.01  -0.01
   5   6    -0.00   0.01  -0.18     0.11   0.12   0.04    -0.06  -0.05  -0.17
   6   6     0.03   0.06   0.04     0.11   0.03   0.04    -0.06  -0.02   0.01
   7   1     0.13   0.07   0.02    -0.40  -0.20   0.04    -0.31  -0.16   0.01
   8   1    -0.10  -0.29  -0.43    -0.01  -0.06  -0.12     0.08   0.22   0.30
   9   1    -0.01   0.20  -0.23     0.02  -0.17   0.23     0.02  -0.23   0.28
  10   1    -0.00   0.00  -0.00    -0.00  -0.02   0.03    -0.00  -0.03   0.03
  11   1     0.01  -0.09   0.12     0.02  -0.07   0.08     0.01   0.04  -0.05
  12   1     0.04  -0.02  -0.01    -0.11   0.12   0.02    -0.00   0.01   0.00
  13   1    -0.18  -0.09   0.02    -0.30  -0.16   0.04    -0.21  -0.12   0.03
  14   1    -0.00   0.00   0.00    -0.00  -0.02  -0.03     0.00   0.03   0.03
  15   1    -0.10  -0.29   0.43    -0.01  -0.06   0.12    -0.08  -0.22   0.30
  16   1    -0.01   0.20   0.23     0.02  -0.17  -0.23    -0.02   0.23   0.28
  17   1     0.13   0.07  -0.01    -0.40  -0.20  -0.04     0.31   0.16   0.01
  18   1     0.01  -0.09  -0.12     0.02  -0.07  -0.08    -0.01  -0.04  -0.05
  19   1    -0.17  -0.09  -0.02    -0.30  -0.16  -0.04     0.21   0.12   0.03
  20   1     0.04  -0.02   0.01    -0.11   0.12  -0.02    -0.00  -0.01   0.00
                     49                     50                     51
                        a                      a                      a 
 Frequencies --  3036.5840              3039.0031              3042.7870
 Red. masses --     1.5206                 1.3229                 1.9367
 Frc consts  --     0.0000                 0.0000                 0.0000
 IR Inten    --     6.5558                 0.0014                16.4547
 Raman Activ --     0.0000                 0.0000                 0.0000
 Depolar     --     0.0000                 0.0000                 0.0000
 Atom AN      X      Y      Z        X      Y      Z        X      Y      Z
   1   6    -0.06   0.06  -0.01     0.07  -0.07   0.05     0.01   0.02   0.02
   2   6    -0.00  -0.00   0.00     0.00  -0.00   0.00     0.00  -0.01   0.01
   3   6     0.04  -0.10   0.07     0.02  -0.01  -0.03     0.10  -0.16   0.07
   4   6    -0.00  -0.00  -0.00    -0.00   0.00   0.00    -0.00   0.01   0.01
   5   6    -0.06   0.06   0.01    -0.07   0.07   0.05    -0.01  -0.02   0.02
   6   6     0.04  -0.10  -0.07    -0.02   0.01  -0.03    -0.10   0.16   0.07
   7   1     0.27   0.15  -0.03    -0.30  -0.17   0.04    -0.03  -0.01   0.01
   8   1    -0.06  -0.14  -0.23     0.05   0.11   0.20    -0.02  -0.05  -0.09
   9   1     0.00  -0.22   0.29    -0.00   0.32  -0.42     0.00  -0.00   0.01
  10   1    -0.00   0.01  -0.01     0.00   0.00  -0.00     0.00   0.02  -0.02
  11   1    -0.01   0.21  -0.28     0.01  -0.08   0.09    -0.01   0.25  -0.34
  12   1    -0.17   0.15   0.04    -0.10   0.09   0.01    -0.37   0.34   0.09
  13   1     0.02  -0.01   0.01     0.02   0.01  -0.01     0.04  -0.01   0.01
  14   1    -0.00   0.01   0.01    -0.00  -0.00  -0.00    -0.00  -0.02  -0.02
  15   1    -0.06  -0.14   0.23    -0.05  -0.11   0.20     0.02   0.05  -0.09
  16   1     0.00  -0.22  -0.29     0.00  -0.32  -0.42    -0.00   0.00   0.01
  17   1     0.27   0.15   0.03     0.30   0.17   0.04     0.03   0.01   0.01
  18   1    -0.01   0.21   0.28    -0.01   0.08   0.09     0.01  -0.25  -0.34
  19   1     0.02  -0.01  -0.01    -0.02  -0.01  -0.01    -0.04   0.01   0.01
  20   1    -0.17   0.15  -0.04     0.10  -0.09   0.01     0.37  -0.34   0.09
                     52                     53                     54
                        a                      a                      a 
 Frequencies --  3043.5021              3047.8667              3048.3050
 Red. masses --     1.4487                 1.5659                 1.3634
 Frc consts  --     0.0000                 0.0000                 0.0000
 IR Inten    --    41.2641                98.5536                72.1227
 Raman Activ --     0.0000                 0.0000                 0.0000
 Depolar     --     0.0000                 0.0000                 0.0000
 Atom AN      X      Y      Z        X      Y      Z        X      Y      Z
   1   6    -0.04   0.03  -0.04     0.02  -0.04   0.04    -0.01   0.02  -0.04
   2   6    -0.00   0.01  -0.01     0.00  -0.01   0.01    -0.00   0.00  -0.01
   3   6    -0.05   0.04  -0.11     0.08  -0.12  -0.02     0.03  -0.02  -0.11
   4   6    -0.00   0.01   0.01     0.00  -0.01  -0.01     0.00  -0.00  -0.01
   5   6    -0.04   0.03   0.04     0.02  -0.04  -0.04     0.01  -0.02  -0.04
   6   6    -0.05   0.04   0.11     0.08  -0.12   0.02    -0.03   0.01  -0.11
   7   1     0.15   0.08  -0.02    -0.07  -0.04   0.01     0.04   0.03  -0.01
   8   1    -0.01  -0.03  -0.05     0.01   0.02   0.05     0.00   0.02   0.02
   9   1     0.00  -0.18   0.22    -0.01   0.17  -0.22     0.00  -0.12   0.15
  10   1    -0.00  -0.01   0.01     0.00   0.01  -0.02    -0.00  -0.01   0.02
  11   1     0.02  -0.33   0.43     0.01  -0.03   0.02     0.03  -0.30   0.39
  12   1    -0.06   0.06  -0.00    -0.44   0.41   0.09    -0.29   0.28   0.05
  13   1     0.22   0.13  -0.05     0.14   0.05  -0.02     0.16   0.08  -0.03
  14   1    -0.00  -0.01  -0.02     0.00   0.01   0.02     0.00   0.01   0.02
  15   1    -0.01  -0.03   0.05     0.01   0.02  -0.05    -0.00  -0.02   0.02
  16   1     0.00  -0.18  -0.22    -0.01   0.17   0.22    -0.00   0.12   0.16
  17   1     0.15   0.08   0.02    -0.07  -0.04  -0.01    -0.04  -0.03  -0.01
  18   1     0.02  -0.33  -0.43     0.01  -0.03  -0.02    -0.03   0.30   0.39
  19   1     0.21   0.13   0.05     0.14   0.05   0.02    -0.16  -0.08  -0.03
  20   1    -0.06   0.06   0.00    -0.44   0.41  -0.09     0.29  -0.28   0.05
