
                                 *****************
                                 * O   R   C   A *
                                 *****************

                                            #,                                       
                                            ###                                      
                                            ####                                     
                                            #####                                    
                                            ######                                   
                                           ########,                                 
                                     ,,################,,,,,                         
                               ,,#################################,,                 
                          ,,##########################################,,             
                       ,#########################################, ''#####,          
                    ,#############################################,,   '####,        
                  ,##################################################,,,,####,       
                ,###########''''           ''''###############################       
              ,#####''   ,,,,##########,,,,          '''####'''          '####       
            ,##' ,,,,###########################,,,                        '##       
           ' ,,###''''                  '''############,,,                           
         ,,##''                                '''############,,,,        ,,,,,,###''
      ,#''                                            '''#######################'''  
     '                                                          ''''####''''         
             ,#######,   #######,   ,#######,      ##                                
            ,#'     '#,  ##    ##  ,#'     '#,    #''#        ,####,   ,####,        
            ##       ##  ##   ,#'  ##            #'  '#       #'       #'  '#        
            ##       ##  #######   ##           ,######,      #####,   #    #        
            '#,     ,#'  ##    ##  '#,     ,#' ,#      #,     #,   #   #,  ,#        
             '#######'   ##     ##  '#######'  #'      '#     '####' # '####'        



                #########################################################
                #                        -***-                          #
                #          Department of theory and spectroscopy        #
                #                                                       #
                #                      Frank Neese                      #
                #                                                       #
                #     Directorship, Architecture, Infrastructure        #
                #                    SHARK, DRIVERS                     #
                #        Core code/Algorithms in most modules           #
                #                                                       #
                #        Max Planck Institute fuer Kohlenforschung      #
                #                Kaiser Wilhelm Platz 1                 #
                #                 D-45470 Muelheim/Ruhr                 #
                #                      Germany                          #
                #                                                       #
                #                  All rights reserved                  #
                #                        -***-                          #
                #########################################################


                         Program Version 6.0.0  -   RELEASE  -


 With contributions from (in alphabetic order):
   Daniel Aravena         : Magnetic Suceptibility
   Michael Atanasov       : Ab Initio Ligand Field Theory (pilot matlab implementation)
   Alexander A. Auer      : GIAO ZORA, VPT2 properties, NMR spectrum
   Ute Becker             : All parallelization in ORCA, NUMFREQ, NUMCALC
   Giovanni Bistoni       : ED, misc. LED, open-shell LED, HFLD
   Martin Brehm           : Molecular dynamics
   Dmytro Bykov           : pre 5.0 version of the SCF Hessian
   Marcos Casanova-Páez   : Triplet and SCS-CIS(D). UHF-(DLPNO)-IP/EA/STEOM-CCSD. UHF-CVS-IP/STEOM-CCSD
   Vijay G. Chilkuri      : MRCI spin determinant printing, contributions to CSF-ICE
   Pauline Colinet        : FMM embedding
   Dipayan Datta          : RHF DLPNO-CCSD density
   Achintya Kumar Dutta   : EOM-CC, STEOM-CC
   Nicolas Foglia         : Exact transition moments, OPA infrastructure, MCD improvements
   Dmitry Ganyushin       : Spin-Orbit,Spin-Spin,Magnetic field MRCI
   Miquel Garcia          : C-PCM and meta-GGA Hessian, CCSD/C-PCM, Gaussian charge scheme
   Tiago L. C. Gouveia    : GS-ROHF, GS-ROCIS
   Yang Guo               : DLPNO-NEVPT2, F12-NEVPT2, CIM, IAO-localization
   Andreas Hansen         : Spin unrestricted coupled pair/coupled cluster methods
   Ingolf Harden          : AUTO-CI MPn and infrastructure 
   Benjamin Helmich-Paris : MC-RPA, TRAH-(SCF,CASSCF), AVAS, COSX integrals, SCF dyn. polar.
   Lee Huntington         : MR-EOM, pCC
   Robert Izsak           : Overlap fitted RIJCOSX, COSX-SCS-MP3, EOM
   Riya Kayal             : Wick's Theorem for AUTO-CI, AUTO-CI UHF-CCSDT
   Emily Kempfer          : AUTO-CI, RHF CISDT and CCSDT
   Christian Kollmar      : KDIIS, OOCD, Brueckner-CCSD(T), CCSD density, CASPT2, CASPT2-K, improved NEVPT2
   Axel Koslowski         : Symmetry handling
   Simone Kossmann        : Meta GGA functionals, TD-DFT gradient, OOMP2, (MP2 Hessian; deprecated post 5.0)
   Lucas Lang             : DCDCAS
   Marvin Lechner         : AUTO-CI (C++ implementation), FIC-MRCC
   Spencer Leger          : CASSCF response
   Dagmar Lenk            : GEPOL surface, SMD, ORCA-2-JSON
   Dimitrios Liakos       : Extrapolation schemes; Compound Job, initial MDCI parallelization
   Dimitrios Manganas     : Further ROCIS development; embedding schemes. LFT, Crystal Embedding
   Dimitrios Pantazis     : SARC Basis sets
   Anastasios Papadopoulos: AUTO-CI, single reference methods and gradients
   Taras Petrenko         : pre 6.0 DFT Hessian and TD-DFT gradient, (ASA, deprecated), ECA, 1-Electron XAS/XES, NRVS
   Peter Pinski           : DLPNO-MP2, DLPNO-MP2 Gradient
   Christoph Reimann      : Effective Core Potentials
   Marius Retegan         : Local ZFS, SOC
   Christoph Riplinger    : Optimizer, TS searches, QM/MM, DLPNO-CCSD(T), (RO)-DLPNO pert. Triples
   Michael Roemelt        : Original ROCIS implementation
   Masaaki Saitow         : Open-shell DLPNO-CCSD energy and density
   Barbara Sandhoefer     : DKH picture change effects
   Kantharuban Sivalingam : CASSCF convergence/infrastructure, NEVPT2 and variants, FIC-MRCI
   Bernardo de Souza      : ESD, SOC TD-DFT
   Georgi Stoychev        : AutoAux, RI-MP2 NMR, DLPNO-MP2 response, X2C
   Van Anh Tran           : RI-MP2 g-tensors
   Willem Van den Heuvel  : Paramagnetic NMR
   Zikuan Wang            : NOTCH, Electric field optimization 
   Frank Wennmohs         : Technical directorship and infrastructure
   Hang Xu                : AUTO-CI-Response properties 


 We gratefully acknowledge several colleagues who have allowed us to
 interface, adapt or use parts of their codes:
   Stefan Grimme, W. Hujo, H. Kruse, P. Pracht,  : VdW corrections, initial TS optimization,
                  C. Bannwarth, S. Ehlert,         DFT functionals, gCP, sTDA/sTD-DF
                  L. Wittmann, M. Mueller
   Ed Valeev, F. Pavosevic, A. Kumar             : LibInt (2-el integral package), F12 methods
   Garnet Chan, S. Sharma, J. Yang, R. Olivares  : DMRG
   Ulf Ekstrom                                   : XCFun DFT Library
   Mihaly Kallay                                 : mrcc  (arbitrary order and MRCC methods)
   Frank Weinhold                                : gennbo (NPA and NBO analysis)
   Simon Mueller                                 : openCOSMO-RS
   Christopher J. Cramer and Donald G. Truhlar   : smd solvation model
   Lars Goerigk                                  : TD-DFT with DH, B97 family of functionals
   V. Asgeirsson, H. Jonsson                     : NEB implementation
   FAccTs GmbH                                   : IRC, NEB, NEB-TS, DLPNO-Multilevel, CI-OPT
                                                   MM, QMMM, 2- and 3-layer-ONIOM, Crystal-QMMM,
                                                   LR-CPCM, SF, NACMEs, symmetry and pop. for TD-DFT,
                                                   nearIR, NL-DFT gradient (VV10), updates on ESD,
                                                   ML-optimized integration grids, MBIS, APM,
                                                   GOAT, DOCKER, SOLVATOR, interface openCOSMO-RS
   S Lehtola, MJT Oliveira, MAL Marques          : LibXC Library
   Liviu Ungur et al                             : ANISO software


 Your calculation uses the libint2 library for the computation of 2-el integrals
 For citations please refer to: http://libint.valeyev.net

 Your ORCA version has been built with support for libXC version: 6.2.2
 For citations please refer to: https://libxc.gitlab.io

 This ORCA versions uses:
   CBLAS   interface :  Fast vector & matrix operations
   LAPACKE interface :  Fast linear algebra routines
   SCALAPACK package :  Parallel linear algebra routines
   Shared memory     :  Shared parallel matrices
   BLAS/LAPACK       :  OpenBLAS 0.3.27  USE64BITINT DYNAMIC_ARCH NO_AFFINITY SkylakeX SINGLE_THREADED
        Core in use  :  SkylakeX
   Copyright (c) 2011-2014, The OpenBLAS Project




***************************************
The coordinates will be read from file: vacuum_censo.xyz
***************************************


Your calculation utilizes the geometrical counterpoise correction gCP
Please cite in your paper:
H.Kruse, S. Grimme J.Chem.Phys., 136, (2012), 154101 
   

Your calculation utilizes the atom-pairwise dispersion correction
based on EEQ partial charges (D4)


================================================================================

----- Orbital basis set information -----
Your calculation utilizes the basis: def2-TZVP
   F. Weigend and R. Ahlrichs, Phys. Chem. Chem. Phys. 7, 3297 (2005).

----- AuxJ basis set information -----
Your calculation utilizes the basis: def2-mTZVPP/J
   Stefan Grimme, Andreas Hansen, Sebastian Ehlert, and Jan-Michael Mewes 
   J. Chem. Phys. 154, 000000 (2021). DOI: 10.1063/5.0040021

================================================================================
                                        WARNINGS
                       Please study these warnings very carefully!
================================================================================

Using LibXC functional ID 497 : Re-regularized SCAN exchange by Furness et al
[ 1]  J. W. Furness, A. D. Kaplan, J. Ning, J. P. Perdew, and J. Sun.,  J. Phys. Chem. Lett. 11, 8208-8215 (2020)
[ 2]  J. W. Furness, A. D. Kaplan, J. Ning, J. P. Perdew, and J. Sun.,  J. Phys. Chem. Lett. 11, 9248-9248 (2020)
Using LibXC functional ID 498 : Re-regularized SCAN correlation by Furness et al
[ 1]  J. W. Furness, A. D. Kaplan, J. Ning, J. P. Perdew, and J. Sun.,  J. Phys. Chem. Lett. 11, 8208-8215 (2020)
[ 2]  J. W. Furness, A. D. Kaplan, J. Ning, J. P. Perdew, and J. Sun.,  J. Phys. Chem. Lett. 11, 9248-9248 (2020)
Using LibXC functional ID 497 : Re-regularized SCAN exchange by Furness et al
[ 1]  J. W. Furness, A. D. Kaplan, J. Ning, J. P. Perdew, and J. Sun.,  J. Phys. Chem. Lett. 11, 8208-8215 (2020)
[ 2]  J. W. Furness, A. D. Kaplan, J. Ning, J. P. Perdew, and J. Sun.,  J. Phys. Chem. Lett. 11, 9248-9248 (2020)
Using LibXC functional ID 498 : Re-regularized SCAN correlation by Furness et al
[ 1]  J. W. Furness, A. D. Kaplan, J. Ning, J. P. Perdew, and J. Sun.,  J. Phys. Chem. Lett. 11, 8208-8215 (2020)
[ 2]  J. W. Furness, A. D. Kaplan, J. Ning, J. P. Perdew, and J. Sun.,  J. Phys. Chem. Lett. 11, 9248-9248 (2020)

================================================================================
                                       INPUT FILE
================================================================================
NAME = vacuum_censo.inp
|  1> ! r2SCAN-3c DEF2-TZVP FREQ
|  2> * xyzfile 0 1 vacuum_censo.xyz
|  3> 
|  4>                          ****END OF INPUT****
================================================================================

                       ****************************
                       * Single Point Calculation *
                       ****************************

---------------------------------
CARTESIAN COORDINATES (ANGSTROEM)
---------------------------------
  C      1.336516    1.329293    0.000163
  C     -0.029768    1.112182    0.000473
  C     -0.491553   -0.206730    0.000544
  C      0.447340   -1.240850    0.000134
  N      1.767180   -1.045235   -0.000233
  C      2.189426    0.223213   -0.000137
  C     -1.933888   -0.515195   -0.000018
  O     -2.810005    0.323234   -0.001986
  H      1.747718    2.333061    0.000054
  H     -0.748467    1.925643    0.000591
  H      0.110610   -2.278420    0.000116
  H      3.268763    0.366645   -0.000497
  H     -2.178737   -1.601655    0.000559

----------------------------
CARTESIAN COORDINATES (A.U.)
----------------------------
  NO LB      ZA    FRAG     MASS         X           Y           Z
   0 C     6.0000    0    12.011    2.525649    2.511999    0.000309
   1 C     6.0000    0    12.011   -0.056253    2.101719    0.000893
   2 C     6.0000    0    12.011   -0.928900   -0.390662    0.001028
   3 C     6.0000    0    12.011    0.845349   -2.344867    0.000252
   4 N     7.0000    0    14.007    3.339486   -1.975207   -0.000440
   5 C     6.0000    0    12.011    4.137415    0.421812   -0.000258
   6 C     6.0000    0    12.011   -3.654518   -0.973577   -0.000033
   7 O     8.0000    0    15.999   -5.310140    0.610824   -0.003753
   8 H     1.0000    0     1.008    3.302708    4.408846    0.000102
   9 H     1.0000    0     1.008   -1.414397    3.638938    0.001116
  10 H     1.0000    0     1.008    0.209022   -4.305589    0.000219
  11 H     1.0000    0     1.008    6.177067    0.692858   -0.000938
  12 H     1.0000    0     1.008   -4.117217   -3.026690    0.001057

--------------------------------
INTERNAL COORDINATES (ANGSTROEM)
--------------------------------
 C      0   0   0     0.000000000000     0.00000000     0.00000000
 C      1   0   0     1.383426314284     0.00000000     0.00000000
 C      2   1   0     1.397416382415   118.32561285     0.00000000
 C      3   2   1     1.396755030738   118.46680489     0.00000000
 N      4   3   2     1.334257995233   123.80621039     0.00000000
 C      5   4   3     1.336881417927   116.84228747     0.00000000
 C      3   2   1     1.474951448171   121.36815716   180.04031817
 O      7   3   2     1.212661460466   124.18752551     0.08087037
 H      1   2   3     1.084729128875   121.30602637   179.99745625
 H      2   1   3     1.085470919698   122.43166334   180.00436609
 H      4   3   2     1.090842185268   119.78308848   180.00388051
 H      6   5   4     1.088825780984   115.98136441   180.00336431
 H      7   3   2     1.113709297734   114.77194217   180.02604262

---------------------------
INTERNAL COORDINATES (A.U.)
---------------------------
 C      0   0   0     0.000000000000     0.00000000     0.00000000
 C      1   0   0     2.614296860456     0.00000000     0.00000000
 C      2   1   0     2.640734257819   118.32561285     0.00000000
 C      3   2   1     2.639484484272   118.46680489     0.00000000
 N      4   3   2     2.521382202985   123.80621039     0.00000000
 C      5   4   3     2.526339753410   116.84228747     0.00000000
 C      3   2   1     2.787254297874   121.36815716   180.04031817
 O      7   3   2     2.291598053442   124.18752551     0.08087037
 H      1   2   3     2.049840983061   121.30602637   179.99745625
 H      2   1   3     2.051242764564   122.43166334   180.00436609
 H      4   3   2     2.061392985485   119.78308848   180.00388051
 H      6   5   4     2.057582533612   115.98136441   180.00336431
 H      7   3   2     2.104605565520   114.77194217   180.02604262

---------------------
BASIS SET INFORMATION
---------------------
There are 4 groups of distinct atoms

 Group   1 Type C   : 11s6p2d1f contracted to 5s3p2d1f pattern {62111/411/11/1}
 Group   2 Type N   : 11s6p2d1f contracted to 5s3p2d1f pattern {62111/411/11/1}
 Group   3 Type O   : 11s6p2d1f contracted to 5s3p2d1f pattern {62111/411/11/1}
 Group   4 Type H   : 5s1p contracted to 3s1p pattern {311/1}

Atom   0C    basis set group =>   1
Atom   1C    basis set group =>   1
Atom   2C    basis set group =>   1
Atom   3C    basis set group =>   1
Atom   4N    basis set group =>   2
Atom   5C    basis set group =>   1
Atom   6C    basis set group =>   1
Atom   7O    basis set group =>   3
Atom   8H    basis set group =>   4
Atom   9H    basis set group =>   4
Atom  10H    basis set group =>   4
Atom  11H    basis set group =>   4
Atom  12H    basis set group =>   4
---------------------------------
AUXILIARY/J BASIS SET INFORMATION
---------------------------------
There are 4 groups of distinct atoms

 Group   1 Type C   : 8s3p3d contracted to 6s3p3d pattern {311111/111/111}
 Group   2 Type N   : 8s3p3d contracted to 6s3p3d pattern {311111/111/111}
 Group   3 Type O   : 8s3p3d contracted to 6s3p3d pattern {311111/111/111}
 Group   4 Type H   : 5s2p1d contracted to 3s1p1d pattern {311/2/1}

Atom   0C    basis set group =>   1
Atom   1C    basis set group =>   1
Atom   2C    basis set group =>   1
Atom   3C    basis set group =>   1
Atom   4N    basis set group =>   2
Atom   5C    basis set group =>   1
Atom   6C    basis set group =>   1
Atom   7O    basis set group =>   3
Atom   8H    basis set group =>   4
Atom   9H    basis set group =>   4
Atom  10H    basis set group =>   4
Atom  11H    basis set group =>   4
Atom  12H    basis set group =>   4
------------------------------------------------------------------------------
                             ORCA STARTUP CALCULATIONS
                           -- RI-GTO INTEGRALS CHOSEN --
------------------------------------------------------------------------------
------------------------------------------------------------------------------
                   ___                                                        
                  /   \      - P O W E R E D   B Y -                         
                 /     \                                                     
                 |  |  |   _    _      __       _____    __    __             
                 |  |  |  | |  | |    /  \     |  _  \  |  |  /  |          
                  \  \/   | |  | |   /    \    | | | |  |  | /  /          
                 / \  \   | |__| |  /  /\  \   | |_| |  |  |/  /          
                |  |  |   |  __  | /  /__\  \  |    /   |      \           
                |  |  |   | |  | | |   __   |  |    \   |  |\   \          
                \     /   | |  | | |  |  |  |  | |\  \  |  | \   \       
                 \___/    |_|  |_| |__|  |__|  |_| \__\ |__|  \__/        
                                                                              
                      - O R C A' S   B I G   F R I E N D -                    
                                      &                                       
                       - I N T E G R A L  F E E D E R -                       
                                                                              
 v1 FN, 2020, v2 2021, v3 2022-2024                                           
------------------------------------------------------------------------------


----------------------
SHARK INTEGRAL PACKAGE
----------------------

Number of atoms                             ...     13
Number of basis functions                   ...    278
Number of shells                            ...    108
Maximum angular momentum                    ...      3
Integral batch strategy                     ... SHARK/LIBINT Hybrid
RI-J (if used) integral strategy            ... SPLIT-RIJ (Revised 2003 algorithm where possible)
Printlevel                                  ...      1
Contraction scheme used                     ... SEGMENTED contraction
Prescreening option                         ... SCHWARTZ
   Thresh                                   ... 1.000e-10
   Tcut                                     ... 1.000e-11
   Tpresel                                  ... 1.000e-11 
Coulomb Range Separation                    ... NOT USED
Exchange Range Separation                   ... NOT USED
Multipole approximations                    ... NOT USED
Finite Nucleus Model                        ... NOT USED
CABS basis                                  ... NOT available
Auxiliary Coulomb fitting basis             ... AVAILABLE
   # of basis functions in Aux-J            ...    295
   # of shells in Aux-J                     ...    121
   Maximum angular momentum in Aux-J        ...      2
Auxiliary J/K fitting basis                 ... NOT available
Auxiliary Correlation fitting basis         ... NOT available
Auxiliary 'external' fitting basis          ... NOT available

Checking pre-screening integrals            ... done (  0.0 sec) Dimension = 108
Check shell pair data                       ... done (  0.0 sec)
Shell pair information
Shell pair cut-off parameter TPreSel        ...   1.0e-11
Total number of shell pairs                 ...      5886
Shell pairs after pre-screening             ...      5394
Total number of primitive shell pairs       ...     18336
Primitive shell pairs kept                  ...     12684
          la=0 lb=0:   1337 shell pairs
          la=1 lb=0:   1484 shell pairs
          la=1 lb=1:    420 shell pairs
          la=2 lb=0:    808 shell pairs
          la=2 lb=1:    444 shell pairs
          la=2 lb=2:    127 shell pairs
          la=3 lb=0:    396 shell pairs
          la=3 lb=1:    223 shell pairs
          la=3 lb=2:    121 shell pairs
          la=3 lb=3:     34 shell pairs

Calculating one electron integrals          ... done (  0.0 sec)
Calculating RI/J V-Matrix + Cholesky decomp.... done (  0.0 sec)
Calculating Nuclear repulsion               ... done (  0.0 sec) ENN=    324.431196423479 Eh

Diagonalization of the overlap matrix:
Smallest eigenvalue                        ... 5.209e-05
Time for diagonalization                   ...    0.007 sec
Threshold for overlap eigenvalues          ... 1.000e-07
Number of eigenvalues below threshold      ... 0
Time for construction of square roots      ...    0.017 sec
Total time needed                          ...    0.032 sec

-------------------
DFT GRID GENERATION
-------------------

General Integration Accuracy     IntAcc      ... 4.388
Radial Grid Type                 RadialGrid  ... OptM3 with GC (2021)
Angular Grid (max. ang.)         AngularGrid ... 4 (Lebedev-302)
Angular grid pruning method      GridPruning ... 4 (adaptive)
Weight generation scheme         WeightScheme... mBecke (2022)
Basis function cutoff            BFCut       ... 1.0000e-10
Integration weight cutoff        WCut        ... 1.0000e-14
Partially contracted basis set               ... off
Rotationally invariant grid construction     ... off
Angular grids for H and He will be reduced by one unit

Total number of grid points                  ...    64439
Total number of batches                      ...     1014
Average number of points per batch           ...       63
Average number of grid points per atom       ...     4957
Initializing property integral containers    ... done (  0.0 sec)

SHARK setup successfully completed in   1.0 seconds

Maximum memory used throughout the entire STARTUP-calculation: 37.4 MB
-------------------------------------------------------------------------------
                                 ORCA GUESS
                   Start orbitals & Density for SCF / CASSCF
-------------------------------------------------------------------------------

------------
SCF SETTINGS
------------
Hamiltonian:
 Density Functional     Method          .... DFT(GTOs)
  Functional kind                       .... Exchange
  Functional name                       .... Re-regularized SCAN exchange by Furness et al
  Functional family                     .... MGGA
  Functional refs                              
    [ 0] J. W. Furness, A. D. Kaplan, J. Ning, J. P. Perdew, and J. Sun.,  J. Phys. Chem. Lett. 11, 8208-8215 (2020), doi: 10.1021/acs.jpclett.0c02405
    [ 1] J. W. Furness, A. D. Kaplan, J. Ning, J. P. Perdew, and J. Sun.,  J. Phys. Chem. Lett. 11, 9248-9248 (2020), doi: 10.1021/acs.jpclett.0c03077
  Functional external parameters        .... 6
    Parameter  0 _c1        =  6.670000e-01 : c1 parameter        
    Parameter  1 _c2        =  8.000000e-01 : c2 parameter        
    Parameter  2 _d         =  1.240000e+00 : d parameter         
    Parameter  3 _k1        =  6.500000e-02 : k1 parameter        
    Parameter  4 _eta       =  1.000000e-03 : eta parameter       
    Parameter  5 _dp2       =  3.610000e-01 : dp2 parameter       
  Functional kind                       .... Correlation
  Functional name                       .... Re-regularized SCAN correlation by Furness et al
  Functional family                     .... MGGA
  Functional refs                              
    [ 0] J. W. Furness, A. D. Kaplan, J. Ning, J. P. Perdew, and J. Sun.,  J. Phys. Chem. Lett. 11, 8208-8215 (2020), doi: 10.1021/acs.jpclett.0c02405
    [ 1] J. W. Furness, A. D. Kaplan, J. Ning, J. P. Perdew, and J. Sun.,  J. Phys. Chem. Lett. 11, 9248-9248 (2020), doi: 10.1021/acs.jpclett.0c03077
  Functional external parameters        .... 1
    Parameter  0 _eta       =  1.000000e-03 : Regularization parameter
 Gradients option       PostSCFGGA      .... off
 RI-approximation to the Coulomb term is turned on
   Number of AuxJ basis functions       .... 295


General Settings:
 Integral files         IntName         .... vacuum_censo
 Hartree-Fock type      HFTyp           .... RHF
 Total Charge           Charge          ....    0
 Multiplicity           Mult            ....    1
 Number of Electrons    NEL             ....   56
 Basis Dimension        Dim             ....  278
 Nuclear Repulsion      ENuc            ....    324.4311964235 Eh

Convergence Acceleration:
 AO-DIIS                CNVDIIS         .... on
   Start iteration      DIISMaxIt       ....    12
   Startup error        DIISStart       ....  0.200000
   # of expansion vecs  DIISMaxEq       ....     5
   Bias factor          DIISBfac        ....   1.050
   Max. coefficient     DIISMaxC        ....  10.000
 MO-DIIS                CNVKDIIS        .... off
 Trust-Rad. Augm. Hess. CNVTRAH         .... auto
   Auto Start mean grad. ratio tolernc. ....  1.125000
   Auto Start start iteration           ....    50
   Auto Start num. interpolation iter.  ....    10
   Max. Number of Micro iterations      ....    24
   Max. Number of Macro iterations      .... Maxiter - #DIIS iter
   Number of Davidson start vectors     ....     2
   Converg. threshold    (grad. norm)   ....   5.000e-05
   Grad. Scal. Fac. for Micro threshold ....   0.100
   Minimum threshold for Micro iter.    ....   1.000e-02
   NR start threshold (gradient norm)   ....   1.000e-04
   Initial trust radius                 ....   0.400
   Minimum AH scaling param. (alpha)    ....   1.000
   Maximum AH scaling param. (alpha)    .... 1000.000
   Quad. conv. algorithm                .... NR
   White noise on init. David. guess    .... on
   Maximum white noise                  ....   0.010
   Pseudo random numbers                .... off
   Inactive MOs                         .... canonical
   Orbital update algorithm             .... Taylor
   Preconditioner                       .... Diag
   Full preconditioner red. dimension   ....   250
   COSX micro iterations for RIJONX calc.... off
 SOSCF                  CNVSOSCF        .... on
   Start iteration      SOSCFMaxIt      ....   150
   Startup grad/error   SOSCFStart      ....  0.003300
   Hessian update       SOSCFHessUp     .... L-BFGS
 Level Shifting         CNVShift        .... on
   Level shift para.    LevelShift      ....    0.2500
   Turn off err/grad.   ShiftErr        ....    0.0010
 Zerner damping         CNVZerner       .... off
 Static damping         CNVDamp         .... on
   Fraction old density DampFac         ....    0.7000
   Max. Damping (<1)    DampMax         ....    0.9800
   Min. Damping (>=0)   DampMin         ....    0.0000
   Turn off err/grad.   DampErr         ....    0.1000

SCF Procedure:
 Maximum # iterations   MaxIter         ....   125
 SCF integral mode      SCFMode         .... Direct
   Integral package                     .... SHARK and LIBINT hybrid scheme
 Reset frequency        DirectResetFreq ....    20
 Integral Threshold     Thresh          ....  1.000e-10 Eh
 Primitive CutOff       TCut            ....  1.000e-11 Eh

Convergence Tolerance:
 Convergence Check Mode ConvCheckMode   .... Total+1el-Energy
 Convergence forced     ConvForced      .... 0
 Energy Change          TolE            ....  1.000e-06 Eh
 1-El. energy change                    ....  1.000e-03 Eh
 Orbital Gradient       TolG            ....  5.000e-05
 Orbital Rotation angle TolX            ....  5.000e-05
 DIIS Error             TolErr          ....  1.000e-06

------------------------------
INITIAL GUESS: MODEL POTENTIAL
------------------------------
Loading Hartree-Fock densities                     ... done
Calculating cut-offs                               ... done
Initializing the effective Hamiltonian             ... done
Setting up the integral package (SHARK)            ... done
Starting the Coulomb interaction                   ... done (   0.3 sec)
Making the grid                                    ... done (   0.2 sec)
Mapping shells                                     ... done
Starting the XC term evaluation                    ... done (   0.3 sec)
  promolecular density results
     # of electrons  =     55.996238018
     EX              =    -46.805177593
     EC              =     -1.859437926
     EX+EC           =    -48.664615519
Transforming the Hamiltonian                       ... done (   0.0 sec)
Diagonalizing the Hamiltonian                      ... done (   0.0 sec)
Back transforming the eigenvectors                 ... done (   0.0 sec)
Now organizing SCF variables                       ... done
                      ------------------
                      INITIAL GUESS DONE (   0.8 sec)
                      ------------------
             **** ENERGY FILE WAS UPDATED (vacuum_censo.en.tmp) ****
Finished Guess after   1.1 sec
Maximum memory used throughout the entire GUESS-calculation: 25.0 MB

-------------------------------------------------------------------------------------------
                                      ORCA LEAN-SCF
                              memory conserving SCF solver
-------------------------------------------------------------------------------------------

----------------------------------------D-I-I-S--------------------------------------------
Iteration    Energy (Eh)           Delta-E    RMSDP     MaxDP     DIISErr   Damp  Time(sec)
-------------------------------------------------------------------------------------------
               ***  Starting incremental Fock matrix formation  ***
    1    -361.3752242262788172     0.00e+00  2.87e-03  2.82e-01  2.63e-01  0.700   3.1
    2    -361.4606160412240001    -8.54e-02  2.10e-03  2.00e-01  8.86e-02  0.700   2.9
                               ***Turning on AO-DIIS***
    3    -361.4889314118782409    -2.83e-02  6.55e-04  2.53e-02  3.36e-02  0.700   2.7
    4    -361.5081677440273893    -1.92e-02  1.15e-03  6.44e-02  2.00e-02  0.000   2.6
    5    -361.5513104931863495    -4.31e-02  4.82e-04  4.21e-02  6.15e-03  0.000   2.7
                              *** Initializing SOSCF ***
---------------------------------------S-O-S-C-F--------------------------------------
Iteration    Energy (Eh)           Delta-E    RMSDP     MaxDP     MaxGrad    Time(sec)
--------------------------------------------------------------------------------------
    6    -361.5516237803743138    -3.13e-04  1.56e-04  9.07e-03  2.16e-03     2.6
               *** Restarting incremental Fock matrix formation ***
    7    -361.5516454770286714    -2.17e-05  1.15e-04  1.06e-02  6.08e-04     3.0
    8    -361.5516168787913216     2.86e-05  6.91e-05  6.34e-03  1.62e-03     2.4
    9    -361.5516535071273552    -3.66e-05  1.23e-05  4.23e-04  1.48e-04     2.3
   10    -361.5516517007494599     1.81e-06  9.80e-06  5.99e-04  2.95e-04     2.4
   11    -361.5516540756403288    -2.37e-06  4.96e-06  4.84e-04  2.45e-05     2.3
   12    -361.5516540340955203     4.15e-08  2.78e-06  2.47e-04  6.03e-05     2.2
                 **** Energy Check signals convergence ****

               *****************************************************
               *                     SUCCESS                       *
               *           SCF CONVERGED AFTER  12 CYCLES          *
               *****************************************************

             **** ENERGY FILE WAS UPDATED (vacuum_censo.en.tmp) ****

----------------
TOTAL SCF ENERGY
----------------

Total Energy       :       -361.55165403409552 Eh           -9838.32068 eV

Components:
Nuclear Repulsion  :        324.43119642347898 Eh            8828.22167 eV
Electronic Energy  :       -685.98285045757450 Eh          -18666.54235 eV
One Electron Energy:      -1131.76886142241619 Eh          -30796.99641 eV
Two Electron Energy:        445.78601096484169 Eh           12130.45406 eV

Virial components:
Potential Energy   :       -721.50661953648796 Eh          -19633.19325 eV
Kinetic Energy     :        359.95496550239238 Eh            9794.87257 eV
Virial Ratio       :          2.00443580082157

DFT components:
N(Alpha)           :       27.999937598152 electrons
N(Beta)            :       27.999937598152 electrons
N(Total)           :       55.999875196304 electrons
E(X)               :      -47.914018310067 Eh       
E(C)               :       -1.822632579496 Eh       
E(XC)              :      -49.736650889563 Eh       

---------------
SCF CONVERGENCE
---------------

  Last Energy change         ...   -4.1545e-08  Tolerance :   1.0000e-06
  Last MAX-Density change    ...    2.4745e-04  Tolerance :   1.0000e-05
  Last RMS-Density change    ...    2.7783e-06  Tolerance :   1.0000e-06
  Last DIIS Error            ...    2.1643e-03  Tolerance :   1.0000e-06
  Last Orbital Gradient      ...    6.0315e-05  Tolerance :   5.0000e-05
  Last Orbital Rotation      ...    1.0085e-04  Tolerance :   5.0000e-05


----------------
ORBITAL ENERGIES
----------------

  NO   OCC          E(Eh)            E(eV) 
   0   2.0000     -18.959046      -515.9019 
   1   2.0000     -14.179403      -385.8412 
   2   2.0000     -10.131716      -275.6980 
   3   2.0000     -10.094785      -274.6931 
   4   2.0000     -10.093941      -274.6701 
   5   2.0000     -10.076346      -274.1913 
   6   2.0000     -10.069019      -273.9919 
   7   2.0000     -10.067062      -273.9387 
   8   2.0000      -1.019615       -27.7451 
   9   2.0000      -0.931040       -25.3349 
  10   2.0000      -0.799218       -21.7478 
  11   2.0000      -0.760740       -20.7008 
  12   2.0000      -0.649956       -17.6862 
  13   2.0000      -0.621768       -16.9192 
  14   2.0000      -0.562817       -15.3150 
  15   2.0000      -0.509734       -13.8706 
  16   2.0000      -0.484976       -13.1969 
  17   2.0000      -0.456744       -12.4286 
  18   2.0000      -0.422204       -11.4888 
  19   2.0000      -0.410616       -11.1734 
  20   2.0000      -0.408636       -11.1195 
  21   2.0000      -0.388606       -10.5745 
  22   2.0000      -0.372092       -10.1252 
  23   2.0000      -0.360981        -9.8228 
  24   2.0000      -0.291307        -7.9269 
  25   2.0000      -0.270838        -7.3699 
  26   2.0000      -0.253696        -6.9034 
  27   2.0000      -0.232763        -6.3338 
  28   0.0000      -0.112087        -3.0500 
  29   0.0000      -0.072901        -1.9837 
  30   0.0000      -0.015906        -0.4328 
  31   0.0000       0.057248         1.5578 
  32   0.0000       0.068331         1.8594 
  33   0.0000       0.092841         2.5263 
  34   0.0000       0.095806         2.6070 
  35   0.0000       0.104092         2.8325 
  36   0.0000       0.113027         3.0756 
  37   0.0000       0.124669         3.3924 
  38   0.0000       0.152722         4.1558 
*Only the first 10 virtual orbitals were printed.

                    ********************************
                    * MULLIKEN POPULATION ANALYSIS *
                    ********************************

-----------------------
MULLIKEN ATOMIC CHARGES
-----------------------
   0 C :   -0.057391
   1 C :   -0.179337
   2 C :    0.117892
   3 C :   -0.040841
   4 N :   -0.250210
   5 C :    0.001470
   6 C :    0.131003
   7 O :   -0.304859
   8 H :    0.125547
   9 H :    0.146664
  10 H :    0.121301
  11 H :    0.124973
  12 H :    0.063789
Sum of atomic charges:   -0.0000000

--------------------------------
MULLIKEN REDUCED ORBITAL CHARGES
--------------------------------
  0 C s       :     3.174718  s :     3.174718
      pz      :     0.964868  p :     2.800756
      px      :     0.909754
      py      :     0.926133
      dz2     :     0.005012  d :     0.073351
      dxz     :     0.015853
      dyz     :     0.006255
      dx2y2   :     0.019772
      dxy     :     0.026459
      f0      :     0.001793  f :     0.008566
      f+1     :     0.000619
      f-1     :     0.000672
      f+2     :     0.000568
      f-2     :     0.000600
      f+3     :     0.001841
      f-3     :     0.002473

  1 C s       :     3.291009  s :     3.291009
      pz      :     0.875394  p :     2.798984
      px      :     0.961721
      py      :     0.961870
      dz2     :     0.002985  d :     0.080554
      dxz     :     0.015679
      dyz     :     0.011846
      dx2y2   :     0.020198
      dxy     :     0.029846
      f0      :     0.001739  f :     0.008790
      f+1     :     0.000631
      f-1     :     0.000568
      f+2     :     0.001164
      f-2     :     0.000211
      f+3     :     0.001950
      f-3     :     0.002527

  2 C s       :     3.144648  s :     3.144648
      pz      :     0.962983  p :     2.616382
      px      :     0.785165
      py      :     0.868234
      dz2     :     0.007054  d :     0.109420
      dxz     :     0.014062
      dyz     :     0.020124
      dx2y2   :     0.034436
      dxy     :     0.033744
      f0      :     0.002060  f :     0.011657
      f+1     :     0.000818
      f-1     :     0.000652
      f+2     :     0.000671
      f-2     :     0.000939
      f+3     :     0.002995
      f-3     :     0.003522

  3 C s       :     3.229414  s :     3.229414
      pz      :     0.894763  p :     2.695465
      px      :     0.836897
      py      :     0.963805
      dz2     :     0.001114  d :     0.104286
      dxz     :     0.029017
      dyz     :     0.007211
      dx2y2   :     0.030366
      dxy     :     0.036578
      f0      :     0.002015  f :     0.011676
      f+1     :     0.000903
      f-1     :     0.000617
      f+2     :     0.000995
      f-2     :     0.000853
      f+3     :     0.002784
      f-3     :     0.003509

  4 N s       :     3.610295  s :     3.610295
      pz      :     1.089547  p :     3.568078
      px      :     1.196050
      py      :     1.282480
      dz2     :     0.006062  d :     0.067393
      dxz     :     0.011722
      dyz     :     0.010871
      dx2y2   :     0.021245
      dxy     :     0.017493
      f0      :     0.000725  f :     0.004444
      f+1     :     0.000339
      f-1     :     0.000317
      f+2     :     0.000636
      f-2     :     0.000249
      f+3     :     0.001024
      f-3     :     0.001153

  5 C s       :     3.209570  s :     3.209570
      pz      :     0.884075  p :     2.676993
      px      :     0.980273
      py      :     0.812645
      dz2     :     0.001576  d :     0.100528
      dxz     :     0.006856
      dyz     :     0.027817
      dx2y2   :     0.036569
      dxy     :     0.027711
      f0      :     0.002017  f :     0.011438
      f+1     :     0.000660
      f-1     :     0.000876
      f+2     :     0.000595
      f-2     :     0.001232
      f+3     :     0.002784
      f-3     :     0.003275

  6 C s       :     3.259107  s :     3.259107
      pz      :     0.749458  p :     2.440747
      px      :     0.805621
      py      :     0.885668
      dz2     :     0.004719  d :     0.153392
      dxz     :     0.033889
      dyz     :     0.011661
      dx2y2   :     0.077334
      dxy     :     0.025789
      f0      :     0.002328  f :     0.015750
      f+1     :     0.000981
      f-1     :     0.000793
      f+2     :     0.000430
      f-2     :     0.002274
      f+3     :     0.004587
      f-3     :     0.004357

  7 O s       :     3.850458  s :     3.850458
      pz      :     1.297107  p :     4.420367
      px      :     1.562209
      py      :     1.561051
      dz2     :     0.002575  d :     0.032033
      dxz     :     0.006221
      dyz     :     0.005215
      dx2y2   :     0.009457
      dxy     :     0.008566
      f0      :     0.000205  f :     0.002001
      f+1     :     0.000111
      f-1     :     0.000094
      f+2     :     0.000005
      f-2     :     0.000473
      f+3     :     0.000562
      f-3     :     0.000551

  8 H s       :     0.850831  s :     0.850831
      pz      :     0.005434  p :     0.023621
      px      :     0.005731
      py      :     0.012456

  9 H s       :     0.829810  s :     0.829810
      pz      :     0.004606  p :     0.023526
      px      :     0.009419
      py      :     0.009501

 10 H s       :     0.855912  s :     0.855912
      pz      :     0.004804  p :     0.022787
      px      :     0.004630
      py      :     0.013354

 11 H s       :     0.852326  s :     0.852326
      pz      :     0.004793  p :     0.022701
      px      :     0.014038
      py      :     0.003869

 12 H s       :     0.915339  s :     0.915339
      pz      :     0.003091  p :     0.020873
      px      :     0.004024
      py      :     0.013757



                     *******************************
                     * LOEWDIN POPULATION ANALYSIS *
                     *******************************

----------------------
LOEWDIN ATOMIC CHARGES
----------------------
   0 C :   -0.135870
   1 C :   -0.055788
   2 C :   -0.170807
   3 C :   -0.154298
   4 N :    0.129679
   5 C :   -0.178592
   6 C :   -0.256450
   7 O :    0.114725
   8 H :    0.148898
   9 H :    0.158786
  10 H :    0.143333
  11 H :    0.140107
  12 H :    0.116277

-------------------------------
LOEWDIN REDUCED ORBITAL CHARGES
-------------------------------
  0 C s       :     2.775670  s :     2.775670
      pz      :     0.882260  p :     2.943378
      px      :     1.057445
      py      :     1.003673
      dz2     :     0.026615  d :     0.373253
      dxz     :     0.056454
      dyz     :     0.019074
      dx2y2   :     0.128930
      dxy     :     0.142179
      f0      :     0.003418  f :     0.043569
      f+1     :     0.004326
      f-1     :     0.003531
      f+2     :     0.003855
      f-2     :     0.004207
      f+3     :     0.009955
      f-3     :     0.014278

  1 C s       :     2.767536  s :     2.767536
      pz      :     0.807847  p :     2.858050
      px      :     1.036216
      py      :     1.013987
      dz2     :     0.025664  d :     0.385597
      dxz     :     0.049751
      dyz     :     0.038461
      dx2y2   :     0.105976
      dxy     :     0.165745
      f0      :     0.003321  f :     0.044605
      f+1     :     0.003872
      f-1     :     0.003572
      f+2     :     0.007786
      f-2     :     0.001416
      f+3     :     0.010180
      f-3     :     0.014459

  2 C s       :     2.723515  s :     2.723515
      pz      :     0.858373  p :     2.897143
      px      :     0.997601
      py      :     1.041169
      dz2     :     0.037866  d :     0.493723
      dxz     :     0.045996
      dyz     :     0.069053
      dx2y2   :     0.173775
      dxy     :     0.167033
      f0      :     0.004269  f :     0.056427
      f+1     :     0.004445
      f-1     :     0.004464
      f+2     :     0.004347
      f-2     :     0.006452
      f+3     :     0.013840
      f-3     :     0.018609

  3 C s       :     2.777530  s :     2.777530
      pz      :     0.829470  p :     2.825601
      px      :     0.990874
      py      :     1.005256
      dz2     :     0.032684  d :     0.489663
      dxz     :     0.086450
      dyz     :     0.018114
      dx2y2   :     0.179490
      dxy     :     0.172924
      f0      :     0.004315  f :     0.061505
      f+1     :     0.006422
      f-1     :     0.003319
      f+2     :     0.006212
      f-2     :     0.005599
      f+3     :     0.015264
      f-3     :     0.020374

  4 N s       :     3.056290  s :     3.056290
      pz      :     1.002324  p :     3.576845
      px      :     1.263748
      py      :     1.310773
      dz2     :     0.018305  d :     0.218510
      dxz     :     0.030404
      dyz     :     0.024358
      dx2y2   :     0.076049
      dxy     :     0.069394
      f0      :     0.001187  f :     0.018677
      f+1     :     0.001571
      f-1     :     0.001309
      f+2     :     0.003231
      f-2     :     0.000438
      f+3     :     0.004771
      f-3     :     0.006172

  5 C s       :     2.787975  s :     2.787975
      pz      :     0.826339  p :     2.837644
      px      :     0.997170
      py      :     1.014135
      dz2     :     0.032848  d :     0.491867
      dxz     :     0.014290
      dyz     :     0.089182
      dx2y2   :     0.218274
      dxy     :     0.137273
      f0      :     0.004309  f :     0.061107
      f+1     :     0.003345
      f-1     :     0.006488
      f+2     :     0.003536
      f-2     :     0.008148
      f+3     :     0.013702
      f-3     :     0.021579

  6 C s       :     2.821551  s :     2.821551
      pz      :     0.719845  p :     2.699278
      px      :     0.993150
      py      :     0.986283
      dz2     :     0.041733  d :     0.642948
      dxz     :     0.099358
      dyz     :     0.028470
      dx2y2   :     0.312368
      dxy     :     0.161019
      f0      :     0.006930  f :     0.092672
      f+1     :     0.007067
      f-1     :     0.005978
      f+2     :     0.002426
      f-2     :     0.014846
      f+3     :     0.028459
      f-3     :     0.026966

  7 O s       :     3.416559  s :     3.416559
      pz      :     1.230231  p :     4.391623
      px      :     1.568659
      py      :     1.592734
      dz2     :     0.007806  d :     0.070943
      dxz     :     0.007524
      dyz     :     0.006328
      dx2y2   :     0.024446
      dxy     :     0.024839
      f0      :     0.000421  f :     0.006149
      f+1     :     0.000537
      f-1     :     0.000503
      f+2     :     0.000011
      f-2     :     0.000761
      f+3     :     0.002024
      f-3     :     0.001891

  8 H s       :     0.789978  s :     0.789978
      pz      :     0.013859  p :     0.061124
      px      :     0.014656
      py      :     0.032609

  9 H s       :     0.779373  s :     0.779373
      pz      :     0.011973  p :     0.061842
      px      :     0.024309
      py      :     0.025560

 10 H s       :     0.797374  s :     0.797374
      pz      :     0.012480  p :     0.059293
      px      :     0.011523
      py      :     0.035290

 11 H s       :     0.800863  s :     0.800863
      pz      :     0.012233  p :     0.059030
      px      :     0.037202
      py      :     0.009595

 12 H s       :     0.827246  s :     0.827246
      pz      :     0.008061  p :     0.056477
      px      :     0.009803
      py      :     0.038612



                      *****************************
                      * MAYER POPULATION ANALYSIS *
                      *****************************

  NA   - Mulliken gross atomic population
  ZA   - Total nuclear charge
  QA   - Mulliken gross atomic charge
  VA   - Mayer's total valence
  BVA  - Mayer's bonded valence
  FA   - Mayer's free valence

  ATOM       NA         ZA         QA         VA         BVA        FA
  0 C      6.0574     6.0000    -0.0574     3.8095     3.8095    -0.0000
  1 C      6.1793     6.0000    -0.1793     3.9683     3.9683    -0.0000
  2 C      5.8821     6.0000     0.1179     3.3909     3.3909    -0.0000
  3 C      6.0408     6.0000    -0.0408     3.9936     3.9936    -0.0000
  4 N      7.2502     7.0000    -0.2502     3.0208     3.0208    -0.0000
  5 C      5.9985     6.0000     0.0015     3.9795     3.9795    -0.0000
  6 C      5.8690     6.0000     0.1310     4.0114     4.0114     0.0000
  7 O      8.3049     8.0000    -0.3049     2.1451     2.1451    -0.0000
  8 H      0.8745     1.0000     0.1255     0.9761     0.9761    -0.0000
  9 H      0.8533     1.0000     0.1467     0.9935     0.9935    -0.0000
 10 H      0.8787     1.0000     0.1213     0.9849     0.9849     0.0000
 11 H      0.8750     1.0000     0.1250     0.9791     0.9791    -0.0000
 12 H      0.9362     1.0000     0.0638     0.9709     0.9709     0.0000

  Mayer bond orders larger than 0.100000
B(  0-C ,  1-C ) :   1.4392 B(  0-C ,  5-C ) :   1.3491 B(  0-C ,  8-H ) :   0.9636 
B(  1-C ,  2-C ) :   1.3215 B(  1-C ,  9-H ) :   0.9554 B(  2-C ,  3-C ) :   1.3028 
B(  2-C ,  6-C ) :   0.9165 B(  3-C ,  4-N ) :   1.4687 B(  3-C , 10-H ) :   0.9820 
B(  4-N ,  5-C ) :   1.4401 B(  5-C , 11-H ) :   0.9755 B(  6-C ,  7-O ) :   2.0392 
B(  6-C , 12-H ) :   0.9924 

-------
TIMINGS
-------

Total SCF time: 0 days 0 hours 0 min 31 sec 

Total time                  ....      31.584 sec
Sum of individual times     ....      31.003 sec  ( 98.2%)

SCF preparation             ....       0.215 sec  (  0.7%)
Fock matrix formation       ....      29.661 sec  ( 93.9%)
  Startup                   ....       0.069 sec  (  0.2% of F)
  Split-RI-J                ....       3.382 sec  ( 11.4% of F)
  XC integration            ....      25.535 sec  ( 86.1% of F)
    XC Preparation          ....       0.000 sec  (  0.0% of XC)
    Basis function eval.    ....       4.027 sec  ( 15.8% of XC)
    Density eval.           ....       7.600 sec  ( 29.8% of XC)
    XC-Functional eval.     ....       2.125 sec  (  8.3% of XC)
    XC-Potential eval.      ....      10.753 sec  ( 42.1% of XC)
Diagonalization             ....       0.000 sec  (  0.0%)
Density matrix formation    ....       0.258 sec  (  0.8%)
Total Energy calculation    ....       0.038 sec  (  0.1%)
Population analysis         ....       0.031 sec  (  0.1%)
Orbital Transformation      ....       0.072 sec  (  0.2%)
Orbital Orthonormalization  ....       0.000 sec  (  0.0%)
DIIS solution               ....       0.378 sec  (  1.2%)
SOSCF solution              ....       0.350 sec  (  1.1%)
Finished LeanSCF after  31.7 sec

Maximum memory used throughout the entire LEANSCF-calculation: 29.5 MB

------------------------------------------------------------------------------
                         ORCA PROPERTY INTEGRAL CALCULATIONS
------------------------------------------------------------------------------

GBWName                                   ... vacuum_censo.gbw
Number of atoms                           ...     13
Number of basis functions                 ...    278
Max core memory                           ...   1024 MB

Dipole integrals                          ... YES
Quadrupole integrals                      ...  NO
Linear momentum integrals                 ...  NO
Angular momentum integrals                ...  NO
Higher moments length integrals           ...  NO
Higher moments velocity integrals         ...  NO
Kinetic energy integrals                  ...  NO
GIAO right hand sides                     ...  NO
GIAO dipole derivative integrals          ...  NO
SOC integrals                             ...  NO
EPR diamagnetic integrals (GIAO)          ...  NO
EPR gauge integrals                       ...  NO
Field gradient integrals                  ...  NO (   0 nuclei)
Spin-dipole/Fermi contact integrals       ...  NO (   0 nuclei)
Contact density integrals                 ...  NO (   0 nuclei)
Nucleus-orbit integrals                   ...  NO (   0 nuclei)
Geometric perturbations                   ... YES (  13 nuclei)

Choice of electric origin   ... Center of mass
Position of electric origin ... (  0.0044, -0.0051, -0.0004) 
Choice of magnetic origin   ... GIAO
Position of magnetic origin ... (  0.0000,  0.0000,  0.0000) 

Calculating integrals                     ... Electric Dipole (Length)     done (  0.1 sec)
Calculating integrals                     ... Geometrical perturbation right hand sides

-----------------------
GEOMETRIC PERTURBATIONS (13 nuclei)
-----------------------

MaxCore                            ...   1024 MB
Number of batches                  ...      1

BATCH   0: Atoms    0 -   12 ( 39 perturbations)
   => H(core) and overlap derivative integrals     ... done (     0.4 sec)
   => Making and storing internal U-coefficients   ... done (     0.3 sec)
   => RI-J derivative integrals                    ... done (     3.7 sec)
   => RI-J response operators                      ... done (     0.9 sec)
   => XC derivative integrals                      ... done (   204.0 sec)
   => XC response operators                        ... done (    56.6 sec)
   => Completing and storing right hand sides      ... done (     0.2 sec)
   => Total time for right hand sides = 268.2 sec

  geometrical perturbations done (268.2 sec)

Property integrals calculated in 268.3 sec

Maximum memory used throughout the entire PROPINT-calculation: 124.8 MB


-------------------------------------------------------------------------------
                          DFT DISPERSION CORRECTION                            
                                                                               
                                DFTD4 V3.4.0                                   
-------------------------------------------------------------------------------
The R2SCAN3C composite method is recognized
Using three-body term ABC
Active option DFTDOPT                   ...         5   

-------------------------   ----------------
Dispersion correction           -0.004100889
-------------------------   ----------------

------------------   -----------------
gCP correction             0.005797761
------------------   -----------------

-------------------------   --------------------
FINAL SINGLE POINT ENERGY      -361.549957161914
-------------------------   --------------------

------------------------------------------------------------------------------
                            ORCA SCF RESPONSE CALCULATION
------------------------------------------------------------------------------

GBWName                                 ... vacuum_censo.gbw
Number of atoms                         ...     13
Number of basis functions               ...    278
Max core memory                         ...   1024 MB

Electric field perturbation             ...  NO
Quadrupolar field perturbation          ...  NO
Magnetic field perturbation (no GIAO)   ...  NO
Magnetic field perturbation (with GIAO) ...  NO
Linear momentum (velocity) perturbation ...  NO
Spin-orbit coupling perturbation        ...  NO
Choice of electric origin               ... Center of mass
Position of electric origin             ...     0.004352    -0.005068    -0.000358
Choice of magnetic origin               ... GIAO
Position of magnetic origin             ...     0.000000     0.000000     0.000000
Nuclear geometric perturbations         ... YES (  39 perturbations)
Nucleus-orbit perturbations             ...  NO (   0 perturbations)
Spin-dipole/Fermi contact perturbations ...  NO (   0 perturbations)

Total number of real perturbations      ...     39
Total number of imaginary perturbations ...      0
Total number of triplet perturbations   ...      0
Total number of SOC perturbations       ...      0


                                **********************
                                * REAL PERTURBATIONS *
                                **********************



-------------------
SHARK CP-SCF DRIVER
-------------------

Dimension of the orbital basis          ...    278
Dimension of the CPSCF-problem          ...   7000
Number of operators                     ...      1
Max. number of iterations               ...    128
Convergence Tolerance                   ... 1.0e-03
Number of perturbations                 ...     39
Perturbation type                       ... REAL

----------------------------
POPLE LINEAR EQUATION SOLVER
----------------------------

  ITERATION   0:   ||err||_max =   6.8610e-01 (  16.8 sec   0/ 39 done)
  ITERATION   1:   ||err||_max =   6.6219e-02 (  16.9 sec   0/ 39 done)
  ITERATION   2:   ||err||_max =   1.8588e-02 (  17.7 sec   8/ 39 done)
  ITERATION   3:   ||err||_max =   7.7411e-03 (  15.5 sec  15/ 39 done)
  ITERATION   4:   ||err||_max =   2.3119e-03 (  12.0 sec  22/ 39 done)
  ITERATION   5:   ||err||_max =   7.8212e-04 (   9.1 sec  39/ 39 done)

CP-SCF equations solved in  89.8 sec
Response densities calculated in   0.1 sec

Maximum memory used throughout the entire SCFRESP-calculation: 78.1 MB

------------------------------------------------------------------------------
                              ORCA PROPERTY CALCULATIONS
------------------------------------------------------------------------------

GBWName                                 ... vacuum_censo.gbw
Number of atoms                         ...     13
Number of basis functions               ...    278
Max core memory                         ...   1024 MB

Electric properties:
Dipole moment                           ... YES
Quadrupole moment                       ...  NO
Static polarizability (Dipole/Dipole)   ...  NO
Static polarizability (Dipole/Quad.)    ...  NO
Static polarizability (Quad./Quad.)     ...  NO
Static polarizability (Velocity)        ...  NO

Atomic electric properties:
Dipole moment                           ...  NO
Quadrupole moment                       ...  NO
Static polarizability                   ...  NO

Choice of electric origin               ... Center of mass
Position of electric origin             ...     0.004352    -0.005068    -0.000358

General magnetic properties:
Magnetizability                         ...  NO

EPR properties:
g-Tensor (aka g-matrix)                 ...  NO
Zero-Field splitting spin-orbit         ...  NO
Zero-field splitting spin-spin          ...  NO
Hyperfine couplings                     ...  NO (   0 nuclei)
Quadrupole couplings                    ...  NO (   0 nuclei)
Contact density                         ...  NO (   0 nuclei)

NMR properties:
Chemical shifts                         ...  NO (   0 nuclei)
Spin-rotation constants                 ...  NO (   0 nuclei)
Spin-spin couplings                     ...  NO (   0 nuclei,    0 pairs)

Choice of magnetic origin               ... GIAO
Position of magnetic origin             ...     0.000000     0.000000     0.000000

Properties with geometric perturbations:
SCF Hessian                             ... YES
IR spectrum                             ... YES
VCD spectrum                            ...  NO
X-ray spectroscopy properties:
SCF XES/XAS/RIXS spectra                ...  NO


-------------
DIPOLE MOMENT
-------------

Method             : SCF
Type of density    : Electron Density
Multiplicity       :   1
Irrep              :   0
Energy             :  -361.5516540340955203 Eh
Relativity type    : 
Basis              : AO
                                X                 Y                 Z
Electronic contribution:     -1.345150081      -0.480832236      -0.000235500
Nuclear contribution   :      2.021205005       0.710857894       0.001633722
                        -----------------------------------------
Total Dipole Moment    :      0.676054924       0.230025658       0.001398222
                        -----------------------------------------
Magnitude (a.u.)       :      0.714117650
Magnitude (Debye)      :      1.815142815



--------------------
Rotational spectrum 
--------------------
 
Rotational constants in cm-1:             0.181214             0.052920             0.040959 
Rotational constants in MHz :          5432.661521          1586.495467          1227.910268 

Dipole components along the rotational axes: 
x,y,z [a.u.] :    -0.676113     0.229855     0.001239 
x,y,z [Debye]:    -1.718543     0.584246     0.003148 

 

Dipole moment calculation done in   0.0 sec 

-----------
SCF HESSIAN
-----------

Occupied/Occupied contributions to the Hessian:
   => Occupied/Occupied contributions              ... done (  0.0 sec)
Perturbed density contributions to the Hessian:
   => Perturbed density contributions              ... done (  0.0 sec)
Explicit contributions to the Hessian:
   => Nuclear repulsion Hessian                    ... done (  0.0 sec)
   => HCore and overlap Hessian                    ... done (  8.9 sec)
   => RI-J Hessian                                 ... done (  9.5 sec)
   => XC-Hessian                                   ... done ( 62.7 sec)
   => Van der Waals-Hessian                        ... done (  2.3 sec)
   => GCP-Hessian                                  ... done (  0.0 sec)
   => Explicit contributions done
Dipole derivatives                                 ... done (  0.1 sec)
Mass weighting the Hessian           ... done
Calculating normal modes             ... done
Scaling frequencies                  ... done

-----------------------
VIBRATIONAL FREQUENCIES
-----------------------

Scaling factor for frequencies =  1.000000000  (already applied!)

     0:       0.00 cm**-1
     1:       0.00 cm**-1
     2:       0.00 cm**-1
     3:       0.00 cm**-1
     4:       0.00 cm**-1
     5:       0.00 cm**-1
     6:     120.03 cm**-1
     7:     222.50 cm**-1
     8:     233.48 cm**-1
     9:     385.49 cm**-1
    10:     444.01 cm**-1
    11:     448.71 cm**-1
    12:     632.03 cm**-1
    13:     686.46 cm**-1
    14:     720.94 cm**-1
    15:     815.45 cm**-1
    16:     849.49 cm**-1
    17:     944.19 cm**-1
    18:     980.09 cm**-1
    19:    1008.48 cm**-1
    20:    1026.37 cm**-1
    21:    1044.70 cm**-1
    22:    1056.91 cm**-1
    23:    1125.47 cm**-1
    24:    1213.71 cm**-1
    25:    1235.94 cm**-1
    26:    1306.03 cm**-1
    27:    1349.61 cm**-1
    28:    1408.69 cm**-1
    29:    1453.37 cm**-1
    30:    1504.55 cm**-1
    31:    1600.56 cm**-1
    32:    1617.99 cm**-1
    33:    1749.05 cm**-1
    34:    2867.90 cm**-1
    35:    3117.71 cm**-1
    36:    3137.29 cm**-1
    37:    3175.04 cm**-1
    38:    3187.61 cm**-1


------------
NORMAL MODES
------------

These modes are the Cartesian displacements weighted by the diagonal matrix
M(i,i)=1/sqrt(m[i]) where m[i] is the mass of the displaced atom
Thus, these vectors are normalized but *not* orthogonal

                  0          1          2          3          4          5    
      0       0.000000   0.000000   0.000000   0.000000   0.000000   0.000000
      1       0.000000   0.000000   0.000000   0.000000   0.000000   0.000000
      2       0.000000   0.000000   0.000000   0.000000   0.000000   0.000000
      3       0.000000   0.000000   0.000000   0.000000   0.000000   0.000000
      4       0.000000   0.000000   0.000000   0.000000   0.000000   0.000000
      5       0.000000   0.000000   0.000000   0.000000   0.000000   0.000000
      6       0.000000   0.000000   0.000000   0.000000   0.000000   0.000000
      7       0.000000   0.000000   0.000000   0.000000   0.000000   0.000000
      8       0.000000   0.000000   0.000000   0.000000   0.000000   0.000000
      9       0.000000   0.000000   0.000000   0.000000   0.000000   0.000000
     10       0.000000   0.000000   0.000000   0.000000   0.000000   0.000000
     11       0.000000   0.000000   0.000000   0.000000   0.000000   0.000000
     12       0.000000   0.000000   0.000000   0.000000   0.000000   0.000000
     13       0.000000   0.000000   0.000000   0.000000   0.000000   0.000000
     14       0.000000   0.000000   0.000000   0.000000   0.000000   0.000000
     15       0.000000   0.000000   0.000000   0.000000   0.000000   0.000000
     16       0.000000   0.000000   0.000000   0.000000   0.000000   0.000000
     17       0.000000   0.000000   0.000000   0.000000   0.000000   0.000000
     18       0.000000   0.000000   0.000000   0.000000   0.000000   0.000000
     19       0.000000   0.000000   0.000000   0.000000   0.000000   0.000000
     20       0.000000   0.000000   0.000000   0.000000   0.000000   0.000000
     21       0.000000   0.000000   0.000000   0.000000   0.000000   0.000000
     22       0.000000   0.000000   0.000000   0.000000   0.000000   0.000000
     23       0.000000   0.000000   0.000000   0.000000   0.000000   0.000000
     24       0.000000   0.000000   0.000000   0.000000   0.000000   0.000000
     25       0.000000   0.000000   0.000000   0.000000   0.000000   0.000000
     26       0.000000   0.000000   0.000000   0.000000   0.000000   0.000000
     27       0.000000   0.000000   0.000000   0.000000   0.000000   0.000000
     28       0.000000   0.000000   0.000000   0.000000   0.000000   0.000000
     29       0.000000   0.000000   0.000000   0.000000   0.000000   0.000000
     30       0.000000   0.000000   0.000000   0.000000   0.000000   0.000000
     31       0.000000   0.000000   0.000000   0.000000   0.000000   0.000000
     32       0.000000   0.000000   0.000000   0.000000   0.000000   0.000000
     33       0.000000   0.000000   0.000000   0.000000   0.000000   0.000000
     34       0.000000   0.000000   0.000000   0.000000   0.000000   0.000000
     35       0.000000   0.000000   0.000000   0.000000   0.000000   0.000000
     36       0.000000   0.000000   0.000000   0.000000   0.000000   0.000000
     37       0.000000   0.000000   0.000000   0.000000   0.000000   0.000000
     38       0.000000   0.000000   0.000000   0.000000   0.000000   0.000000
                  6          7          8          9         10         11    
      0      -0.000069  -0.203722   0.000562  -0.000118  -0.133754  -0.002993
      1       0.000021   0.003204  -0.000017   0.000039   0.052330   0.001173
      2       0.042878  -0.000566  -0.038672  -0.248254   0.001031  -0.011107
      3      -0.000033  -0.155535   0.000449  -0.000021  -0.120198  -0.002638
      4       0.000048  -0.194768   0.000608   0.000126   0.192939   0.004241
      5       0.241820   0.000709   0.123423   0.152096  -0.008122   0.161838
      6      -0.000048   0.004556  -0.000048   0.000000   0.077993   0.001824
      7       0.000053  -0.240864   0.000739   0.000104   0.129202   0.002815
      8       0.247043   0.000684   0.087342   0.137320   0.014465  -0.325199
      9      -0.000146   0.108591  -0.000332  -0.000231  -0.166453  -0.003547
     10       0.000022  -0.147539   0.000473   0.000094   0.020237   0.000330
     11       0.104535   0.001112   0.137892  -0.188556   0.002826  -0.060028
     12      -0.000226   0.088197  -0.000303  -0.000143  -0.194693  -0.004084
     13       0.000025   0.051867  -0.000184  -0.000049  -0.102955  -0.002379
     14      -0.157050   0.000502   0.050153   0.106629  -0.011310   0.240485
     15      -0.000178  -0.072740   0.000144  -0.000110  -0.260652  -0.005817
     16      -0.000000   0.108247  -0.000336  -0.000071  -0.084466  -0.001821
     17      -0.198660  -0.001055  -0.141229   0.090634   0.007522  -0.161946
     18      -0.000072  -0.037494   0.000334   0.000218   0.338639   0.007401
     19       0.000153   0.007772  -0.000265  -0.000111  -0.093516  -0.001840
     20       0.168639  -0.001540  -0.225360   0.016716  -0.001231   0.028197
     21       0.000674   0.242862  -0.000753   0.000335   0.392299   0.008438
     22      -0.000282   0.310714  -0.000731  -0.000089  -0.071803  -0.001606
     23      -0.359423   0.000517   0.057058  -0.024397   0.000454   0.000709
     24      -0.000041  -0.341205   0.000968  -0.000091   0.056507   0.001261
     25       0.000010   0.059209  -0.000186  -0.000001  -0.026730  -0.000581
     26       0.035374  -0.001436  -0.128275  -0.532975  -0.005476   0.147634
     27       0.000008  -0.289633   0.000898   0.000026  -0.186966  -0.004114
     28       0.000072  -0.315938   0.001009   0.000142   0.129765   0.002777
     29       0.357477   0.000755   0.156542   0.304541  -0.030102   0.632290
     30      -0.000180   0.258191  -0.000804  -0.000465  -0.386042  -0.008358
     31       0.000033  -0.196025   0.000630   0.000186   0.093427   0.001926
     32       0.140962   0.001736   0.221173  -0.582742  -0.003671   0.097913
     33      -0.000251  -0.090297   0.000119  -0.000023  -0.260548  -0.005885
     34      -0.000013   0.240279  -0.000706  -0.000168  -0.097724  -0.002003
     35      -0.429623  -0.002666  -0.368572   0.326254   0.015306  -0.331039
     36      -0.000589  -0.371261   0.001757   0.000341   0.406694   0.008650
     37       0.000486   0.088336  -0.000902  -0.000215  -0.110866  -0.001925
     38       0.559002  -0.005756  -0.808944  -0.132399  -0.022611   0.488102
                 12         13         14         15         16         17    
      0      -0.239319   0.021258  -0.000003   0.000003   0.120735   0.000002
      1      -0.229840  -0.223231  -0.000019   0.000144   0.291678  -0.000005
      2      -0.000060   0.000176  -0.153475  -0.029208   0.000083  -0.056732
      3      -0.288282  -0.069104   0.000013   0.000017   0.050863  -0.000023
      4       0.212312   0.003704   0.000022   0.000056   0.237172   0.000056
      5       0.000165  -0.000317   0.072891  -0.120132   0.000072  -0.028022
      6       0.047006  -0.249094  -0.000071   0.000052  -0.000324  -0.000016
      7       0.154153   0.050532   0.000005  -0.000022  -0.025908  -0.000019
      8       0.000245  -0.000206  -0.100112   0.110427  -0.000072  -0.015420
      9       0.235514  -0.054011   0.000018   0.000032   0.041004   0.000066
     10       0.150154   0.330392   0.000042  -0.000141  -0.101054  -0.000013
     11       0.000060  -0.000245   0.112246  -0.068660  -0.000016   0.155412
     12       0.367300  -0.009647  -0.000079   0.000129   0.116151  -0.000037
     13      -0.286279   0.106698   0.000073  -0.000123  -0.165939   0.000025
     14      -0.000314   0.000388  -0.141031   0.075952  -0.000068  -0.026299
     15      -0.030620   0.236016   0.000058  -0.000140  -0.129612   0.000004
     16      -0.136787  -0.040411  -0.000023   0.000030  -0.021243  -0.000020
     17       0.000159  -0.000379   0.094687  -0.110183   0.000125   0.034407
     18       0.008138  -0.161536  -0.000055  -0.000052  -0.260257   0.000035
     19       0.108684  -0.310522  -0.000147   0.000081  -0.262121  -0.000078
     20      -0.000032   0.000290  -0.018440   0.034502   0.000053  -0.053590
     21      -0.104000   0.215249   0.000067  -0.000084   0.044598  -0.000005
     22       0.020465   0.041943   0.000035   0.000004   0.052816   0.000020
     23      -0.000125   0.000130   0.003446  -0.011387   0.000004   0.015094
     24      -0.007842  -0.084227   0.000089   0.000342   0.448908   0.000202
     25      -0.325423  -0.178818  -0.000020   0.000089   0.166749  -0.000047
     26      -0.000445   0.001140   0.194244   0.810503  -0.001107   0.335611
     27      -0.232230   0.240409   0.000190   0.000059   0.008813   0.000066
     28       0.262274   0.272995   0.000123   0.000027   0.214598   0.000106
     29      -0.000194   0.000466   0.495413   0.358281  -0.000303   0.194323
     30      -0.004253  -0.036416   0.000140   0.000082   0.000668  -0.000187
     31       0.231550   0.326381  -0.000007  -0.000161  -0.092456   0.000097
     32       0.000070  -0.000024   0.520372   0.040541   0.000003  -0.848547
     33      -0.091881   0.239995   0.000232  -0.000002  -0.125864  -0.000077
     34       0.304377  -0.048427  -0.000127   0.000037  -0.037578  -0.000014
     35       0.000341  -0.000542   0.604439   0.329701  -0.000486  -0.211762
     36       0.071151  -0.347800  -0.000139   0.000126  -0.538291  -0.000223
     37       0.098185  -0.262054  -0.000113  -0.000100  -0.196042   0.000138
     38       0.000188  -0.000382  -0.002328  -0.230112  -0.000147   0.226623
                 18         19         20         21         22         23    
      0       0.000033  -0.000007  -0.000015   0.004102   0.007557   0.059885
      1       0.000018   0.000062   0.000058  -0.171366  -0.125270   0.018302
      2       0.004862  -0.120086  -0.046141  -0.000062  -0.000065   0.000016
      3      -0.000007  -0.000008   0.000029  -0.077092   0.192239  -0.077059
      4       0.000023  -0.000017  -0.000085   0.206825  -0.121433  -0.016437
      5       0.095356   0.079838   0.087770   0.000111   0.000018  -0.000046
      6       0.000020   0.000038  -0.000037   0.031896   0.024770   0.073391
      7      -0.000010  -0.000007   0.000075  -0.017157   0.004836  -0.017972
      8       0.005048   0.039510  -0.115081  -0.000003  -0.000016   0.000001
      9       0.000004  -0.000054   0.000002   0.047936   0.098545   0.063338
     10       0.000074   0.000081  -0.000036  -0.206178   0.150620   0.093223
     11       0.031283  -0.075522   0.048058  -0.000098  -0.000028  -0.000011
     12      -0.000027  -0.000014   0.000055  -0.073004   0.014216  -0.057639
     13       0.000011  -0.000033  -0.000091   0.188026   0.065221   0.045836
     14       0.016722   0.005332  -0.000653   0.000076   0.000017   0.000032
     15      -0.000012   0.000085   0.000026   0.011151  -0.345805  -0.007340
     16      -0.000023  -0.000022   0.000037  -0.007609   0.010464  -0.064024
     17      -0.135527   0.093907  -0.005843  -0.000009   0.000093  -0.000003
     18       0.000029   0.000025  -0.000164  -0.005782  -0.034523  -0.016067
     19      -0.000123  -0.000078   0.000183  -0.009077  -0.023896  -0.007445
     20      -0.080285  -0.061606   0.195377   0.000087   0.000020   0.000075
     21      -0.000002  -0.000006   0.000060  -0.007149  -0.002129  -0.014466
     22       0.000025   0.000013  -0.000058   0.003628   0.005718   0.005246
     23       0.021603   0.015212  -0.046092  -0.000025  -0.000011  -0.000037
     24       0.000127   0.000170  -0.000122   0.453830   0.386047   0.485205
     25      -0.000009   0.000065   0.000136  -0.357288  -0.302757  -0.152338
     26       0.083177   0.590245   0.264292   0.000168   0.000092  -0.000251
     27      -0.000322  -0.000357  -0.000256   0.154208   0.446105  -0.619673
     28      -0.000146  -0.000239  -0.000250   0.414429   0.081122  -0.481531
     29      -0.584503  -0.462719  -0.486200  -0.000639  -0.000469   0.000484
     30      -0.000102  -0.000073  -0.000147   0.433091   0.136873   0.080701
     31       0.000112   0.000074   0.000021  -0.334812   0.147148   0.091811
     32      -0.160573   0.303366  -0.239547   0.000018   0.000017  -0.000015
     33       0.000278  -0.000092   0.000022   0.005953  -0.406134   0.018182
     34      -0.000217  -0.000056   0.000065   0.041061   0.345686  -0.255225
     35       0.686397  -0.485318   0.001685  -0.000129   0.000036  -0.000086
     36      -0.000364  -0.000283   0.000692  -0.064670  -0.044864  -0.079538
     37       0.000202   0.000172  -0.000546   0.003741  -0.020951   0.009800
     38       0.344720   0.262688  -0.755418  -0.000396  -0.000026  -0.000369
                 24         25         26         27         28         29    
      0       0.082749   0.034153  -0.227905  -0.001894  -0.022547  -0.039255
      1      -0.003090   0.089333   0.114423  -0.038744  -0.014159   0.079394
      2      -0.000019  -0.000011   0.000057  -0.000000   0.000002   0.000010
      3      -0.042503  -0.045955   0.173226   0.094606   0.001628  -0.033143
      4      -0.041390  -0.020207   0.127116   0.042287  -0.018784   0.012969
      5       0.000015   0.000037  -0.000012  -0.000026  -0.000004   0.000007
      6      -0.169700  -0.210432  -0.057844  -0.009047   0.018442   0.093216
      7       0.011003  -0.035877  -0.311850   0.103354   0.034352  -0.156396
      8      -0.000002  -0.000004  -0.000072   0.000016   0.000024  -0.000006
      9      -0.080161   0.087565  -0.368231  -0.057956   0.009649   0.024242
     10      -0.048607   0.041071   0.077729  -0.015860  -0.046366   0.098112
     11       0.000020  -0.000041   0.000147   0.000017  -0.000007   0.000001
     12       0.054940   0.006072   0.341815   0.009584   0.043040  -0.131537
     13      -0.058868  -0.019157   0.260844   0.000187   0.041959  -0.061563
     14      -0.000035  -0.000004  -0.000076  -0.000003  -0.000004   0.000035
     15       0.024610  -0.051227   0.008946  -0.007360  -0.016736   0.086515
     16       0.118119  -0.068740  -0.342313  -0.057433   0.021014  -0.076449
     17       0.000005   0.000016  -0.000036  -0.000003   0.000003  -0.000033
     18       0.042418   0.066711   0.080264  -0.041074  -0.071355  -0.016856
     19       0.032382   0.050613   0.077320  -0.037917  -0.060575  -0.025819
     20      -0.000058   0.000004   0.000051  -0.000033   0.000019   0.000089
     21       0.022490   0.008690  -0.014367   0.007456  -0.015046  -0.037786
     22      -0.008258  -0.001284  -0.024268   0.018189   0.068206   0.051723
     23       0.000039   0.000006  -0.000006  -0.000005  -0.000088  -0.000106
     24       0.650850   0.022910   0.466627  -0.341934   0.061340   0.135416
     25      -0.232028   0.099694  -0.168125   0.094960  -0.052872   0.024250
     26      -0.000223   0.000024  -0.000077   0.000077  -0.000021  -0.000019
     27      -0.171652   0.167717  -0.092586  -0.376135   0.001230   0.232363
     28      -0.148501   0.173365  -0.109758  -0.369768  -0.021911   0.247087
     29       0.000048  -0.000197  -0.000050   0.000155   0.000015  -0.000086
     30      -0.099971   0.688797  -0.219364   0.575200  -0.306625   0.204102
     31      -0.049899  -0.149335   0.058043  -0.215668   0.046033   0.048134
     32       0.000045  -0.000116   0.000045  -0.000192   0.000081  -0.000038
     33      -0.031431   0.003990   0.003157  -0.059776   0.028296   0.000077
     34       0.575855  -0.504260  -0.051594   0.349685  -0.341235   0.683410
     35       0.000105  -0.000102  -0.000060   0.000040  -0.000073   0.000111
     36       0.230820   0.314447  -0.014087   0.221903   0.820685   0.488637
     37      -0.011560  -0.002454   0.101150  -0.099110  -0.288539  -0.155856
     38       0.000365   0.000323  -0.000326   0.000390   0.000987   0.000432
                 30         31         32         33         34         35    
      0       0.192079   0.032421   0.312941  -0.021899  -0.000117  -0.000138
      1      -0.042403  -0.186589  -0.045891  -0.022963   0.000393  -0.000971
      2      -0.000052  -0.000017  -0.000085  -0.000013  -0.000001   0.000001
      3      -0.037167   0.136371  -0.300537   0.038394  -0.000277   0.000193
      4       0.091088   0.252940  -0.104700   0.076466  -0.000255   0.001060
      5       0.000012  -0.000019   0.000052  -0.000011   0.000000   0.000000
      6      -0.106426   0.000914   0.228297   0.014017  -0.001701  -0.002294
      7      -0.101088  -0.317600  -0.028768  -0.114169   0.001422   0.001469
      8       0.000008  -0.000022  -0.000017   0.000047   0.000002   0.000000
      9       0.113383  -0.085966  -0.299108   0.058707  -0.000396  -0.022607
     10      -0.026824   0.138928   0.077134   0.020896  -0.000837  -0.082539
     11      -0.000051   0.000045   0.000111   0.000010   0.000001  -0.000004
     12      -0.001188  -0.021496   0.155709  -0.037643   0.000456  -0.001023
     13       0.079944  -0.153095   0.030580  -0.024063  -0.000252  -0.000168
     14       0.000022  -0.000025  -0.000045  -0.000001  -0.000000   0.000000
     15      -0.072890  -0.042686  -0.116514   0.007981   0.000022  -0.005698
     16      -0.102182   0.324192   0.024958   0.025182  -0.000327   0.000874
     17       0.000007   0.000048   0.000031  -0.000012  -0.000000   0.000002
     18       0.039231   0.069745  -0.052840  -0.523944   0.024155  -0.001233
     19       0.012627  -0.018830   0.019503   0.451553   0.078700  -0.001323
     20       0.000049   0.000147  -0.000055  -0.000975  -0.000041  -0.000000
     21      -0.011499  -0.053135   0.006636   0.334492  -0.002011   0.000457
     22       0.009925   0.040612  -0.006206  -0.315231   0.001291  -0.000030
     23      -0.000029  -0.000117   0.000017   0.000718  -0.000003   0.000001
     24      -0.519585  -0.241749  -0.281397  -0.055833   0.000276   0.003248
     25       0.254494  -0.098684   0.210538  -0.008928  -0.001880   0.007602
     26       0.000153   0.000050   0.000089   0.000002   0.000000   0.000001
     27      -0.228605  -0.357417   0.233245  -0.101488   0.001866   0.003072
     28      -0.048926  -0.169912   0.378673  -0.021323  -0.005174  -0.006371
     29       0.000003   0.000053  -0.000016   0.000146   0.000004  -0.000003
     30      -0.550598   0.229860   0.483662  -0.049010   0.010659   0.294391
     31       0.177072   0.045200  -0.142237   0.044857   0.013620   0.948426
     32       0.000213  -0.000033  -0.000212   0.000038  -0.000000   0.000031
     33      -0.141393   0.042474  -0.114165   0.010213  -0.000001   0.077396
     34       0.368828  -0.555349  -0.054649  -0.018809  -0.000355   0.009361
     35       0.000049  -0.000059   0.000033   0.000035  -0.000000  -0.000025
     36       0.111489   0.148634   0.123552   0.495067  -0.245609   0.007510
     37      -0.008714  -0.038690  -0.030469   0.135182  -0.965688   0.014087
     38       0.000059   0.000036   0.000023  -0.000244   0.000509   0.000001
                 36         37         38    
      0       0.007988  -0.020859   0.024870
      1       0.012400  -0.057584   0.055162
      2      -0.000003   0.000005  -0.000006
      3       0.001685  -0.036723  -0.044302
      4      -0.001676   0.044762   0.047557
      5       0.000000   0.000006   0.000009
      6       0.000276  -0.000606  -0.000830
      7      -0.000221  -0.000725  -0.001955
      8      -0.000000   0.000000   0.000000
      9       0.003086   0.001250   0.000073
     10       0.006777   0.001885  -0.001233
     11       0.000000   0.000000   0.000001
     12      -0.000182   0.000331  -0.000352
     13      -0.000934   0.000158  -0.000181
     14      -0.000000  -0.000000  -0.000000
     15      -0.084074  -0.014883   0.010865
     16      -0.008132  -0.000161  -0.001228
     17       0.000027   0.000005  -0.000004
     18       0.000088  -0.000538  -0.000882
     19       0.000113   0.000391   0.000385
     20       0.000000  -0.000001  -0.000001
     21      -0.000079   0.000092   0.000229
     22       0.000026  -0.000344  -0.000422
     23      -0.000000   0.000000   0.000001
     24      -0.075786   0.266408  -0.255801
     25      -0.171809   0.659069  -0.621640
     26       0.000018  -0.000064   0.000063
     27      -0.020573   0.443545   0.477415
     28       0.023204  -0.516180  -0.548987
     29       0.000005  -0.000072  -0.000079
     30      -0.021670  -0.007592   0.001694
     31      -0.069392  -0.021411   0.008228
     32      -0.000002  -0.000000   0.000001
     33       0.967682   0.152849  -0.103063
     34       0.121109   0.016294  -0.009118
     35      -0.000310  -0.000048   0.000035
     36      -0.000466   0.000944   0.002625
     37      -0.000891   0.001701   0.004802
     38      -0.000002   0.000000  -0.000003


-----------
IR SPECTRUM
-----------

 Mode   freq       eps      Int      T**2         TX        TY        TZ
       cm**-1   L/(mol*cm) km/mol    a.u.
----------------------------------------------------------------------------
  6:    120.03   0.001763    8.91  0.004583  (-0.000080  0.000012  0.067698)
  7:    222.50   0.002604   13.16  0.003653  (-0.047490 -0.037384 -0.000234)
  8:    233.48   0.001519    7.68  0.002030  ( 0.000027  0.000519 -0.045055)
  9:    385.49   0.000357    1.80  0.000289  (-0.000007  0.000028 -0.017003)
 10:    444.01   0.000177    0.90  0.000125  ( 0.005695  0.009608 -0.000078)
 11:    448.71   0.000014    0.07  0.000010  ( 0.000286  0.000191  0.003109)
 12:    632.03   0.000598    3.02  0.000295  (-0.004162  0.016678  0.000010)
 13:    686.46   0.003586   18.12  0.001630  (-0.037569 -0.014786 -0.000001)
 14:    720.94   0.006050   30.58  0.002619  (-0.000112  0.000043  0.051176)
 15:    815.45   0.003333   16.85  0.001276  (-0.000025  0.000033  0.035717)
 16:    849.49   0.007090   35.83  0.002605  (-0.049536 -0.012282 -0.000035)
 17:    944.19   0.000055    0.28  0.000018  ( 0.000008 -0.000011 -0.004254)
 18:    980.09   0.000031    0.16  0.000010  ( 0.000042 -0.000080 -0.003132)
 19:   1008.48   0.000023    0.12  0.000007  ( 0.000049 -0.000071  0.002675)
 20:   1026.37   0.000300    1.52  0.000091  (-0.000153  0.000091 -0.009550)
 21:   1044.70   0.002174   10.98  0.000649  ( 0.016474 -0.019440 -0.000008)
 22:   1056.91   0.000849    4.29  0.000251  (-0.015796  0.001076 -0.000003)
 23:   1125.47   0.002380   12.03  0.000660  (-0.014185 -0.021416 -0.000003)
 24:   1213.71   0.001278    6.46  0.000328  ( 0.011106  0.014323  0.000007)
 25:   1235.94   0.012003   60.66  0.003031  ( 0.055039  0.001160  0.000003)
 26:   1306.03   0.001115    5.64  0.000267  ( 0.014726 -0.007046  0.000002)
 27:   1349.61   0.003756   18.98  0.000869  (-0.019991 -0.021655  0.000003)
 28:   1408.69   0.002688   13.58  0.000595  (-0.017134 -0.017373  0.000013)
 29:   1453.37   0.005350   27.04  0.001149  ( 0.029113  0.017352  0.000009)
 30:   1504.55   0.000431    2.18  0.000089  ( 0.006225  0.007110  0.000011)
 31:   1600.56   0.004210   21.28  0.000821  ( 0.020309  0.020210  0.000018)
 32:   1617.99   0.016876   85.29  0.003255  (-0.056689  0.006425 -0.000002)
 33:   1749.05   0.045983  232.38  0.008204  (-0.082263  0.037909 -0.000085)
 34:   2867.90   0.022471  113.56  0.002445  ( 0.021063  0.044738 -0.000043)
 35:   3117.71   0.003033   15.33  0.000304  (-0.009205 -0.014795  0.000002)
 36:   3137.29   0.002328   11.77  0.000232  (-0.014862 -0.003275  0.000002)
 37:   3175.04   0.000657    3.32  0.000065  (-0.005798 -0.005561  0.000004)
 38:   3187.61   0.001705    8.62  0.000167  ( 0.008105  0.010063  0.000005)

* The epsilon (eps) is given for a Dirac delta lineshape.
** The dipole moment derivative (T) already includes vibrational overlap.

The first frequency considered to be a vibration is 6
The total number of vibrations considered is 33


--------------------------
THERMOCHEMISTRY AT 298.15K
--------------------------

Temperature         ...   298.15 K
Pressure            ...     1.00 atm
Total Mass          ...   107.11 AMU
Quasi RRHO          ...     True
Cut-Off Frequency   ...     1.00 cm^-1

Throughout the following assumptions are being made:
  (1) The electronic state is orbitally nondegenerate
  (2) There are no thermally accessible electronically excited states
  (3) Hindered rotations indicated by low frequency modes are not
      treated as such but are treated as vibrations and this may
      cause some error
  (4) All equations used are the standard statistical mechanics
      equations for an ideal gas
  (5) All vibrations are strictly harmonic

freq.     120.03  E(vib)   ...       0.44 
freq.     222.50  E(vib)   ...       0.33 
freq.     233.48  E(vib)   ...       0.32 
freq.     385.49  E(vib)   ...       0.20 
freq.     444.01  E(vib)   ...       0.17 
freq.     448.71  E(vib)   ...       0.17 
freq.     632.03  E(vib)   ...       0.09 
freq.     686.46  E(vib)   ...       0.07 
freq.     720.94  E(vib)   ...       0.07 
freq.     815.45  E(vib)   ...       0.05 
freq.     849.49  E(vib)   ...       0.04 
freq.     944.19  E(vib)   ...       0.03 
freq.     980.09  E(vib)   ...       0.02 
freq.    1008.48  E(vib)   ...       0.02 
freq.    1026.37  E(vib)   ...       0.02 
freq.    1044.70  E(vib)   ...       0.02 
freq.    1056.91  E(vib)   ...       0.02 
freq.    1125.47  E(vib)   ...       0.01 
freq.    1213.71  E(vib)   ...       0.01 
freq.    1235.94  E(vib)   ...       0.01 
freq.    1306.03  E(vib)   ...       0.01 
freq.    1349.61  E(vib)   ...       0.01 
freq.    1408.69  E(vib)   ...       0.00 
freq.    1453.37  E(vib)   ...       0.00 
freq.    1504.55  E(vib)   ...       0.00 
freq.    1600.56  E(vib)   ...       0.00 
freq.    1617.99  E(vib)   ...       0.00 
freq.    1749.05  E(vib)   ...       0.00 
freq.    2867.90  E(vib)   ...       0.00 
freq.    3117.71  E(vib)   ...       0.00 
freq.    3137.29  E(vib)   ...       0.00 
freq.    3175.04  E(vib)   ...       0.00 
freq.    3187.61  E(vib)   ...       0.00 

------------
INNER ENERGY
------------

The inner energy is: U= E(el) + E(ZPE) + E(vib) + E(rot) + E(trans)
    E(el)   - is the total energy from the electronic structure calculation
              = E(kin-el) + E(nuc-el) + E(el-el) + E(nuc-nuc)
    E(ZPE)  - the the zero temperature vibrational energy from the frequency calculation
    E(vib)  - the the finite temperature correction to E(ZPE) due to population
              of excited vibrational states
    E(rot)  - is the rotational thermal energy
    E(trans)- is the translational thermal energy

Summary of contributions to the inner energy U:
Electronic energy                ...   -361.54995716 Eh
Zero point energy                ...      0.09720906 Eh      61.00 kcal/mol
Thermal vibrational correction   ...      0.00341022 Eh       2.14 kcal/mol
Thermal rotational correction    ...      0.00141627 Eh       0.89 kcal/mol
Thermal translational correction ...      0.00141627 Eh       0.89 kcal/mol
-----------------------------------------------------------------------
Total thermal energy                   -361.44650535 Eh


Summary of corrections to the electronic energy:
(perhaps to be used in another calculation)
Total thermal correction                  0.00624276 Eh       3.92 kcal/mol
Non-thermal (ZPE) correction              0.09720906 Eh      61.00 kcal/mol
-----------------------------------------------------------------------
Total correction                          0.10345181 Eh      64.92 kcal/mol


--------
ENTHALPY
--------

The enthalpy is H = U + kB*T
                kB is Boltzmann's constant
Total thermal energy              ...   -361.44650535 Eh 
Thermal Enthalpy correction       ...      0.00094421 Eh       0.59 kcal/mol
-----------------------------------------------------------------------
Total Enthalpy                    ...   -361.44556114 Eh


Note: Only C1 symmetry has been detected, increase convergence thresholds 
      if your molecule has a higher symmetry. Symmetry factor of 1.0 is   
      used for the rotational entropy correction. 
 

Note: Rotational entropy computed according to Herzberg 
Infrared and Raman Spectra, Chapter V,1, Van Nostrand Reinhold, 1945 
Point Group:  C1, Symmetry Number:   1  
Rotational constants in cm-1:     0.181214     0.052920     0.040959 

Vibrational entropy computed according to the QRRHO of S. Grimme
Chem.Eur.J. 2012 18 9955 using a reference frequency of 100.0 cm-1


-------
ENTROPY
-------

The entropy contributions are T*S = T*(S(el)+S(vib)+S(rot)+S(trans))
     S(el)   - electronic entropy
     S(vib)  - vibrational entropy
     S(rot)  - rotational entropy
     S(trans)- translational entropy
The entropies will be listed as multiplied by the temperature to get
units of energy

Electronic entropy                ...      0.00000000 Eh      0.00 kcal/mol
Vibrational entropy               ...      0.00549035 Eh      3.45 kcal/mol
Rotational entropy                ...      0.01321306 Eh      8.29 kcal/mol
Translational entropy             ...      0.01896855 Eh     11.90 kcal/mol
-----------------------------------------------------------------------
Final entropy term                ...      0.03767195 Eh     23.64 kcal/mol

In case the symmetry of your molecule has not been determined correctly
or in case you have a reason to use a different symmetry number we print 
out the resulting rotational entropy values for sn=1,12:

 non-linear molecules -----------------------------------
|  sn= 1 | S(rot)=       0.01321306 Eh      8.29 kcal/mol|
|  sn= 2 | S(rot)=       0.01255860 Eh      7.88 kcal/mol|
|  sn= 3 | S(rot)=       0.01217577 Eh      7.64 kcal/mol|
|  sn= 4 | S(rot)=       0.01190415 Eh      7.47 kcal/mol|
|  sn= 5 | S(rot)=       0.01169346 Eh      7.34 kcal/mol|
|  sn= 6 | S(rot)=       0.01152131 Eh      7.23 kcal/mol|
|  sn= 7 | S(rot)=       0.01137577 Eh      7.14 kcal/mol|
|  sn= 8 | S(rot)=       0.01124969 Eh      7.06 kcal/mol|
|  sn= 9 | S(rot)=       0.01113848 Eh      6.99 kcal/mol|
|  sn=10 | S(rot)=       0.01103900 Eh      6.93 kcal/mol|
|  sn=11 | S(rot)=       0.01094901 Eh      6.87 kcal/mol|
|  sn=12 | S(rot)=       0.01086686 Eh      6.82 kcal/mol|
 linear molecules ---------------------------------------
|  Dinfh | S(rot)=       0.00834265 Eh      5.24 kcal/mol|
|  Cinfv | S(rot)=       0.00899710 Eh      5.65 kcal/mol|
 --------------------------------------------------------


-------------------
GIBBS FREE ENERGY
-------------------

The Gibbs free energy is G = H - T*S

Total enthalpy                    ...   -361.44556114 Eh 
Total entropy correction          ...     -0.03767195 Eh    -23.64 kcal/mol
-----------------------------------------------------------------------
Final Gibbs free energy         ...   -361.48323309 Eh

For completeness - the Gibbs free energy minus the electronic energy
G-E(el)                           ...      0.06672407 Eh     41.87 kcal/mol


Maximum memory used throughout the entire PROP-calculation: 55.7 MB

--------------------------------
SUGGESTED CITATIONS FOR THIS RUN
--------------------------------

Below you find a list of papers that are relevant to this ORCA run
We neither can nor want to force you to cite these papers, but we appreciate if you do
You receive ORCA, which is the product of decades of hard work by many enthusiastic individuals, for free
The only thing we kindly ask in return is that you cite our papers,
We deeply appreciate it, if you show your appreciation for ORCA by not just citing the generic ORCA reference.

Please note that relegating all ORCA citations to the supporting information does *not* help us.
SI sections are not indexed - citations you put there will not count into any citation statistics
But we need these citations in order to attract the funding resources that allow us to do what we are doing

Therefore, if you are a happy ORCA user, please consider citing a few of the papers listed below in the main body of your paper

In addition to the list printed below, the program has created the file vacuum_censo.bibtex that contains the list in bibtex format
You can import this file easily into all common literature databanks and citation aid programs


List of essential papers. We consider these as the minimum necessary citations

  1. Neese,F.
     Software update: the ORCA program system, version 5.0
     WIRES Comput. Molec. Sci., 2022 12(1)e1606
     doi.org/10.1002/wcms.1606
  2. Grimme,S.; Hansen,A.; Ehlert,S.; Mewes,J.
     r2SCAN-3c: A 'Swiss army knife' composite electronic-structure method
     J. Chem. Phys., 2021 154 064103
     doi.org/10.1063/5.0040021

List of papers to cite with high priority. The work reported in these papers was absolutely
necessary for this run to complete.
Our perspective: the developers of density functionals and basis sets usually get cited in chemistry papers
Good! But without the algorithms to do something with them, the functionals or basis sets would not do anything.
Hence, in our opinion, the algorithm design and method developments papers are equally worthy of getting cited

  1. Neese,F.
     An improvement of the resolution of the identity approximation for the formation of the Coulomb matrix
     J. Comp. Chem., 2003 24(14)1740-1747
     doi.org/10.1002/jcc.10318
  2. Bykov,D.; Petrenko,T.; Izsak,R.; Kossmann,S.; Becker,U.; Valeev,E.; Neese,F.
     Efficient implementation of the analytic second derivatives of Hartree-Fock and hybrid DFT energies: a detailed analysis of different approximations
     Molec. Phys., 2015 113 1961-1977
     doi.org/10.1080/00268976.2015.1025114
  3. Neese,F.
     The SHARK Integral Generation and Digestion System
     J. Comp. Chem., 2022  1-16
     doi.org/10.1002/jcc.26942
  4. Lehtola,S.; Steigemann,C.; Oliveira,M.; Marques,M.
     Recent developments in Libxc - A comprehensive library of functionals for density functional theory
     Software X, 2018 7 
     doi.org/10.1016/j.softx.2017.11.002
  5. Caldeweyher,E.; Bannwarth,C.; Grimme,S.
     Extension of the D3 dispersion coefficient model
     J. Chem. Phys., 2017 147 034112-XXXX
     doi.org/10.1063/1.4993215
  6. Caldeweyher,E.; Ehlert,S.; Hansen,A.; Neugebauer,H.; Spicher,S.; Bannwarth,C.; Grimme,S.
     A generally applicable atomic-charge dependent London dispersion correction
     J. Chem. Phys., 2019 150 154122-XXXX
     doi.org/10.1063/1.5090222
  7. Caldeweyher,E.; Mewes,J.; Ehlert,S.; Grimme,S.
     Extension and evaluation of the D4 London-dispersion model for periodic systems
     Phys. Chem. Chem. Phys., 2020 22(16)8499-8512
     doi.org/10.1039/D0CP00502A

List of suggested additional citations. These are papers that are important in the 'surrounding' of 
of this run, or papers that preceded the highly important papers. If you like your results we are grateful for a citation.

  1. Neese,F.
     The ORCA program system
     WIRES Comput. Molec. Sci., 2012 2(1)73-78
     doi.org/10.1002/wcms.81
  2. Neese,F.
     Software update: the ORCA program system, version 4.0
     WIRES Comput. Molec. Sci., 2018 8(1)1-6
     doi.org/10.1002/wcms.1327
  3. Neese,F.; Wennmohs,F.; Becker,U.; Riplinger,C.
     The ORCA quantum chemistry program package
     J. Chem. Phys., 2020 152 Art. No. L224108
     doi.org/10.1063/5.0004608

List of optional additional citations

  1. Neese,F.
     Approximate second-order SCF convergence for spin unrestricted wavefunctions
     Chem. Phys. Lett., 2000 325(1-3)93-98
     doi.org/10.1016/s0009-2614(00)00662-x

Timings for individual modules:

Sum of individual times          ...      476.864 sec (=   7.948 min)
Startup calculation              ...        1.046 sec (=   0.017 min)   0.2 %
SCF iterations                   ...       32.781 sec (=   0.546 min)   6.9 %
Property integrals               ...      268.388 sec (=   4.473 min)  56.3 %
SCF Response                     ...       90.870 sec (=   1.514 min)  19.1 %
Property calculations            ...       83.779 sec (=   1.396 min)  17.6 %
                             ****ORCA TERMINATED NORMALLY****
TOTAL RUN TIME: 0 days 0 hours 7 minutes 57 seconds 534 msec
