29
 energy: -34.679125829367 gnorm: 0.032788342086 xtb: 6.7.1 (edcfbbe)
C           -3.72780757539284        0.05045067124474       -0.10878995428338
C           -2.25275375519440        0.02130073523325        0.28226776448628
H           -2.16959009914844       -0.39128671912410        1.29885571343674
C           -1.63352793548385        1.42009061605328        0.28967357415829
C           -0.15150707597932        1.37827882831392        0.65718695965911
C            0.66231876773953        0.49036995088889       -0.31239875083769
H            0.47872117286326        0.89507799963325       -1.32188977756870
C            0.02764948462491       -0.89445741177986       -0.31566858508037
O            0.62034505423926       -1.91819765771643       -0.03658566554911
C           -1.45125197886029       -0.89983593319652       -0.65877883574471
C            2.18105409701275        0.54511389438639       -0.06509322121963
C            2.60522034230307        0.06843832004974        1.32782325349743
C            2.95816280012866       -0.19594220181924       -1.15763550839150
H           -4.16338582471480       -0.95352575640147       -0.09301690429025
H           -4.30345055931735        0.68001123194594        0.57753039029781
H           -3.85049901010077        0.45432572480015       -1.12043500425554
H           -1.75576174215886        1.87230310302132       -0.70566952420233
H           -2.17684237978947        2.05975097401335        0.99574801375445
H            0.27720988460692        2.38760246599209        0.65209357142585
H           -0.04390460602300        0.99330813131671        1.67873205034157
H           -1.57285132364564       -0.53269886645412       -1.68871481439468
H           -1.81545130469789       -1.93010282868437       -0.61546937932617
H            2.44486159758649        1.61122618028095       -0.14164917036472
H            2.13765774366815        0.65745258252021        2.12255228732035
H            3.68917505461595        0.17460516059615        1.43948195703508
H            2.34834470098289       -0.98290628436130        1.47486580179385
H            2.66900724768807        0.15113790052995       -2.15611604122583
H            2.77855384426420       -1.27216962912794       -1.10104201511110
H            4.03312339579212       -0.02278498268207       -1.04316267117170
29
 energy: -34.680556786230 gnorm: 0.009207792502 xtb: 6.7.1 (edcfbbe)
C           -3.70949581440837        0.05091457910892       -0.11118571443545
C           -2.23840811047143        0.01628627249573        0.28995753507983
H           -2.16155184901421       -0.39398190610920        1.30514306573780
C           -1.62637978340012        1.41643994239297        0.28067569645002
C           -0.15072631071740        1.37325338934796        0.65930635665762
C            0.65225018707019        0.49458870187722       -0.31910236629061
H            0.47425894760840        0.89248845843886       -1.32917418798133
C            0.03243652531724       -0.89100975929765       -0.29668674470710
O            0.62527749458473       -1.90745442387846       -0.02813901305048
C           -1.43877375462012       -0.89235258285334       -0.65655254707414
C            2.17027280186247        0.56267264534324       -0.06544059675845
C            2.59221121574396        0.06334920780844        1.31574253495120
C            2.94008576695687       -0.19355153038198       -1.14842453912384
H           -4.13921994362087       -0.94961603839085       -0.09238653815083
H           -4.27924458479379        0.67700467699847        0.57470979426832
H           -3.82961526337438        0.45374554663422       -1.11752196492318
H           -1.74376099229629        1.86323888936218       -0.71303444359108
H           -2.16420712706445        2.05148176609562        0.99010225688749
H            0.26745992283280        2.38376655285606        0.64948379238031
H           -0.04928728705044        0.98147606286820        1.67509678271555
H           -1.55445060583339       -0.52947323142037       -1.68367083583514
H           -1.81051188870110       -1.91740085765051       -0.60880449616586
H            2.44590183095684        1.62501096592919       -0.13806996369768
H            2.12717934645610        0.64954091127543        2.10660910970646
H            3.67266697259728        0.15853141752625        1.42461770834484
H            2.32492303475870       -0.98243506192818        1.44865778742143
H            2.65369818755838        0.15241947433523       -2.14195998552073
H            2.74895176886924       -1.26260902963756       -1.08532824549441
H            4.01087932980246       -0.02938883967330       -1.02992472361116
29
 energy: -34.680772452266 gnorm: 0.002792319694 xtb: 6.7.1 (edcfbbe)
C           -3.70021504117168        0.04785151471050       -0.11188066558674
C           -2.22918074826102        0.01764605427332        0.28994069523837
H           -2.15324988047858       -0.38917573633276        1.30446601605372
C           -1.62518379433547        1.42012632382410        0.27936779957072
C           -0.15052283797371        1.37608779419629        0.65780176054899
C            0.64936426135359        0.49927799924207       -0.31990989515877
H            0.47460340492933        0.89303479261225       -1.32974892011724
C            0.04300145827960       -0.89007431284647       -0.29583699225142
O            0.63311918779668       -1.90089420894038       -0.01371428205261
C           -1.42830536291568       -0.89079131020297       -0.65180439322289
C            2.16718614682681        0.56875523253280       -0.06584877236369
C            2.57990820186554        0.05952597868314        1.31284378273876
C            2.93005587880992       -0.19024865074052       -1.15061126053584
H           -4.12490653986014       -0.95260667521534       -0.09256661824700
H           -4.26750921150514        0.67324735421163        0.57333910439242
H           -3.81482610623552        0.45006778808567       -1.11606692414168
H           -1.73925229346724        1.85851433253275       -0.71517353125621
H           -2.16339177723628        2.05448586447318        0.98712288025875
H            0.26577799313808        2.38581110019007        0.65216125015837
H           -0.05308242594630        0.97638708218608        1.66836875647279
H           -1.54184020469258       -0.53151674230721       -1.67722771672867
H           -1.80386217896338       -1.91407563150127       -0.60049974897394
H            2.44599116474169        1.62935884780747       -0.13406372664223
H            2.11828599556612        0.64278718432666        2.10520898960220
H            3.65920558138553        0.14216243933359        1.42109061339233
H            2.30132687251998       -0.98302942000090        1.43145189655855
H            2.64498539656552        0.15579432945627       -2.14218004434158
H            2.72529626607183       -1.25438211819874       -1.08125020801666
H            4.00004061080180       -0.03719100691852       -1.03008433115939
29
 energy: -34.680808523236 gnorm: 0.001645236857 xtb: 6.7.1 (edcfbbe)
C           -3.69769383796613        0.04446238667963       -0.11303821220670
C           -2.22654788482076        0.01846354626491        0.29048695696036
H           -2.14965150642595       -0.38653590474252        1.30556664241615
C           -1.62482080488999        1.42202716335255        0.27834284480909
C           -0.14992486049823        1.37904531672157        0.65815931514048
C            0.64971452232648        0.50342892552412       -0.31960909096733
H            0.47231691684399        0.89452294780229       -1.32973238275759
C            0.04486511320712       -0.88675601668525       -0.28802521731685
O            0.63556318230508       -1.89701301722375       -0.00305732337739
C           -1.42531686568833       -0.89055611932183       -0.64997588403994
C            2.16786579071371        0.57150181446559       -0.06646348330786
C            2.57624084911248        0.05676839958380        1.31188354358972
C            2.92674309385617       -0.18894847954507       -1.15337718242050
H           -4.11971227510074       -0.95712742178569       -0.09369432501000
H           -4.26602007055968        0.66956523425064        0.57152435850081
H           -3.81017565648353        0.44602666054490       -1.11768108342010
H           -1.73802330411846        1.85738027047743       -0.71731729844750
H           -2.16470116323079        2.05721687612780        0.98371022881340
H            0.26761800321747        2.38803549423350        0.65473381977867
H           -0.05368817864441        0.97710292919619        1.66772040598754
H           -1.53566868469850       -0.53120291893471       -1.67561058050514
H           -1.80040392570634       -1.91432391485803       -0.59906409105861
H            2.44806577966892        1.63160945333232       -0.13235577420073
H            2.11714046779466        0.64045399640992        2.10537177546990
H            3.65589856404341        0.13032142706038        1.42245805068145
H            2.28884936857878       -0.98398398713037        1.42562028767182
H            2.64244732414232        0.16045988190655       -2.14398658345388
H            2.71413437246520       -1.25169620411153       -1.08448143147840
H            3.99770568816533       -0.04331254012262       -1.03341277166147
29
 energy: -34.680827254673 gnorm: 0.001513772650 xtb: 6.7.1 (edcfbbe)
C           -3.69600915367071        0.04028241211720       -0.11386306244139
C           -2.22460493662966        0.01976969822769        0.29124092930309
H           -2.14577409788404       -0.38219454813834        1.30778005318326
C           -1.62443703949496        1.42432121277583        0.27486661762627
C           -0.14979970509265        1.38267488066563        0.65892046356241
C            0.65129798896598        0.50761862620576       -0.31827909745101
H            0.47107517511339        0.89617784921894       -1.32886512121306
C            0.04719526045349       -0.88329884828311       -0.28304437979072
O            0.63600536141459       -1.89255816729648        0.01340600076527
C           -1.42230219540915       -0.89032128111707       -0.64760634061551
C            2.16962907164546        0.57416362527251       -0.06595121194842
C            2.57429403990615        0.05210964006449        1.31129713229472
C            2.92314337384870       -0.18640272315834       -1.15701159344305
H           -4.11359401545272       -0.96346701716295       -0.09406695996585
H           -4.26837185650134        0.66434653940699        0.56877072371098
H           -3.80749327419770        0.43954824436730       -1.12005221699870
H           -1.73577405410598        1.85664238524742       -0.72276010941884
H           -2.16697421763962        2.06153434716173        0.97636656775160
H            0.26866214018118        2.39149334351456        0.65903853601103
H           -0.05622820691424        0.97968393097861        1.66868588236499
H           -1.53017316279086       -0.53209686115089       -1.67426417621007
H           -1.79594211685542       -1.91471461744949       -0.59571474127527
H            2.45228102174985        1.63374842984998       -0.12849481494809
H            2.12075803353323        0.63932729699148        2.10591487485432
H            3.65482949494787        0.11206204042904        1.42388563348055
H            2.27388107296774       -0.98547510485160        1.42213546598370
H            2.64113166983295        0.17166572349679       -2.14572345148688
H            2.70029767008142       -1.24785205399391       -1.09423397424607
H            3.99581667560631       -0.05185280391712       -1.03768211524986
29
 energy: -34.680835130054 gnorm: 0.000592464891 xtb: 6.7.1 (edcfbbe)
C           -3.69646787037794        0.03937805809329       -0.11421542963562
C           -2.22527710285356        0.02034365691430        0.29026919286107
H           -2.14647316727417       -0.38105318155769        1.30703244077311
C           -1.62458452984284        1.42461612735979        0.27378692374758
C           -0.15047108301922        1.38295482171127        0.65925442379121
C            0.65182679494333        0.50686444801072       -0.31670979818065
H            0.47189067579851        0.89593279926181       -1.32730036485583
C            0.04611874565572       -0.88322227649084       -0.28035439856885
O            0.63337185766378       -1.89234846885967        0.01836101552512
C           -1.42220175755269       -0.88999827082600       -0.64787301565685
C            2.17002949565150        0.57271218821063       -0.06493139976125
C            2.57610977045507        0.05087431296548        1.31168390298909
C            2.92274426212038       -0.18537036768508       -1.15796467451267
H           -4.11280715136313       -0.96490800211877       -0.09371842049503
H           -4.27021155955961        0.66268480437962        0.56789366862784
H           -3.80941010415016        0.43773208386987       -1.12060615977270
H           -1.73434181600339        1.85611466241228       -0.72452211665794
H           -2.16783289089838        2.06316476895025        0.97376778942491
H            0.26753205515019        2.39208905000814        0.65859526179520
H           -0.05763955046701        0.98132996871199        1.66977857566030
H           -1.53020043844226       -0.53153270636037       -1.67450365710080
H           -1.79543997259187       -1.91434750751066       -0.59615319929306
H            2.45330404999057        1.63220278072600       -0.12683043212238
H            2.12655949660778        0.64099202101973        2.10659472522606
H            3.65690598839495        0.10776761115817        1.42119276075921
H            2.27333206044241       -0.98535622288190        1.42529606481439
H            2.64291747756779        0.17756391296474       -2.14565405882147
H            2.69800487550612       -1.24655102879258       -1.10031163768499
H            3.99553140605743       -0.05369384417186       -1.03716246868560
29
 energy: -34.680838592513 gnorm: 0.000353819648 xtb: 6.7.1 (edcfbbe)
C           -3.69662427454378        0.03864176453896       -0.11474099109485
C           -2.22575142710668        0.02047525162241        0.28963675167978
H           -2.14710649468616       -0.38045413232630        1.30653660307547
C           -1.62457188444188        1.42444614472440        0.27226284123221
C           -0.15104669205407        1.38327571199109        0.65950433869988
C            0.65161687630488        0.50605682387845       -0.31552082309322
H            0.47276557138999        0.89509985502048       -1.32629900234788
C            0.04551409385795       -0.88366116684396       -0.27880995240568
O            0.63124677010169       -1.89216097328509        0.02423054420089
C           -1.42204097833171       -0.88979592764658       -0.64819834021173
C            2.16961804916963        0.57218731294204       -0.06358781057353
C            2.57818774665973        0.04951421675914        1.31187005792788
C            2.92172160657378       -0.18400050695211       -1.15823852524715
H           -4.11218772579189       -0.96591138061411       -0.09333009153308
H           -4.27059150643375        0.66162598689561        0.56731487708403
H           -3.81090261461142        0.43632705822934       -1.12114811652859
H           -1.73287758675024        1.85488523467893       -0.72660425703959
H           -2.16838296751481        2.06399692012455        0.97087107119068
H            0.26652046380110        2.39255689937951        0.65715407486559
H           -0.05837112702949        0.98308496785368        1.67057433785443
H           -1.52990124075775       -0.53116116312043       -1.67460750913180
H           -1.79587397895602       -1.91386066007346       -0.59662256518805
H            2.45273192352519        1.63183906915590       -0.12465188874949
H            2.13385637872992        0.64268531809130        2.10736073236666
H            3.65954690339318        0.10274004748756        1.41702910965291
H            2.27215545831487       -0.98537756810262        1.42841416065127
H            2.64538164614614        0.18494331831110       -2.14457916169690
H            2.69357314803151       -1.24474533270724       -1.10667133436505
H            3.99461388061937       -0.05631689053988       -1.03445361708568
29
 energy: -34.680839318672 gnorm: 0.000185441293 xtb: 6.7.1 (edcfbbe)
C           -3.69670140598436        0.03864256230947       -0.11479339900224
C           -2.22575401397309        0.02022571442607        0.28954295734842
H           -2.14712311283427       -0.38077493053440        1.30640538614681
C           -1.62489253371740        1.42435135344430        0.27223218851623
C           -0.15125249003693        1.38332270169070        0.65924742421666
C            0.65158319845201        0.50568032177806       -0.31521793981987
H            0.47269350205881        0.89413160366432       -1.32618867402226
C            0.04521698446543       -0.88393770010856       -0.27747912221858
O            0.63071853773509       -1.89225783974573        0.02667414337124
C           -1.42203047121068       -0.89011966705452       -0.64834726411163
C            2.16965302954391        0.57214673510336       -0.06346677325859
C            2.57856250458197        0.04947633853229        1.31196777869221
C            2.92179990828137       -0.18330355589063       -1.15866538807879
H           -4.11248750145902       -0.96582379732518       -0.09338620373699
H           -4.27053804060455        0.66188114858204        0.56722949979451
H           -3.81074191835870        0.43625870338326       -1.12125989095971
H           -1.73304438042014        1.85447335827643       -0.72675831515494
H           -2.16893052515272        2.06396765090208        0.97060635877404
H            0.26628652594930        2.39258315821422        0.65619653900750
H           -0.05823846247233        0.98372593171114        1.67047109887472
H           -1.52902167611845       -0.53092958386313       -1.67464277685252
H           -1.79623557260831       -1.91414246370949       -0.59742911869964
H            2.45223713088300        1.63194804466502       -0.12421883094888
H            2.13608649581980        0.64333887563464        2.10796231423893
H            3.66016787317614        0.10099663591926        1.41581462873616
H            2.27119627428970       -0.98499820370989        1.42904590693114
H            2.64737926780815        0.18775335208193       -2.14471183258122
H            2.69143517764397       -1.24364457536253       -1.10890722866270
H            3.99479571187159       -0.05803567354185       -1.03322795235062
29
 energy: -34.680839607903 gnorm: 0.000083234848 xtb: 6.7.1 (edcfbbe)
C           -3.69686092142745        0.03872913536623       -0.11474753021902
C           -2.22580410819012        0.01990821570773        0.28958167411567
H           -2.14710823053250       -0.38133465257518        1.30633384561084
C           -1.62487738937776        1.42400837791621        0.27247609681351
C           -0.15105782615569        1.38333562559325        0.65897027692100
C            0.65149257909238        0.50545365730519       -0.31543737882093
H            0.47248594480938        0.89340462532260       -1.32657187599919
C            0.04517527724815       -0.88422158118254       -0.27724913910183
O            0.63059777278218       -1.89246655326935        0.02739138471874
C           -1.42207307461882       -0.89028779625985       -0.64840780999492
C            2.16958461368343        0.57233294783342       -0.06357918244635
C            2.57856928882694        0.04973043311665        1.31188601930669
C            2.92198398645728       -0.18313404547262       -1.15861095023176
H           -4.11326556508362       -0.96548033458173       -0.09340581397812
H           -4.27029386691729        0.66234508912454        0.56727801909474
H           -3.81050603694986        0.43651944802893       -1.12119538768243
H           -1.73356795788777        1.85434856517891       -0.72634917082300
H           -2.16877371554562        2.06328394312327        0.97122245618519
H            0.26639467527679        2.39264201248530        0.65556014135243
H           -0.05770000650435        0.98399936099502        1.67027046718104
H           -1.52862416018889       -0.53076297851952       -1.67463279086131
H           -1.79645982265406       -1.91426426729400       -0.59788984492136
H            2.45174427605372        1.63224509923196       -0.12435760779879
H            2.13647184369820        0.64385390993828        2.10784102845089
H            3.66019010466695        0.10078182726320        1.41561512110139
H            2.27079220809857       -0.98460143026439        1.42912834720777
H            2.64904764969607        0.18903885125249       -2.14461172565097
H            2.69030410920603       -1.24321242258072       -1.10982490090780
H            3.99495837004698       -0.05925886331059       -1.03198825443272
29
 energy: -34.680839547831 gnorm: 0.000208426066 xtb: 6.7.1 (edcfbbe)
C           -3.69702604689365        0.03880417569706       -0.11470658457658
C           -2.22586093096302        0.01962087159149        0.28960601806530
H           -2.14709655418539       -0.38184041724826        1.30625655081379
C           -1.62485262262569        1.42368715169917        0.27268990401684
C           -0.15086880538775        1.38335908019850        0.65872091512114
C            0.65140518806466        0.50524615463294       -0.31563484023092
H            0.47228643845606        0.89273110518723       -1.32692178347752
C            0.04513254236463       -0.88448355393727       -0.27702167802919
O            0.63048936582997       -1.89266044521496        0.02805784893737
C           -1.42211529207594       -0.89044567302307       -0.64846060814940
C            2.16951863791170        0.57250918299880       -0.06367428983405
C            2.57859114222053        0.04995656965521        1.31181065630463
C            2.92214948769524       -0.18296857529953       -1.15855833040437
H           -4.11401145220673       -0.96516520413196       -0.09343600422049
H           -4.27008232708454        0.66276974372638        0.56732443778994
H           -3.81029724906894        0.43676763331489       -1.12113327156598
H           -1.73402904029089        1.85421260821860       -0.72598924574642
H           -2.16863228858801        2.06265647934836        0.97175848133357
H            0.26651081215343        2.39270596883413        0.65499027386353
H           -0.05720840647907        0.98425597837518        1.67008954181880
H           -1.52824811008047       -0.53061541777014       -1.67462330690330
H           -1.79667267947469       -1.91437910867948       -0.59830965102709
H            2.45127879806688        1.63252586291407       -0.12446909740893
H            2.13685652049452        0.64431010725309        2.10774138050449
H            3.66022734720894        0.10056750702243        1.41541948258745
H            2.27043562289770       -0.98424429388066        1.42919964862101
H            2.65054690640920        0.19020678741418       -2.14451577822916
H            2.68929025387285       -1.24281015173401       -1.11063973172252
H            3.99510275936777       -0.06034392768969       -1.03087542406254
29
 energy: -34.680839709762 gnorm: 0.000086081125 xtb: 6.7.1 (edcfbbe)
C           -3.69673171243543        0.03887496988253       -0.11470180125983
C           -2.22569866326493        0.01963880630531        0.28977708029868
H           -2.14706377588194       -0.38182348415887        1.30646492160094
C           -1.62497783262296        1.42384465666050        0.27278144001678
C           -0.15102580613131        1.38317961400861        0.65874179304536
C            0.65146858914588        0.50533615129215       -0.31568620002685
H            0.47241378728173        0.89305752178650       -1.32688602685032
C            0.04522094630858       -0.88437589383622       -0.27740068295883
O            0.63057172056827       -1.89259486050111        0.02749103896746
C           -1.42208759437230       -0.89035803747335       -0.64847231234761
C            2.16956648430479        0.57243379012954       -0.06378973250137
C            2.57832758359092        0.05001202613402        1.31181358098167
C            2.92217721929123       -0.18320522912210       -1.15855118280492
H           -4.11345591433617       -0.96518656972690       -0.09327254569787
H           -4.26989963029797        0.66272337254970        0.56732141241950
H           -3.81024339099902        0.43666655162253       -1.12117374778720
H           -1.73418102706987        1.85455443320064       -0.72584805867844
H           -2.16858864159405        2.06278544446026        0.97205811212337
H            0.26631166177818        2.39252138241331        0.65504016828196
H           -0.05726851942491        0.98402052523363        1.67008702894353
H           -1.52855224579704       -0.53062749808935       -1.67463738036497
H           -1.79650986223731       -1.91432653249624       -0.59817349284656
H            2.45157280864010        1.63238022259616       -0.12473254176570
H            2.13605491334566        0.64430914730147        2.10754708191630
H            3.65992261428325        0.10109229859310        1.41577739749453
H            2.27045147222188       -0.98429502616240        1.42912409601182
H            2.65039168723464        0.18972035891828       -2.14458701178535
H            2.68950969371394       -1.24310409443246       -1.11047045588429
H            3.99514345236545       -0.06031784761658       -1.03094646435238
29
 energy: -34.680839748886 gnorm: 0.000031347688 xtb: 6.7.1 (edcfbbe)
C           -3.69673491276179        0.03879629876521       -0.11463964485506
C           -2.22571510823019        0.01968672294114        0.28973185737502
H           -2.14709623704761       -0.38180944781064        1.30640121218700
C           -1.62492146997580        1.42385699142349        0.27291280053146
C           -0.15095550210325        1.38320949796039        0.65874388487660
C            0.65150959629015        0.50542928104180       -0.31579451330967
H            0.47247960302067        0.89334683278334       -1.32692814485832
C            0.04523710726675       -0.88425447927273       -0.27761742748152
O            0.63060682532067       -1.89251204425633        0.02706786393669
C           -1.42208762013468       -0.89026262140582       -0.64854309497420
C            2.16958736624962        0.57235307535203       -0.06385944131547
C            2.57820340467864        0.05013337694544        1.31185443400352
C            2.92217907741107       -0.18341156970506       -1.15853619033601
H           -4.11334138727474       -0.96531721883402       -0.09316340169170
H           -4.26999358502042        0.66260881674468        0.56734154182073
H           -3.81033149622020        0.43649298670543       -1.12112775137985
H           -1.73422135837666        1.85472192921152       -0.72563624446380
H           -2.16845151050187        2.06272896678353        0.97233563421946
H            0.26638048979533        2.39255869809762        0.65512652881003
H           -0.05718658542867        0.98394195008892        1.67004130915641
H           -1.52879606459126       -0.53055992346018       -1.67468947788551
H           -1.79642043992403       -1.91426030414428       -0.59815218038257
H            2.45181667068792        1.63223490208814       -0.12493040092745
H            2.13557406651523        0.64435278541847        2.10747553538899
H            3.65976735666343        0.10155377759360        1.41607142550642
H            2.27060486180086       -0.98425183317387        1.42914929976051
H            2.65047633521607        0.18944207586247       -2.14463702949486
H            2.68949094856247       -1.24330727569956       -1.11043683531572
H            3.99515958572156       -0.06056604857203       -1.03086603471171
