
                                 *****************
                                 * O   R   C   A *
                                 *****************

                                            #,                                       
                                            ###                                      
                                            ####                                     
                                            #####                                    
                                            ######                                   
                                           ########,                                 
                                     ,,################,,,,,                         
                               ,,#################################,,                 
                          ,,##########################################,,             
                       ,#########################################, ''#####,          
                    ,#############################################,,   '####,        
                  ,##################################################,,,,####,       
                ,###########''''           ''''###############################       
              ,#####''   ,,,,##########,,,,          '''####'''          '####       
            ,##' ,,,,###########################,,,                        '##       
           ' ,,###''''                  '''############,,,                           
         ,,##''                                '''############,,,,        ,,,,,,###''
      ,#''                                            '''#######################'''  
     '                                                          ''''####''''         
             ,#######,   #######,   ,#######,      ##                                
            ,#'     '#,  ##    ##  ,#'     '#,    #''#        ,####,   ,####,        
            ##       ##  ##   ,#'  ##            #'  '#       #'       #'  '#        
            ##       ##  #######   ##           ,######,      #####,   #    #        
            '#,     ,#'  ##    ##  '#,     ,#' ,#      #,     #,   #   #,  ,#        
             '#######'   ##     ##  '#######'  #'      '#     '####' # '####'        



                #########################################################
                #                        -***-                          #
                #          Department of theory and spectroscopy        #
                #                                                       #
                #                      Frank Neese                      #
                #                                                       #
                #     Directorship, Architecture, Infrastructure        #
                #                    SHARK, DRIVERS                     #
                #        Core code/Algorithms in most modules           #
                #                                                       #
                #        Max Planck Institute fuer Kohlenforschung      #
                #                Kaiser Wilhelm Platz 1                 #
                #                 D-45470 Muelheim/Ruhr                 #
                #                      Germany                          #
                #                                                       #
                #                  All rights reserved                  #
                #                        -***-                          #
                #########################################################


                         Program Version 6.0.1  -  RELEASE   -


 With contributions from (in alphabetic order):
[Max-Planck-Institut fuer Kohlenforschung]                               
  Daniel Aravena         : Magnetic Suceptibility                        
  Michael Atanasov       : Ab Initio Ligand Field Theory (pilot matlab implementation)
  Alexander A. Auer      : GIAO ZORA, VPT2 properties, NMR spectrum      
  Ute Becker             : All parallelization in ORCA, NUMFREQ, NUMCALC 
  Giovanni Bistoni       : ED, misc. LED, open-shell LED, HFLD           
  Martin Brehm           : Molecular dynamics                            
  Dmytro Bykov           : pre 5.0 version of the SCF Hessian            
  Marcos Casanova-Páez   : Triplet and SCS-CIS(D). UHF-(DLPNO)-IP/EA/STEOM-CCSD. UHF-CVS-IP/STEOM-CCSD   
  Vijay G. Chilkuri      : MRCI spin determinant printing, contributions to CSF-ICE 
  Pauline Colinet        : FMM embedding                                 
  Dipayan Datta          : RHF DLPNO-CCSD density                        
  Achintya Kumar Dutta   : EOM-CC, STEOM-CC                              
  Nicolas Foglia         : Exact transition moments, OPA infrastructure, MCD improvements    
  Dmitry Ganyushin       : Spin-Orbit,Spin-Spin,Magnetic field MRCI      
  Miquel Garcia-Rates    : C-PCM and meta-GGA Hessian, CCSD/C-PCM, Gaussian charge scheme 
  Tiago L. C. Gouveia    : GS-ROHF, GS-ROCIS                             
  Yang Guo               : DLPNO-NEVPT2, F12-NEVPT2, CIM, IAO-localization        
  Andreas Hansen         : Spin unrestricted coupled pair/coupled cluster methods 
  Ingolf Harden          : AUTO-CI MPn and infrastructure                
  Benjamin Helmich-Paris : MC-RPA, TRAH-(SCF,CASSCF), AVAS, COSX integrals, SCF dyn. polar. 
  Lee Huntington         : MR-EOM, pCC                                   
  Robert Izsak           : Overlap fitted RIJCOSX, COSX-SCS-MP3, EOM     
  Riya Kayal             : Wick's Theorem for AUTO-CI, AUTO-CI UHF-CCSDT 
  Emily Kempfer          : AUTO-CI, RHF CISDT and CCSDT                  
  Christian Kollmar      : KDIIS, OOCD, Brueckner-CCSD(T), CCSD density, CASPT2, CASPT2-K, improved NEVPT2 
  Axel Koslowski         : Symmetry handling                             
  Simone Kossmann        : meta-GGA functionals, TD-DFT gradient, OOMP2, (MP2 Hessian; deprecated post 5.0) 
  Lucas Lang             : DCDCAS                                        
  Marvin Lechner         : AUTO-CI (C++ implementation), FIC-MRCC        
  Spencer Leger          : CASSCF response                               
  Dagmar Lenk            : GEPOL surface, SMD, ORCA-2-JSON               
  Dimitrios Liakos       : Extrapolation schemes; Compound Job, initial MDCI parallelization 
  Dimitrios Manganas     : Further ROCIS development; embedding schemes. LFT, Crystal Embedding 
  Dimitrios Pantazis     : SARC Basis sets                               
  Anastasios Papadopoulos: AUTO-CI, single reference methods and gradients 
  Taras Petrenko         : pre 6.0 DFT Hessian and TD-DFT gradient, (ASA, deprecated), ECA, 1-Electron XAS/XES, NRVS 
  Peter Pinski           : DLPNO-MP2, DLPNO-MP2 Gradient                 
  Christoph Reimann      : Effective Core Potentials                     
  Marius Retegan         : Local ZFS, SOC                                
  Christoph Riplinger    : Optimizer, TS searches, QM/MM, DLPNO-CCSD(T), (RO)-DLPNO pert. Triples 
  Michael Roemelt        : Original ROCIS implementation                 
  Masaaki Saitow         : Open-shell DLPNO-CCSD energy and density      
  Barbara Sandhoefer     : DKH picture change effects                    
  Kantharuban Sivalingam : CASSCF convergence/infrastructure, NEVPT2 and variants, FIC-MRCI 
  Bernardo de Souza      : ESD, SOC TD-DFT                               
  Georgi L. Stoychev     : AutoAux, RI-MP2 NMR, DLPNO-MP2 response, X2C  
  Van Anh Tran           : RI-MP2 g-tensors                              
  Willem Van den Heuvel  : Paramagnetic NMR                              
  Zikuan Wang            : NOTCH, Electric field optimization            
  Frank Wennmohs         : Technical directorship and infrastructure     
  Hang Xu                : AUTO-CI-Response properties                   
                                                                         
[FACCTs GmbH]                                                            
  Markus Bursch, Miquel Garcia-Rates, Christoph Riplinger, Bernardo de Souza, Georgi L. Stoychev 
                                                                 
  APM, Basis sets (HGBS, AHGBS, def-TZVP (Ac-Lr), def2-XVPD (La-Lu)), CI-OPT, improved COSX, DLPNO-Multilevel,           
  DOCKER, DRACO, updates on ESD, GOAT, IRC, LR-CPCM, MBIS, meta-GGA TD-DFT gradient, ML-optimized integration grids, 
  MM, NACMEs, nearIR, NEB, NEB-TS, NL-DFT gradient (VV10), 2- and 3-layer-ONIOM, interface openCOSMO-RS, QMMM,   
  Crystal-QMMM, SF, symmetry and pop. for TD-DFT, r2SCAN hybrids, SOLVATOR                                   
                                                                         
[Other institutions]                                                     
  V. Asgeirsson          : NEB                                           
  Christoph Bannwarth    : sTDA-DFT, sTD-DFT, PBEh-3c, B97-3c, D3        
  Sebastian Ehlert       : rSCAN, r2SCAN, r2SCAN-3c, D4, dhf basis sets  
  Marvin Friede          : D4 for Fr, Ra, Ac-Lr                          
  Lars Goerigk           : TD-DFT with DH, B97 family of functionals     
  Stefan Grimme          : VdW corrections, initial TS optimization, DFT functionals, gCP, sTDA/sTD-DF 
  Waldemar Hujo          : DFT-NL                                        
  H. Jonsson             : NEB                                           
  Holger Kruse           : gCP                                           
  Marcel Mueller         : wB97X-3c, vDZP basis set                      
  Hagen Neugebauer       : wr2SCAN                                       
  Tobias Risthaus        : range-separated hybrid DFT                    
  Lukas Wittmann         : regularized MP2, r2SCAN double-hybrids, wr2SCAN        
                                                                         
We gratefully acknowledge several colleagues who have allowed us to      
interface, adapt or use parts of their codes:                            
  Ed Valeev, F. Pavosevic, A. Kumar             : LibInt (2-el integral package), F12 methods 
  Garnet Chan, S. Sharma, J. Yang, R. Olivares  : DMRG                   
  Ulf Ekstrom                                   : XCFun DFT Library      
  Mihaly Kallay                                 : mrcc  (arbitrary order and MRCC methods)
  Frank Weinhold                                : gennbo (NPA and NBO analysis)           
  Simon Mueller                                 : openCOSMO-RS                            
  Christopher J. Cramer and Donald G. Truhlar   : smd solvation model                     
  S Lehtola, MJT Oliveira, MAL Marques          : LibXC Library                           
  Liviu Ungur et al                             : ANISO software                          


 Your calculation uses the libint2 library for the computation of 2-el integrals
 For citations please refer to: http://libint.valeyev.net

 Your ORCA version has been built with support for libXC version: 6.2.2
 For citations please refer to: https://libxc.gitlab.io

 This ORCA versions uses:
   CBLAS   interface :  Fast vector & matrix operations
   LAPACKE interface :  Fast linear algebra routines
   SCALAPACK package :  Parallel linear algebra routines
   Shared memory     :  Shared parallel matrices
   BLAS/LAPACK       :  OpenBLAS 0.3.27  USE64BITINT DYNAMIC_ARCH NO_AFFINITY Zen SINGLE_THREADED
        Core in use  :  Zen
   Copyright (c) 2011-2014, The OpenBLAS Project


Your calculation utilizes the geometrical counterpoise correction gCP
Please cite in your paper:
H.Kruse, S. Grimme J.Chem.Phys., 136, (2012), 154101 
   

Your calculation utilizes the atom-pairwise dispersion correction
based on EEQ partial charges (D4)


================================================================================

----- Orbital basis set information -----
Your calculation utilizes the basis: def2-SV(P)
   F. Weigend and R. Ahlrichs, Phys. Chem. Chem. Phys. 7, 3297 (2005).

----- AuxJ basis set information -----
Your calculation utilizes the auxiliary basis: def2/J
   F. Weigend, Phys. Chem. Chem. Phys. 8, 1057 (2006).

================================================================================
                                        WARNINGS
                       Please study these warnings very carefully!
================================================================================


================================================================================
                                       INPUT FILE
================================================================================
NAME = sp.inp
|  1> ! pbe def2-sv(p) def2/J RI DEFGRID1 loosescf d4 GCP(DFT/SV(P)) printgap
|  2> %output
|  3>     printlevel normal
|  4> end
|  5> * xyz 0 1
|  6> C -2.033752808 -1.4111649226 -0.1334564885
|  7> C -1.0094488617 -0.5259652957 0.6031131251
|  8> H -1.4716578042 -0.1948301138 1.5449203549
|  9> C -0.6528562313 0.7092241346 -0.2369082426
| 10> H -0.5691984832 0.441482879 -1.2971847866
| 11> C 0.7024605992 1.2482111129 0.2318161172
| 12> H 0.6898375795 1.3701695865 1.3291164342
| 13> C 1.7722907848 0.2111464219 -0.1343407243
| 14> H 1.974595061 0.2957432045 -1.2129017864
| 15> C 1.240499046 -1.2120098537 0.1270844498
| 16> H 2.0238127726 -1.769627032 0.6597098441
| 17> O 0.1453168857 -1.2497291505 1.001637174
| 18> O 0.9421585905 -1.7881610547 -1.1090586902
| 19> O 2.9475300293 0.3874255938 0.606784133
| 20> O 1.0094903088 2.4782195313 -0.3764470883
| 21> O -1.6516259219 1.70381591 -0.187082107
| 22> O -3.2787666143 -0.7740794371 -0.2351119806
| 23> H -2.1988816933 -2.3256823357 0.4410283046
| 24> H -1.6418984332 -1.6768470056 -1.1256128383
| 25> H 0.7068947522 -2.7147466364 -0.9765444197
| 26> H 3.2318901382 1.3024612197 0.4889171925
| 27> H 0.175859627 2.8926017752 -0.6398685571
| 28> H -1.8109657943 1.9476289099 0.7341484375
| 29> H -3.1502772598 0.0924047356 -0.6446584844
| 30> *
| 31> 
| 32>                          ****END OF INPUT****
================================================================================

                       ****************************
                       * Single Point Calculation *
                       ****************************

---------------------------------
CARTESIAN COORDINATES (ANGSTROEM)
---------------------------------
  C     -2.033753   -1.411165   -0.133456
  C     -1.009449   -0.525965    0.603113
  H     -1.471658   -0.194830    1.544920
  C     -0.652856    0.709224   -0.236908
  H     -0.569198    0.441483   -1.297185
  C      0.702461    1.248211    0.231816
  H      0.689838    1.370170    1.329116
  C      1.772291    0.211146   -0.134341
  H      1.974595    0.295743   -1.212902
  C      1.240499   -1.212010    0.127084
  H      2.023813   -1.769627    0.659710
  O      0.145317   -1.249729    1.001637
  O      0.942159   -1.788161   -1.109059
  O      2.947530    0.387426    0.606784
  O      1.009490    2.478220   -0.376447
  O     -1.651626    1.703816   -0.187082
  O     -3.278767   -0.774079   -0.235112
  H     -2.198882   -2.325682    0.441028
  H     -1.641898   -1.676847   -1.125613
  H      0.706895   -2.714747   -0.976544
  H      3.231890    1.302461    0.488917
  H      0.175860    2.892602   -0.639869
  H     -1.810966    1.947629    0.734148
  H     -3.150277    0.092405   -0.644658

----------------------------
CARTESIAN COORDINATES (A.U.)
----------------------------
  NO LB      ZA    FRAG     MASS         X           Y           Z
   0 C     6.0000    0    12.011   -3.843236   -2.666715   -0.252196
   1 C     6.0000    0    12.011   -1.907582   -0.993930    1.139719
   2 H     1.0000    0     1.008   -2.781030   -0.368176    2.919476
   3 C     6.0000    0    12.011   -1.233719    1.340239   -0.447692
   4 H     1.0000    0     1.008   -1.075629    0.834282   -2.451324
   5 C     6.0000    0    12.011    1.327458    2.358777    0.438069
   6 H     1.0000    0     1.008    1.303604    2.589245    2.511666
   7 C     6.0000    0    12.011    3.349144    0.399009   -0.253867
   8 H     1.0000    0     1.008    3.731444    0.558874   -2.292052
   9 C     6.0000    0    12.011    2.344203   -2.290367    0.240155
  10 H     1.0000    0     1.008    3.824452   -3.344110    1.246671
  11 O     8.0000    0    15.999    0.274609   -2.361646    1.892820
  12 O     8.0000    0    15.999    1.780422   -3.379135   -2.095817
  13 O     8.0000    0    15.999    5.570025    0.732128    1.146656
  14 O     8.0000    0    15.999    1.907660    4.683156   -0.711382
  15 O     8.0000    0    15.999   -3.121121    3.219745   -0.353534
  16 O     8.0000    0    15.999   -6.195971   -1.462798   -0.444297
  17 H     1.0000    0     1.008   -4.155284   -4.394903    0.833423
  18 H     1.0000    0     1.008   -3.102738   -3.168782   -2.127100
  19 H     1.0000    0     1.008    1.335837   -5.130128   -1.845402
  20 H     1.0000    0     1.008    6.107387    2.461295    0.923920
  21 H     1.0000    0     1.008    0.332327    5.466225   -1.209176
  22 H     1.0000    0     1.008   -3.422229    3.680485    1.387339
  23 H     1.0000    0     1.008   -5.953161    0.174620   -1.218228

--------------------------------
INTERNAL COORDINATES (ANGSTROEM)
--------------------------------
 C      0   0   0     0.000000000000     0.00000000     0.00000000
 C      1   0   0     1.541204642333     0.00000000     0.00000000
 H      2   1   0     1.100131116423   107.62511982     0.00000000
 C      2   1   3     1.535736673708   110.78490621   241.05913697
 H      4   2   1     1.096754461365   110.49680798   320.50625693
 C      4   2   1     1.532022584456   108.72508549   201.76365534
 H      6   4   2     1.104129157118   109.43914003   309.18341024
 C      6   4   2     1.534311126179   107.82049928    67.19662535
 H      8   6   4     1.100626003906   108.06363976    76.90514576
 C      8   6   4     1.541596367370   110.05876866   319.79983692
 H     10   8   6     1.099184753564   107.73814195   226.16405190
 O     10   8   6     1.402030376631   113.58319405   340.71161351
 O     10   8   6     1.396068442581   107.73122279   105.34645205
 O      8   6   4     1.400545494572   111.94662975   199.15392912
 O      6   4   2     1.406119510951   111.62737393   187.65151806
 O      4   2   1     1.410402899296   112.54596585    77.64223008
 O      1   2   3     1.402237901637   111.33318062    51.06706518
 H      1   2   3     1.092539438705   109.26379170   293.69764969
 H      1   2   3     1.099322992903   109.46531502   174.36026631
 H     13  10   8     0.965126906532   109.07064408   173.35430182
 H     14   8   6     0.965423991758   107.56880895   305.93431924
 H     15   6   4     0.967493476941   107.71608365    24.30482589
 H     16   4   2     0.966177876986   109.17297685    56.39648238
 H     17   1   2     0.966970875743   108.65358981    54.14642887

---------------------------
INTERNAL COORDINATES (A.U.)
---------------------------
 C      0   0   0     0.000000000000     0.00000000     0.00000000
 C      1   0   0     2.912454690337     0.00000000     0.00000000
 H      2   1   0     2.078946521445   107.62511982     0.00000000
 C      2   1   3     2.902121727128   110.78490621   241.05913697
 H      4   2   1     2.072565568136   110.49680798   320.50625693
 C      4   2   1     2.895103115604   108.72508549   201.76365534
 H      6   4   2     2.086501723430   109.43914003   309.18341024
 C      6   4   2     2.899427832707   107.82049928    67.19662535
 H      8   6   4     2.079881723254   108.06363976    76.90514576
 C      8   6   4     2.913194943377   110.05876866   319.79983692
 H     10   8   6     2.077158154818   107.73814195   226.16405190
 O     10   8   6     2.649453443271   113.58319405   340.71161351
 O     10   8   6     2.638187020688   107.73122279   105.34645205
 O      8   6   4     2.646647422839   111.94662975   199.15392912
 O      6   4   2     2.657180787261   111.62737393   187.65151806
 O      4   2   1     2.665275218158   112.54596585    77.64223008
 O      1   2   3     2.649845608698   111.33318062    51.06706518
 H      1   2   3     2.064600329661   109.26379170   293.69764969
 H      1   2   3     2.077419389310   109.46531502   174.36026631
 H     13  10   8     1.823825537824   109.07064408   173.35430182
 H     14   8   6     1.824386947540   107.56880895   305.93431924
 H     15   6   4     1.828297707773   107.71608365    24.30482589
 H     16   4   2     1.825811584156   109.17297685    56.39648238
 H     17   1   2     1.827310134631   108.65358981    54.14642887

---------------------
BASIS SET INFORMATION
---------------------
There are 3 groups of distinct atoms

 Group   1 Type C   : 7s4p1d contracted to 3s2p1d pattern {511/31/1}
 Group   2 Type H   : 4s contracted to 2s pattern {31}
 Group   3 Type O   : 7s4p1d contracted to 3s2p1d pattern {511/31/1}

Atom   0C    basis set group =>   1
Atom   1C    basis set group =>   1
Atom   2H    basis set group =>   2
Atom   3C    basis set group =>   1
Atom   4H    basis set group =>   2
Atom   5C    basis set group =>   1
Atom   6H    basis set group =>   2
Atom   7C    basis set group =>   1
Atom   8H    basis set group =>   2
Atom   9C    basis set group =>   1
Atom  10H    basis set group =>   2
Atom  11O    basis set group =>   3
Atom  12O    basis set group =>   3
Atom  13O    basis set group =>   3
Atom  14O    basis set group =>   3
Atom  15O    basis set group =>   3
Atom  16O    basis set group =>   3
Atom  17H    basis set group =>   2
Atom  18H    basis set group =>   2
Atom  19H    basis set group =>   2
Atom  20H    basis set group =>   2
Atom  21H    basis set group =>   2
Atom  22H    basis set group =>   2
Atom  23H    basis set group =>   2
---------------------------------
AUXILIARY/J BASIS SET INFORMATION
---------------------------------
There are 3 groups of distinct atoms

 Group   1 Type C   : 12s5p4d2f1g contracted to 6s4p3d1f1g pattern {711111/2111/211/2/1}
 Group   2 Type H   : 5s2p1d contracted to 3s1p1d pattern {311/2/1}
 Group   3 Type O   : 12s5p4d2f1g contracted to 6s4p3d1f1g pattern {711111/2111/211/2/1}

Atom   0C    basis set group =>   1
Atom   1C    basis set group =>   1
Atom   2H    basis set group =>   2
Atom   3C    basis set group =>   1
Atom   4H    basis set group =>   2
Atom   5C    basis set group =>   1
Atom   6H    basis set group =>   2
Atom   7C    basis set group =>   1
Atom   8H    basis set group =>   2
Atom   9C    basis set group =>   1
Atom  10H    basis set group =>   2
Atom  11O    basis set group =>   3
Atom  12O    basis set group =>   3
Atom  13O    basis set group =>   3
Atom  14O    basis set group =>   3
Atom  15O    basis set group =>   3
Atom  16O    basis set group =>   3
Atom  17H    basis set group =>   2
Atom  18H    basis set group =>   2
Atom  19H    basis set group =>   2
Atom  20H    basis set group =>   2
Atom  21H    basis set group =>   2
Atom  22H    basis set group =>   2
Atom  23H    basis set group =>   2
------------------------------------------------------------------------------
                             ORCA STARTUP CALCULATIONS
                           -- RI-GTO INTEGRALS CHOSEN --
------------------------------------------------------------------------------
------------------------------------------------------------------------------
                   ___                                                        
                  /   \      - P O W E R E D   B Y -                         
                 /     \                                                     
                 |  |  |   _    _      __       _____    __    __             
                 |  |  |  | |  | |    /  \     |  _  \  |  |  /  |          
                  \  \/   | |  | |   /    \    | | | |  |  | /  /          
                 / \  \   | |__| |  /  /\  \   | |_| |  |  |/  /          
                |  |  |   |  __  | /  /__\  \  |    /   |      \           
                |  |  |   | |  | | |   __   |  |    \   |  |\   \          
                \     /   | |  | | |  |  |  |  | |\  \  |  | \   \       
                 \___/    |_|  |_| |__|  |__|  |_| \__\ |__|  \__/        
                                                                              
                      - O R C A' S   B I G   F R I E N D -                    
                                      &                                       
                       - I N T E G R A L  F E E D E R -                       
                                                                              
 v1 FN, 2020, v2 2021, v3 2022-2024                                           
------------------------------------------------------------------------------


----------------------
SHARK INTEGRAL PACKAGE
----------------------

Number of atoms                             ...     24
Number of basis functions                   ...    192
Number of shells                            ...     96
Maximum angular momentum                    ...      2
Integral batch strategy                     ... SHARK/LIBINT Hybrid
RI-J (if used) integral strategy            ... SPLIT-RIJ (Revised 2003 algorithm where possible)
Printlevel                                  ...      1
Contraction scheme used                     ... SEGMENTED contraction
Prescreening option                         ... SCHWARTZ
   Thresh                                   ... 1.000e-09
   Tcut                                     ... 1.000e-10
   Tpresel                                  ... 1.000e-10 
Coulomb Range Separation                    ... NOT USED
Exchange Range Separation                   ... NOT USED
Multipole approximations                    ... NOT USED
Finite Nucleus Model                        ... NOT USED
CABS basis                                  ... NOT available
Auxiliary Coulomb fitting basis             ... AVAILABLE
   # of basis functions in Aux-J            ...    720
   # of shells in Aux-J                     ...    240
   Maximum angular momentum in Aux-J        ...      4
Auxiliary J/K fitting basis                 ... NOT available
Auxiliary Correlation fitting basis         ... NOT available
Auxiliary 'external' fitting basis          ... NOT available

Checking pre-screening integrals            ... done (  0.0 sec) Dimension = 96
Check shell pair data                       ... done (  0.0 sec)
Shell pair information
Shell pair cut-off parameter TPreSel        ...   1.0e-10
Total number of shell pairs                 ...      4656
Shell pairs after pre-screening             ...      4190
Total number of primitive shell pairs       ...     18720
Primitive shell pairs kept                  ...     11298
          la=0 lb=0:   1628 shell pairs
          la=1 lb=0:   1330 shell pairs
          la=1 lb=1:    287 shell pairs
          la=2 lb=0:    616 shell pairs
          la=2 lb=1:    263 shell pairs
          la=2 lb=2:     66 shell pairs

Calculating one electron integrals          ... done (  0.0 sec)
Calculating RI/J V-Matrix + Cholesky decomp.... done (  0.0 sec)
Calculating Nuclear repulsion               ... done (  0.0 sec) ENN=    841.087629212083 Eh

Diagonalization of the overlap matrix:
Smallest eigenvalue                        ... 6.656e-04
Time for diagonalization                   ...    0.003 sec
Threshold for overlap eigenvalues          ... 1.000e-07
Number of eigenvalues below threshold      ... 0
Time for construction of square roots      ...    0.004 sec
Total time needed                          ...    0.008 sec

-------------------
DFT GRID GENERATION
-------------------

General Integration Accuracy     IntAcc      ... 4.159
Radial Grid Type                 RadialGrid  ... OptM3 with GC (2021)
Angular Grid (max. ang.)         AngularGrid ... 3 (Lebedev-194)
Angular grid pruning method      GridPruning ... 4 (adaptive)
Weight generation scheme         WeightScheme... mBecke (2022)
Basis function cutoff            BFCut       ... 1.0000e-10
Integration weight cutoff        WCut        ... 1.0000e-14
Partially contracted basis set               ... off
Rotationally invariant grid construction     ... off
Angular grids for H and He will be reduced by one unit

Total number of grid points                  ...    55671
Total number of batches                      ...      885
Average number of points per batch           ...       62
Average number of grid points per atom       ...     2320
Initializing property integral containers    ... done (  0.0 sec)

SHARK setup successfully completed in   0.6 seconds

Maximum memory used throughout the entire STARTUP-calculation: 28.7 MB
-------------------------------------------------------------------------------
                                 ORCA GUESS
                   Start orbitals & Density for SCF / CASSCF
-------------------------------------------------------------------------------

------------
SCF SETTINGS
------------
Hamiltonian:
 Density Functional     Method          .... DFT(GTOs)
 Exchange Functional    Exchange        .... PBE
   PBE kappa parameter   XKappa         ....  0.804000
   PBE mue parameter    XMuePBE         ....  0.219520
 Correlation Functional Correlation     .... PBE
   PBE beta parameter  CBetaPBE         ....  0.066725
 LDA part of GGA corr.  LDAOpt          .... PW91-LDA
 Gradients option       PostSCFGGA      .... off
   NL short-range parameter             ....  6.400000
 RI-approximation to the Coulomb term is turned on
   Number of AuxJ basis functions       .... 720


General Settings:
 Integral files         IntName         .... sp
 Hartree-Fock type      HFTyp           .... RHF
 Total Charge           Charge          ....    0
 Multiplicity           Mult            ....    1
 Number of Electrons    NEL             ....   96
 Basis Dimension        Dim             ....  192
 Nuclear Repulsion      ENuc            ....    841.0876292121 Eh

Convergence Acceleration:
 AO-DIIS                CNVDIIS         .... on
   Start iteration      DIISMaxIt       ....    12
   Startup error        DIISStart       ....  0.200000
   # of expansion vecs  DIISMaxEq       ....     5
   Bias factor          DIISBfac        ....   1.050
   Max. coefficient     DIISMaxC        ....  10.000
 MO-DIIS                CNVKDIIS        .... off
 Trust-Rad. Augm. Hess. CNVTRAH         .... auto
   Auto Start mean grad. ratio tolernc. ....  1.125000
   Auto Start start iteration           ....    50
   Auto Start num. interpolation iter.  ....    10
   Max. Number of Micro iterations      ....    24
   Max. Number of Macro iterations      .... Maxiter - #DIIS iter
   Number of Davidson start vectors     ....     2
   Converg. threshold    (grad. norm)   ....   1.000e-04
   Grad. Scal. Fac. for Micro threshold ....   0.100
   Minimum threshold for Micro iter.    ....   1.000e-02
   NR start threshold (gradient norm)   ....   1.000e-04
   Initial trust radius                 ....   0.400
   Minimum AH scaling param. (alpha)    ....   1.000
   Maximum AH scaling param. (alpha)    .... 1000.000
   Quad. conv. algorithm                .... NR
   White noise on init. David. guess    .... on
   Maximum white noise                  ....   0.010
   Pseudo random numbers                .... off
   Inactive MOs                         .... canonical
   Orbital update algorithm             .... Taylor
   Preconditioner                       .... Diag
   Full preconditioner red. dimension   ....   250
 SOSCF                  CNVSOSCF        .... on
   Start iteration      SOSCFMaxIt      ....   150
   Startup grad/error   SOSCFStart      ....  0.003300
   Hessian update       SOSCFHessUp     .... L-BFGS
 Level Shifting         CNVShift        .... on
   Level shift para.    LevelShift      ....    0.2500
   Turn off err/grad.   ShiftErr        ....    0.0010
 Zerner damping         CNVZerner       .... off
 Static damping         CNVDamp         .... on
   Fraction old density DampFac         ....    0.7000
   Max. Damping (<1)    DampMax         ....    0.9800
   Min. Damping (>=0)   DampMin         ....    0.0000
   Turn off err/grad.   DampErr         ....    0.1000

SCF Procedure:
 Maximum # iterations   MaxIter         ....   125
 SCF integral mode      SCFMode         .... Direct
   Integral package                     .... SHARK and LIBINT hybrid scheme
 Reset frequency        DirectResetFreq ....    20
 Integral Threshold     Thresh          ....  1.000e-09 Eh
 Primitive CutOff       TCut            ....  1.000e-10 Eh

Convergence Tolerance:
 Convergence Check Mode ConvCheckMode   .... Total+1el-Energy
 Convergence forced     ConvForced      .... 0
 Energy Change          TolE            ....  1.000e-05 Eh
 1-El. energy change                    ....  1.000e-02 Eh
 Orbital Gradient       TolG            ....  1.000e-04
 Orbital Rotation angle TolX            ....  1.000e-04
 DIIS Error             TolErr          ....  5.000e-04

------------------------------
INITIAL GUESS: MODEL POTENTIAL
------------------------------
Loading Hartree-Fock densities                     ... done
Calculating cut-offs                               ... done
Initializing the effective Hamiltonian             ... done
Setting up the integral package (SHARK)            ... done
Starting the Coulomb interaction                   ... done (   0.2 sec)
Making the grid                                    ... done (   0.2 sec)
Mapping shells                                     ... done
Starting the XC term evaluation                    ... done (   0.2 sec)
  promolecular density results
     # of electrons  =     95.989040755
     EX              =    -83.244085662
     EC              =     -3.273222912
     EX+EC           =    -86.517308573
Transforming the Hamiltonian                       ... done (   0.0 sec)
Diagonalizing the Hamiltonian                      ... done (   0.0 sec)
Back transforming the eigenvectors                 ... done (   0.0 sec)
Now organizing SCF variables                       ... done
                      ------------------
                      INITIAL GUESS DONE (   0.6 sec)
                      ------------------
             **** ENERGY FILE WAS UPDATED (sp.en.tmp) ****
Finished Guess after   0.7 sec
Maximum memory used throughout the entire GUESS-calculation: 22.5 MB

-------------------------------------------------------------------------------------------
                                      ORCA LEAN-SCF
                              memory conserving SCF solver
-------------------------------------------------------------------------------------------

----------------------------------------D-I-I-S--------------------------------------------
Iteration    Energy (Eh)           Delta-E    RMSDP     MaxDP     DIISErr   Damp  Time(sec)
-------------------------------------------------------------------------------------------
               ***  Starting incremental Fock matrix formation  ***
    1    -685.5281115481132019     0.00e+00  4.97e-03  1.77e-01  2.23e-01  0.700   0.8
    2    -685.6758483255337069    -1.48e-01  3.21e-03  1.21e-01  8.88e-02  0.700   0.8
                               ***Turning on AO-DIIS***
    3    -685.7228971415602246    -4.70e-02  1.10e-03  2.97e-02  2.02e-02  0.700   0.7
    4    -685.7541590925009132    -3.13e-02  1.39e-03  2.27e-02  1.07e-02  0.000   0.7
    5    -685.8261773562787766    -7.20e-02  4.49e-04  1.73e-02  5.34e-03  0.000   0.7
                              *** Initializing SOSCF ***
---------------------------------------S-O-S-C-F--------------------------------------
Iteration    Energy (Eh)           Delta-E    RMSDP     MaxDP     MaxGrad    Time(sec)
--------------------------------------------------------------------------------------
    6    -685.8264955654190089    -3.18e-04  1.32e-04  3.57e-03  1.30e-03     0.7
               *** Restarting incremental Fock matrix formation ***
    7    -685.8265216056861391    -2.60e-05  9.50e-05  2.56e-03  1.80e-04     0.9
    8    -685.8265206346661671     9.71e-07  3.91e-05  1.06e-03  2.81e-04     0.7
                 **** Energy Check signals convergence ****

               *****************************************************
               *                     SUCCESS                       *
               *           SCF CONVERGED AFTER   8 CYCLES          *
               *****************************************************

             **** ENERGY FILE WAS UPDATED (sp.en.tmp) ****

----------------
TOTAL SCF ENERGY
----------------

Total Energy       :       -685.82652063466617 Eh          -18662.28840 eV

Components:
Nuclear Repulsion  :        841.08762921208267 Eh           22887.15795 eV
Electronic Energy  :      -1526.91414984674884 Eh          -41549.44635 eV
One Electron Energy:      -2610.81371288693390 Eh          -71043.85293 eV
Two Electron Energy:       1083.89956304018506 Eh           29494.40658 eV

Virial components:
Potential Energy   :      -1366.99009726291797 Eh          -37197.69164 eV
Kinetic Energy     :        681.16357662825192 Eh           18535.40324 eV
Virial Ratio       :          2.00684555687709

DFT components:
N(Alpha)           :       47.999864150278 electrons
N(Beta)            :       47.999864150278 electrons
N(Total)           :       95.999728300555 electrons
E(X)               :      -84.612376086675 Eh       
E(C)               :       -3.284079925713 Eh       
E(XC)              :      -87.896456012387 Eh       

---------------
SCF CONVERGENCE
---------------

  Last Energy change         ...   -9.7102e-07  Tolerance :   1.0000e-05
  Last MAX-Density change    ...    1.0633e-03  Tolerance :   1.0000e-03
  Last RMS-Density change    ...    3.9076e-05  Tolerance :   1.0000e-04
  Last DIIS Error            ...    1.2961e-03  Tolerance :   5.0000e-04
  Last Orbital Gradient      ...    2.8078e-04  Tolerance :   1.0000e-04
  Last Orbital Rotation      ...    2.0275e-04  Tolerance :   1.0000e-04


----------------
ORBITAL ENERGIES
----------------

  NO   OCC          E(Eh)            E(eV) 
   0   2.0000     -18.790059      -511.3035 
   1   2.0000     -18.775745      -510.9140 
   2   2.0000     -18.770998      -510.7848 
   3   2.0000     -18.755639      -510.3669 
   4   2.0000     -18.753019      -510.2956 
   5   2.0000     -18.745137      -510.0811 
   6   2.0000      -9.989870      -271.8382 
   7   2.0000      -9.958526      -270.9853 
   8   2.0000      -9.951929      -270.8058 
   9   2.0000      -9.946208      -270.6501 
  10   2.0000      -9.942691      -270.5544 
  11   2.0000      -9.930641      -270.2265 
  12   2.0000      -0.990324       -26.9481 
  13   2.0000      -0.969413       -26.3791 
  14   2.0000      -0.940334       -25.5878 
  15   2.0000      -0.925312       -25.1790 
  16   2.0000      -0.922567       -25.1043 
  17   2.0000      -0.918247       -24.9868 
  18   2.0000      -0.713734       -19.4217 
  19   2.0000      -0.697435       -18.9782 
  20   2.0000      -0.621346       -16.9077 
  21   2.0000      -0.598700       -16.2915 
  22   2.0000      -0.571586       -15.5536 
  23   2.0000      -0.529680       -14.4133 
  24   2.0000      -0.517058       -14.0699 
  25   2.0000      -0.498797       -13.5729 
  26   2.0000      -0.491392       -13.3714 
  27   2.0000      -0.459168       -12.4946 
  28   2.0000      -0.441210       -12.0059 
  29   2.0000      -0.431527       -11.7424 
  30   2.0000      -0.414117       -11.2687 
  31   2.0000      -0.407725       -11.0948 
  32   2.0000      -0.390510       -10.6263 
  33   2.0000      -0.379532       -10.3276 
  34   2.0000      -0.368753       -10.0343 
  35   2.0000      -0.362863        -9.8740 
  36   2.0000      -0.346113        -9.4182 
  37   2.0000      -0.319010        -8.6807 
  38   2.0000      -0.315531        -8.5860 
  39   2.0000      -0.305419        -8.3109 
  40   2.0000      -0.296934        -8.0800 
  41   2.0000      -0.266495        -7.2517 
  42   2.0000      -0.265232        -7.2173 
  43   2.0000      -0.249840        -6.7985 
  44   2.0000      -0.244821        -6.6619 
  45   2.0000      -0.225627        -6.1396 
  46   2.0000      -0.220693        -6.0054 
  47   2.0000      -0.204955        -5.5771 
  48   0.0000       0.002262         0.0616 
  49   0.0000       0.021798         0.5932 
  50   0.0000       0.031711         0.8629 
  51   0.0000       0.041434         1.1275 
  52   0.0000       0.062610         1.7037 
  53   0.0000       0.067930         1.8485 
  54   0.0000       0.079513         2.1637 
  55   0.0000       0.086703         2.3593 
  56   0.0000       0.096478         2.6253 
  57   0.0000       0.100780         2.7424 
  58   0.0000       0.116873         3.1803 
*Only the first 10 virtual orbitals were printed.

                    ********************************
                    * MULLIKEN POPULATION ANALYSIS *
                    ********************************

-----------------------
MULLIKEN ATOMIC CHARGES
-----------------------
   0 C :    0.063748
   1 C :    0.059166
   2 H :    0.060987
   3 C :   -0.059706
   4 H :    0.089087
   5 C :    0.038821
   6 H :    0.048294
   7 C :    0.097339
   8 H :    0.073385
   9 C :    0.158657
  10 H :    0.079685
  11 O :   -0.307641
  12 O :   -0.396130
  13 O :   -0.410899
  14 O :   -0.418995
  15 O :   -0.415869
  16 O :   -0.441718
  17 H :    0.086708
  18 H :    0.070399
  19 H :    0.306877
  20 H :    0.310664
  21 H :    0.301494
  22 H :    0.307976
  23 H :    0.297669
Sum of atomic charges:    0.0000000

--------------------------------
MULLIKEN REDUCED ORBITAL CHARGES
--------------------------------
  0 C s       :     3.024847  s :     3.024847
      pz      :     1.040474  p :     2.848029
      px      :     0.794476
      py      :     1.013079
      dz2     :     0.009391  d :     0.063376
      dxz     :     0.015095
      dyz     :     0.009614
      dx2y2   :     0.014927
      dxy     :     0.014348

  1 C s       :     3.043619  s :     3.043619
      pz      :     1.018582  p :     2.831439
      px      :     0.863661
      py      :     0.949196
      dz2     :     0.010004  d :     0.065777
      dxz     :     0.014642
      dyz     :     0.010834
      dx2y2   :     0.013132
      dxy     :     0.017165

  2 H s       :     0.939013  s :     0.939013

  3 C s       :     3.096245  s :     3.096245
      pz      :     1.121914  p :     2.895935
      px      :     0.889232
      py      :     0.884790
      dz2     :     0.015017  d :     0.067525
      dxz     :     0.007646
      dyz     :     0.010129
      dx2y2   :     0.017301
      dxy     :     0.017432

  4 H s       :     0.910913  s :     0.910913

  5 C s       :     3.039202  s :     3.039202
      pz      :     0.998170  p :     2.854105
      px      :     0.988375
      py      :     0.867561
      dz2     :     0.018921  d :     0.067872
      dxz     :     0.006308
      dyz     :     0.013930
      dx2y2   :     0.013811
      dxy     :     0.014902

  6 H s       :     0.951706  s :     0.951706

  7 C s       :     3.028358  s :     3.028358
      pz      :     0.981246  p :     2.807202
      px      :     0.827942
      py      :     0.998015
      dz2     :     0.018563  d :     0.067101
      dxz     :     0.014541
      dyz     :     0.005249
      dx2y2   :     0.014761
      dxy     :     0.013987

  8 H s       :     0.926615  s :     0.926615

  9 C s       :     3.003524  s :     3.003524
      pz      :     0.783197  p :     2.737961
      px      :     0.887418
      py      :     1.067346
      dz2     :     0.022383  d :     0.099858
      dxz     :     0.030135
      dyz     :     0.019477
      dx2y2   :     0.013163
      dxy     :     0.014700

 10 H s       :     0.920315  s :     0.920315

 11 O s       :     3.747419  s :     3.747419
      pz      :     1.613358  p :     4.544884
      px      :     1.242813
      py      :     1.688713
      dz2     :     0.002500  d :     0.015338
      dxz     :     0.004934
      dyz     :     0.002326
      dx2y2   :     0.002210
      dxy     :     0.003368

 12 O s       :     3.777223  s :     3.777223
      pz      :     1.484731  p :     4.603549
      px      :     1.811978
      py      :     1.306841
      dz2     :     0.005474  d :     0.015359
      dxz     :     0.002177
      dyz     :     0.002756
      dx2y2   :     0.003738
      dxy     :     0.001214

 13 O s       :     3.776364  s :     3.776364
      pz      :     1.734129  p :     4.618762
      px      :     1.486742
      py      :     1.397891
      dz2     :     0.002956  d :     0.015773
      dxz     :     0.003247
      dyz     :     0.001562
      dx2y2   :     0.005837
      dxy     :     0.002171

 14 O s       :     3.766693  s :     3.766693
      pz      :     1.745949  p :     4.637009
      px      :     1.491675
      py      :     1.399385
      dz2     :     0.002382  d :     0.015293
      dxz     :     0.002144
      dyz     :     0.001876
      dx2y2   :     0.004151
      dxy     :     0.004740

 15 O s       :     3.794565  s :     3.794565
      pz      :     1.409047  p :     4.605880
      px      :     1.608374
      py      :     1.588459
      dz2     :     0.007126  d :     0.015424
      dxz     :     0.001560
      dyz     :     0.002053
      dx2y2   :     0.001802
      dxy     :     0.002882

 16 O s       :     3.781675  s :     3.781675
      pz      :     1.803364  p :     4.644245
      px      :     1.483366
      py      :     1.357515
      dz2     :     0.001646  d :     0.015798
      dxz     :     0.002216
      dyz     :     0.003244
      dx2y2   :     0.005864
      dxy     :     0.002829

 17 H s       :     0.913292  s :     0.913292

 18 H s       :     0.929601  s :     0.929601

 19 H s       :     0.693123  s :     0.693123

 20 H s       :     0.689336  s :     0.689336

 21 H s       :     0.698506  s :     0.698506

 22 H s       :     0.692024  s :     0.692024

 23 H s       :     0.702331  s :     0.702331


------------------------
MULLIKEN OVERLAP CHARGES
------------------------
B(  0-C ,  1-C ) :   0.6866 B(  0-C ,  2-H ) :  -0.0727 B(  0-C ,  3-C ) :  -0.0764 
B(  0-C , 11-O ) :  -0.0673 B(  0-C , 16-O ) :   0.6695 B(  0-C , 17-H ) :   0.6723 
B(  0-C , 18-H ) :   0.6647 B(  0-C , 23-H ) :  -0.0979 B(  1-C ,  2-H ) :   0.6152 
B(  1-C ,  3-C ) :   0.2412 B(  1-C ,  4-H ) :  -0.0528 B(  1-C ,  5-C ) :  -0.1084 
B(  1-C ,  9-C ) :  -0.1875 B(  1-C , 11-O ) :   0.5009 B(  1-C , 16-O ) :  -0.0887 
B(  3-C ,  4-H ) :   0.6408 B(  3-C ,  5-C ) :   0.3979 B(  3-C ,  6-H ) :  -0.0599 
B(  3-C ,  9-C ) :   0.0609 B(  3-C , 11-O ) :  -0.1234 B(  3-C , 14-O ) :  -0.0676 
B(  3-C , 15-O ) :   0.4628 B(  3-C , 18-H ) :  -0.0605 B(  3-C , 21-H ) :  -0.0541 
B(  3-C , 22-H ) :  -0.1061 B(  4-H ,  5-C ) :  -0.0696 B(  4-H , 15-O ) :  -0.0749 
B(  5-C ,  6-H ) :   0.5534 B(  5-C ,  7-C ) :   0.3362 B(  5-C ,  9-C ) :   0.0958 
B(  5-C , 13-O ) :  -0.0670 B(  5-C , 14-O ) :   0.7299 B(  5-C , 15-O ) :  -0.0604 
B(  5-C , 21-H ) :  -0.0900 B(  6-H , 14-O ) :  -0.0921 B(  7-C ,  8-H ) :   0.6097 
B(  7-C ,  9-C ) :  -0.0605 B(  7-C , 11-O ) :  -0.0881 B(  7-C , 12-O ) :  -0.0832 
B(  7-C , 13-O ) :   0.5941 B(  7-C , 14-O ) :  -0.1530 B(  7-C , 20-H ) :  -0.1093 
B(  8-H ,  9-C ) :  -0.0748 B(  8-H , 13-O ) :  -0.0556 B(  9-C , 10-H ) :   0.6260 
B(  9-C , 11-O ) :   0.6628 B(  9-C , 12-O ) :   0.5554 B(  9-C , 13-O ) :  -0.0771 
B( 10-H , 11-O ) :  -0.0620 B( 11-O , 12-O ) :  -0.1466 B( 12-O , 19-H ) :   0.4884 
B( 13-O , 20-H ) :   0.5395 B( 14-O , 21-H ) :   0.5282 B( 15-O , 21-H ) :   0.0768 
B( 15-O , 22-H ) :   0.5257 B( 15-O , 23-H ) :   0.0696 B( 16-O , 17-H ) :  -0.0542 
B( 16-O , 18-H ) :  -0.0536 B( 16-O , 23-H ) :   0.5438 B( 17-H , 18-H ) :  -0.0842 



                     *******************************
                     * LOEWDIN POPULATION ANALYSIS *
                     *******************************

----------------------
LOEWDIN ATOMIC CHARGES
----------------------
   0 C :   -0.134384
   1 C :   -0.076556
   2 H :    0.112166
   3 C :   -0.093836
   4 H :    0.123391
   5 C :   -0.084825
   6 H :    0.101642
   7 C :   -0.073451
   8 H :    0.112529
   9 C :    0.001788
  10 H :    0.108261
  11 O :   -0.138535
  12 O :   -0.306766
  13 O :   -0.313649
  14 O :   -0.328558
  15 O :   -0.300449
  16 O :   -0.336620
  17 H :    0.112212
  18 H :    0.094775
  19 H :    0.286871
  20 H :    0.291960
  21 H :    0.280112
  22 H :    0.288851
  23 H :    0.273071

-------------------------------
LOEWDIN REDUCED ORBITAL CHARGES
-------------------------------
  0 C s       :     2.925167  s :     2.925167
      pz      :     1.108913  p :     3.064347
      px      :     0.906516
      py      :     1.048917
      dz2     :     0.020492  d :     0.144870
      dxz     :     0.034892
      dyz     :     0.022975
      dx2y2   :     0.031851
      dxy     :     0.034661

  1 C s       :     2.901972  s :     2.901972
      pz      :     1.076421  p :     3.020434
      px      :     0.926209
      py      :     1.017804
      dz2     :     0.020360  d :     0.154150
      dxz     :     0.034485
      dyz     :     0.028751
      dx2y2   :     0.029169
      dxy     :     0.041384

  2 H s       :     0.887834  s :     0.887834

  3 C s       :     2.892163  s :     2.892163
      pz      :     1.116296  p :     3.043752
      px      :     0.962809
      py      :     0.964647
      dz2     :     0.035074  d :     0.157920
      dxz     :     0.015257
      dyz     :     0.024246
      dx2y2   :     0.041652
      dxy     :     0.041691

  4 H s       :     0.876609  s :     0.876609

  5 C s       :     2.894922  s :     2.894922
      pz      :     1.053757  p :     3.030308
      px      :     1.058678
      py      :     0.917873
      dz2     :     0.045418  d :     0.159595
      dxz     :     0.012714
      dyz     :     0.031302
      dx2y2   :     0.032396
      dxy     :     0.037766

  6 H s       :     0.898358  s :     0.898358

  7 C s       :     2.898043  s :     2.898043
      pz      :     1.044925  p :     3.018507
      px      :     0.917988
      py      :     1.055594
      dz2     :     0.045136  d :     0.156901
      dxz     :     0.033014
      dyz     :     0.009827
      dx2y2   :     0.033828
      dxy     :     0.035096

  8 H s       :     0.887471  s :     0.887471

  9 C s       :     2.886098  s :     2.886098
      pz      :     0.886171  p :     2.889638
      px      :     0.951556
      py      :     1.051910
      dz2     :     0.050199  d :     0.222477
      dxz     :     0.069340
      dyz     :     0.041409
      dx2y2   :     0.029488
      dxy     :     0.032040

 10 H s       :     0.891739  s :     0.891739

 11 O s       :     3.466747  s :     3.466747
      pz      :     1.642249  p :     4.641742
      px      :     1.297232
      py      :     1.702262
      dz2     :     0.003976  d :     0.030045
      dxz     :     0.010551
      dyz     :     0.003070
      dx2y2   :     0.005278
      dxy     :     0.007171

 12 O s       :     3.540423  s :     3.540423
      pz      :     1.556229  p :     4.738983
      px      :     1.813408
      py      :     1.369346
      dz2     :     0.009731  d :     0.027360
      dxz     :     0.003159
      dyz     :     0.005600
      dx2y2   :     0.006574
      dxy     :     0.002297

 13 O s       :     3.534239  s :     3.534239
      pz      :     1.770740  p :     4.751814
      px      :     1.522229
      py      :     1.458845
      dz2     :     0.004567  d :     0.027596
      dxz     :     0.006025
      dyz     :     0.002240
      dx2y2   :     0.010621
      dxy     :     0.004143

 14 O s       :     3.528159  s :     3.528159
      pz      :     1.776451  p :     4.773712
      px      :     1.551503
      py      :     1.445758
      dz2     :     0.003532  d :     0.026686
      dxz     :     0.003317
      dyz     :     0.003872
      dx2y2   :     0.007471
      dxy     :     0.008493

 15 O s       :     3.537625  s :     3.537625
      pz      :     1.479947  p :     4.735688
      px      :     1.636559
      py      :     1.619183
      dz2     :     0.012143  d :     0.027136
      dxz     :     0.002573
      dyz     :     0.003535
      dx2y2   :     0.003172
      dxy     :     0.005712

 16 O s       :     3.533296  s :     3.533296
      pz      :     1.814718  p :     4.776075
      px      :     1.537690
      py      :     1.423667
      dz2     :     0.002621  d :     0.027249
      dxz     :     0.002999
      dyz     :     0.005426
      dx2y2   :     0.010687
      dxy     :     0.005515

 17 H s       :     0.887788  s :     0.887788

 18 H s       :     0.905225  s :     0.905225

 19 H s       :     0.713129  s :     0.713129

 20 H s       :     0.708040  s :     0.708040

 21 H s       :     0.719888  s :     0.719888

 22 H s       :     0.711149  s :     0.711149

 23 H s       :     0.726929  s :     0.726929


---------------------------------
LOEWDIN BOND ORDERS (THRESH 0.050000)
---------------------------------
B(  0-C ,  1-C ) :   1.0522 B(  0-C ,  3-C ) :   0.0589 B(  0-C , 11-O ) :   0.0688 
B(  0-C , 16-O ) :   1.2518 B(  0-C , 17-H ) :   0.9109 B(  0-C , 18-H ) :   0.9026 
B(  1-C ,  2-H ) :   0.8715 B(  1-C ,  3-C ) :   1.0174 B(  1-C ,  5-C ) :   0.0603 
B(  1-C ,  9-C ) :   0.0638 B(  1-C , 11-O ) :   1.1327 B(  1-C , 15-O ) :   0.0722 
B(  1-C , 16-O ) :   0.0881 B(  3-C ,  4-H ) :   0.8626 B(  3-C ,  5-C ) :   1.0238 
B(  3-C ,  7-C ) :   0.0623 B(  3-C , 11-O ) :   0.0557 B(  3-C , 14-O ) :   0.0720 
B(  3-C , 15-O ) :   1.1984 B(  5-C ,  6-H ) :   0.8608 B(  5-C ,  7-C ) :   1.0201 
B(  5-C ,  9-C ) :   0.0539 B(  5-C , 13-O ) :   0.0799 B(  5-C , 14-O ) :   1.2286 
B(  5-C , 15-O ) :   0.0737 B(  7-C ,  8-H ) :   0.8638 B(  7-C ,  9-C ) :   1.0089 
B(  7-C , 11-O ) :   0.0586 B(  7-C , 12-O ) :   0.0632 B(  7-C , 13-O ) :   1.2340 
B(  7-C , 14-O ) :   0.0670 B(  9-C , 10-H ) :   0.8807 B(  9-C , 11-O ) :   1.1987 
B(  9-C , 12-O ) :   1.2553 B(  9-C , 13-O ) :   0.0631 B( 11-O , 12-O ) :   0.0986 
B( 12-O , 19-H ) :   0.8739 B( 13-O , 20-H ) :   0.8784 B( 14-O , 21-H ) :   0.8626 
B( 15-O , 21-H ) :   0.0503 B( 15-O , 22-H ) :   0.8757 B( 15-O , 23-H ) :   0.0532 
B( 16-O , 23-H ) :   0.8732 

------------------------------------------
LOEWDIN REDUCED ORBITAL POPULATIONS PER MO
-------------------------------------------
THRESHOLD FOR PRINTING IS 0.1%%
                      0         1         2         3         4         5   
                 -18.79006 -18.77575 -18.77100 -18.75564 -18.75302 -18.74514
                   2.00000   2.00000   2.00000   2.00000   2.00000   2.00000
                  --------  --------  --------  --------  --------  --------
11 O  s               0.0      99.9       0.0       0.0       0.0       0.0
12 O  s               0.0       0.0      99.9       0.0       0.0       0.0
13 O  s               0.0       0.0       0.0       0.0      99.9       0.0
14 O  s               0.0       0.0       0.0      99.9       0.0       0.0
15 O  s              99.9       0.0       0.0       0.0       0.0       0.0
16 O  s               0.0       0.0       0.0       0.0       0.0      99.9

                      6         7         8         9        10        11   
                  -9.98987  -9.95853  -9.95193  -9.94621  -9.94269  -9.93064
                   2.00000   2.00000   2.00000   2.00000   2.00000   2.00000
                  --------  --------  --------  --------  --------  --------
 0 C  s               0.0       0.0       0.0       0.0       0.0      99.6
 1 C  s               0.0       0.0      99.6       0.0       0.0       0.0
 3 C  s               0.0      99.6       0.0       0.0       0.0       0.0
 5 C  s               0.0       0.0       0.0      99.6       0.0       0.0
 7 C  s               0.0       0.0       0.0       0.0      99.6       0.0
 9 C  s              99.6       0.0       0.0       0.0       0.0       0.0

                     12        13        14        15        16        17   
                  -0.99032  -0.96941  -0.94033  -0.92531  -0.92257  -0.91825
                   2.00000   2.00000   2.00000   2.00000   2.00000   2.00000
                  --------  --------  --------  --------  --------  --------
 0 C  s               0.5       0.1       0.4       7.0       0.8       2.5
 0 C  pz              0.1       0.0       0.0       0.0       0.0       0.2
 0 C  px              0.2       0.0       0.1       2.9       0.1       3.7
 0 C  py              0.1       0.1       0.1       1.7       0.2       0.6
 0 C  dz2             0.0       0.0       0.0       0.1       0.0       0.1
 0 C  dxy             0.0       0.0       0.0       0.2       0.0       0.2
 1 C  s               5.0       0.1       0.4       2.2       0.8       1.6
 1 C  pz              0.0       0.3       0.0       0.0       0.0       0.6
 1 C  px              2.9       0.3       0.0       0.1       0.2       3.5
 1 C  py              0.5       1.4       0.0       0.5       0.4       0.2
 1 C  dxy             0.2       0.0       0.0       0.0       0.0       0.2
 2 H  s               0.6       0.1       0.1       0.4       0.1       0.2
 3 C  s               2.1       8.4       0.2       0.0       0.1       0.1
 3 C  pz              0.3       0.1       0.0       0.1       0.0       0.1
 3 C  px              0.0       2.6       2.0       0.0       1.4       0.0
 3 C  py              0.1       4.8       0.0       0.7       0.3       0.1
 3 C  dz2             0.0       0.2       0.0       0.0       0.0       0.0
 3 C  dxy             0.0       0.4       0.1       0.0       0.1       0.0
 4 H  s               0.4       0.9       0.0       0.0       0.0       0.0
 5 C  s               1.1       2.5       5.1       0.2       2.8       0.0
 5 C  pz              0.1       0.4       0.7       0.1       0.7       0.1
 5 C  px              0.0       0.7       1.7       0.0       0.0       0.0
 5 C  py              0.2       0.7       1.5       0.9       4.2       0.4
 5 C  dyz             0.0       0.0       0.1       0.0       0.2       0.0
 5 C  dx2y2           0.0       0.0       0.1       0.0       0.2       0.0
 6 H  s               0.2       0.3       0.7       0.0       0.2       0.0
 7 C  s               2.2       0.0       7.1       0.6       2.1       0.0
 7 C  pz              0.1       0.0       1.4       0.5       0.6       0.1
 7 C  px              0.3       0.0       2.4       1.0       3.7       0.0
 7 C  py              0.7       0.6       1.1       0.0       0.1       0.0
 7 C  dxz             0.0       0.0       0.2       0.1       0.2       0.0
 7 C  dx2y2           0.0       0.0       0.1       0.1       0.1       0.0
 8 H  s               0.4       0.0       0.9       0.0       0.2       0.0
 9 C  s              14.4       1.4       0.0       0.2       0.1       0.1
 9 C  pz              0.1       0.1       0.0       3.1       1.1       7.5
 9 C  px              3.8       0.3       0.7       0.0       0.7       0.9
 9 C  py              0.2       0.2       0.8       0.9       0.0       1.0
 9 C  dz2             0.1       0.0       0.0       0.1       0.0       0.1
 9 C  dxz             0.1       0.0       0.0       0.1       0.1       0.4
 9 C  dyz             0.1       0.0       0.0       0.1       0.0       0.2
 9 C  dx2y2           0.1       0.0       0.0       0.0       0.0       0.1
10 H  s               1.7       0.2       0.0       0.0       0.1       0.0
11 O  s              26.6       1.7       0.9       4.1       3.7      17.0
11 O  pz              1.8       0.1       0.0       0.0       0.1       0.3
11 O  px              0.1       0.1       0.0       0.2       0.1       0.1
11 O  py              0.3       0.0       0.0       0.1       0.1       0.4
12 O  s              18.9       3.9       0.2      12.1       2.8      22.2
12 O  pz              1.9       0.3       0.0       0.4       0.1       0.5
12 O  py              0.0       0.0       0.0       0.2       0.0       0.4
13 O  s               1.1       0.0      29.4       6.6      20.6       0.1
13 O  pz              0.0       0.0       0.6       0.1       0.4       0.0
13 O  px              0.1       0.0       0.6       0.1       0.3       0.0
13 O  py              0.0       0.0       0.7       0.2       0.5       0.0
14 O  s               0.8       5.6      20.0       3.4      27.2       1.2
14 O  px              0.0       0.4       0.8       0.2       1.2       0.1
14 O  py              0.0       0.1       0.4       0.0       0.2       0.0
15 O  s               3.2      44.9       4.9       0.5       5.8       0.1
15 O  pz              0.1       1.4       0.2       0.0       0.2       0.0
15 O  px              0.1       0.8       0.0       0.0       0.0       0.0
15 O  py              0.1       0.5       0.0       0.0       0.0       0.0
16 O  s               0.2       0.4       1.2      32.5       2.7      21.3
16 O  pz              0.0       0.0       0.0       0.1       0.0       0.1
16 O  px              0.0       0.0       0.1       1.8       0.2       1.0
16 O  py              0.0       0.0       0.0       0.2       0.0       0.1
17 H  s               0.1       0.0       0.0       0.9       0.1       0.2
18 H  s               0.2       0.0       0.1       0.7       0.1       0.4
19 H  s               3.9       0.8       0.0       2.4       0.6       4.5
20 H  s               0.2       0.0       6.3       1.3       3.9       0.0
21 H  s               0.2       1.8       3.6       0.8       5.3       0.2
22 H  s               0.7       9.0       1.0       0.1       1.2       0.0
23 H  s               0.1       0.4       0.3       6.6       0.4       4.3

                     18        19        20        21        22        23   
                  -0.71373  -0.69744  -0.62135  -0.59870  -0.57159  -0.52968
                   2.00000   2.00000   2.00000   2.00000   2.00000   2.00000
                  --------  --------  --------  --------  --------  --------
 0 C  s               1.7       4.3      15.4       0.0       9.7       0.1
 0 C  pz              0.1       0.6       0.3       0.2       0.6       0.2
 0 C  px              1.2       2.4       1.0       0.0       0.4       0.0
 0 C  py              0.3       0.1       0.5       0.3       3.1       0.6
 1 C  s               8.1      11.5       1.8       0.1       5.2       1.3
 1 C  pz              1.5       0.0       0.3       3.4       2.4       0.0
 1 C  px              0.1       0.6       4.8       0.3       0.6       0.5
 1 C  py              2.5       0.5       2.7       1.9       1.5       3.3
 1 C  dyz             0.0       0.0       0.1       0.0       0.0       0.0
 1 C  dxy             0.1       0.0       0.1       0.1       0.1       0.1
 2 H  s               1.5       2.6       0.5       0.3       3.1       1.4
 3 C  s              15.8       0.1       3.8       7.8       0.2       0.1
 3 C  pz              0.4       0.2       0.0       3.0       0.9       8.3
 3 C  px              2.4       1.7       1.2       1.8       0.9       1.1
 3 C  py              2.2       1.5       0.7       0.3       2.4       1.6
 3 C  dxy             0.1       0.0       0.0       0.0       0.0       0.2
 4 H  s               3.6       0.0       0.8       4.2       0.2       1.6
 5 C  s              10.1       3.3       2.3       6.3       3.8       1.2
 5 C  pz              0.0       0.0       0.1       1.0       0.1       3.3
 5 C  px              1.0       0.7       2.1       4.3       0.1       1.6
 5 C  py              4.7       1.9       0.0       0.0       0.2       0.3
 5 C  dxy             0.0       0.1       0.0       0.0       0.0       0.1
 6 H  s               1.9       0.5       0.7       2.7       1.2       2.4
 7 C  s               3.7      10.1       4.0       2.1       1.8       5.7
 7 C  pz              0.1       0.0       0.3       0.0       0.7       0.9
 7 C  px              2.8       3.0       0.1       0.7       0.5       1.4
 7 C  py              0.4       1.2       3.2       4.9       2.4       0.4
 7 C  dxy             0.1       0.0       0.0       0.1       0.0       0.0
 8 H  s               0.8       1.8       1.2       0.6       1.1       3.1
 9 C  s               0.2      10.5       4.0       4.4       0.0       3.4
 9 C  pz              1.5       0.5       0.4       0.3       3.5       0.4
 9 C  px              0.5       0.7       2.3       0.1       1.8       0.0
 9 C  py              1.9       2.6       1.1       0.5       2.0       1.6
 9 C  dx2y2           0.1       0.0       0.0       0.0       0.0       0.0
10 H  s               0.1       2.3       1.2       1.9       0.1       1.2
11 O  s               4.4       0.0       1.5       0.4       0.3       1.9
11 O  pz              0.0       0.3       0.2       0.7       0.3       0.8
11 O  px              1.8       9.9       0.0       5.1       7.3       1.8
11 O  py              0.8       0.3       0.0       0.4       2.6       0.0
11 O  dxz             0.0       0.1       0.0       0.0       0.0       0.0
12 O  s               0.0       2.0       0.6       0.7       0.1       0.2
12 O  pz              0.1       1.0       0.8       1.5       0.0       4.2
12 O  px              0.0       0.4       0.6       0.3       0.6       1.0
12 O  py              0.1       2.5       3.2       2.0       1.9       6.0
12 O  dz2             0.0       0.0       0.0       0.0       0.0       0.1
13 O  s               1.0       2.9       0.6       0.8       0.1       0.5
13 O  pz              0.1       0.2       0.3       0.1       0.4       2.0
13 O  px              0.4       1.8       1.4       0.9       0.8       5.8
13 O  py              0.1       1.4       1.9       0.0       1.6       3.7
14 O  s               2.9       0.8       0.7       0.5       0.9       0.0
14 O  pz              0.3       0.1       0.2       1.6       1.1       0.9
14 O  px              0.2       0.1       0.0       1.6       0.2       0.0
14 O  py              1.6       0.7       0.8       4.3       3.3       0.1
15 O  s               3.6       0.1       0.5       0.7       0.0       0.7
15 O  pz              0.8       0.0       0.9       5.7       0.4       8.8
15 O  px              1.4       0.0       1.3       3.8       0.8       1.6
15 O  py              1.8       0.1       1.0       5.5       0.0       1.7
15 O  dz2             0.1       0.0       0.0       0.1       0.0       0.1
16 O  s               0.9       1.5       2.7       0.1       0.7       0.0
16 O  pz              0.0       0.1       0.7       0.0       0.4       0.0
16 O  px              0.2       0.4       2.6       0.0       2.4       0.0
16 O  py              0.1       0.4       4.3       0.0       7.7       0.1
17 H  s               0.3       1.0       4.8       0.1       4.5       0.1
18 H  s               0.4       1.0       3.6       0.0       3.9       0.2
19 H  s               0.0       1.7       1.4       1.2       0.6       3.0
20 H  s               0.4       1.8       1.3       0.2       0.8       3.2
21 H  s               1.3       0.5       0.4       2.4       1.4       0.1
22 H  s               1.9       0.1       1.0       4.6       0.2       3.0
23 H  s               0.3       0.6       2.8       0.0       3.1       0.0

                     24        25        26        27        28        29   
                  -0.51706  -0.49880  -0.49139  -0.45917  -0.44121  -0.43153
                   2.00000   2.00000   2.00000   2.00000   2.00000   2.00000
                  --------  --------  --------  --------  --------  --------
 0 C  s               0.0       0.2       0.0       0.7       0.1       0.5
 0 C  pz              0.2       0.6       2.4       3.7       0.4       1.0
 0 C  px              0.0       2.3       5.0       8.6       1.7       4.1
 0 C  py              0.5       1.8       1.4       1.0       0.3       0.4
 0 C  dx2y2           0.0       0.0       0.0       0.0       0.0       0.2
 1 C  s               0.8       1.2       0.1       0.2       0.1       0.0
 1 C  pz              0.4       0.1      12.3       3.2       0.4       1.8
 1 C  px              1.8       4.2       0.2       1.5       0.2       3.8
 1 C  py              3.6       0.1       0.7       5.2       2.1       2.0
 1 C  dyz             0.0       0.0       0.0       0.0       0.0       0.1
 2 H  s               1.8       1.3       1.3       3.5       0.1       1.1
 3 C  s               0.0       0.3       0.0       0.1       0.5       1.6
 3 C  pz              4.1       0.5       0.7       0.2       1.7       0.1
 3 C  px              0.5       8.8       0.2       0.4       8.8       0.2
 3 C  py              0.1       0.1      11.9       0.3       0.4       3.2
 3 C  dxy             0.0       0.0       0.1       0.0       0.3       0.1
 4 H  s               0.9       0.0       1.1       0.0       1.7       1.6
 5 C  s               0.0       0.1       0.5       0.8       0.1       0.5
 5 C  pz              3.5       0.0       1.6       5.2      10.4       2.2
 5 C  px              0.3       7.7       3.1       1.2       4.8       0.5
 5 C  py              0.0       6.8       1.1       0.9       0.0       5.0
 5 C  dxy             0.0       0.0       0.0       0.0       0.0       0.4
 6 H  s               1.2       0.0       1.3       3.2       2.9       1.7
 7 C  s               0.0       0.0       0.3       0.8       0.1       1.0
 7 C  pz              7.6       0.1       0.2       6.3       3.8       0.2
 7 C  px              1.4       0.6       0.8       1.0       0.4       7.6
 7 C  py              0.6       0.9       1.6       1.0       0.3       0.2
 7 C  dxz             0.0       0.0       0.0       0.1       0.0       0.3
 7 C  dx2y2           0.0       0.1       0.0       0.0       0.0       0.1
 8 H  s               1.8       0.0       0.2       3.7       1.1       0.3
 9 C  s               0.3       0.7       0.1       0.0       0.5       0.3
 9 C  pz             11.8       0.1       2.0       1.1       1.1       0.5
 9 C  px              3.3       0.6       3.5       0.1       8.0       0.2
 9 C  py              0.4       3.5       0.3       0.0       4.4       0.5
 9 C  dz2             0.1       0.0       0.1       0.0       0.0       0.0
 9 C  dyz             0.0       0.0       0.0       0.0       0.1       0.0
 9 C  dx2y2           0.0       0.0       0.0       0.0       0.0       0.1
10 H  s               4.0       1.5       0.5       0.0       7.3       0.2
11 O  s               0.1       0.0       0.5       0.1       0.1       0.1
11 O  pz              0.7       0.1       3.7       0.8       1.9       0.5
11 O  px              4.3       0.0       5.3       3.6       1.0       0.2
11 O  py              0.0       1.8       0.1       0.0       2.3       0.2
12 O  s               0.1       0.2       0.1       0.0       0.8       0.1
12 O  pz              1.4       1.3       0.6       0.5       0.2       0.2
12 O  px              0.4       0.5       2.9       0.0       1.1       0.0
12 O  py             17.5       0.2       2.6       1.6       3.4       0.9
13 O  s               0.0       0.3       0.1       0.6       0.1       0.8
13 O  pz              0.0       0.1       0.0       0.2       0.1       0.9
13 O  px              4.9       0.1       0.0       2.6       2.1       2.6
13 O  py              6.6       0.1       0.9       5.7       0.1       9.9
14 O  s               0.0       0.2       0.6       0.3       0.8       0.3
14 O  pz              0.0       4.8       0.5       1.3       0.3       1.8
14 O  px              0.3       8.1       1.1       1.1       1.2       2.1
14 O  py              0.9      12.2       0.1       0.0       3.7       6.8
14 O  dx2y2           0.0       0.1       0.0       0.0       0.0       0.0
15 O  s               0.5       0.2       0.0       0.1       0.3       0.5
15 O  pz              0.7       3.4       2.6       0.3       2.3       4.8
15 O  px              0.0       0.1       7.6       0.0       0.2       0.5
15 O  py              0.3       5.2       0.8       0.5       5.7       0.3
16 O  s               0.0       0.3       0.6       0.2       0.0       0.4
16 O  pz              0.1       0.1       1.2       4.3       0.2       0.4
16 O  px              0.1       0.1       0.1       1.3       0.9       0.6
16 O  py              0.0       4.3       5.0       8.4       2.7       8.0
17 H  s               0.1       0.4       0.9       0.1       0.3       0.9
18 H  s               0.1       0.2       1.5       4.9       0.0       0.2
19 H  s               5.5       0.3       1.2       0.5       0.6       0.4
20 H  s               3.3       0.0       0.2       2.2       0.1       3.5
21 H  s               0.3       7.0       0.0       0.0       0.1       3.3
22 H  s               0.0       1.8       2.2       0.0       1.7       1.5
23 H  s               0.0       1.3       1.7       3.8       0.8       2.6

                     30        31        32        33        34        35   
                  -0.41412  -0.40773  -0.39051  -0.37953  -0.36875  -0.36286
                   2.00000   2.00000   2.00000   2.00000   2.00000   2.00000
                  --------  --------  --------  --------  --------  --------
 0 C  s               0.1       0.4       0.1       0.2       0.2       0.1
 0 C  pz              0.3      17.0       4.7       2.5       1.7       7.7
 0 C  px              0.8       0.0       0.7       0.3       0.1       0.1
 0 C  py              0.0       2.2       0.3      21.2       4.7       3.3
 0 C  dz2             0.0       0.1       0.0       0.0       0.2       0.0
 0 C  dyz             0.0       0.0       0.0       0.1       0.0       0.1
 0 C  dx2y2           0.0       0.0       0.1       0.0       0.2       0.0
 1 C  s               0.0       0.2       0.0       0.0       0.7       0.2
 1 C  pz              0.2       0.0       0.2       0.0       7.7       1.7
 1 C  px              2.6       3.5       2.5       3.3       1.7       0.0
 1 C  py              0.1       2.6       0.2       0.4       3.5       0.0
 1 C  dz2             0.0       0.0       0.0       0.1       0.2       0.0
 1 C  dxz             0.0       0.1       0.0       0.1       0.0       0.0
 1 C  dyz             0.0       0.0       0.1       0.0       0.0       0.1
 1 C  dx2y2           0.1       0.0       0.0       0.1       0.0       0.0
 2 H  s               0.1       0.3       0.7       0.1       5.9       1.1
 3 C  s               0.1       0.1       0.2       0.5       0.3       0.7
 3 C  pz              6.4       7.2       0.3       1.9       1.3       1.9
 3 C  px              0.0       1.8       0.2       0.3       0.1       0.3
 3 C  py              2.5       0.2       2.1       0.2       0.1       3.6
 3 C  dz2             0.1       0.0       0.1       0.0       0.2       0.2
 3 C  dx2y2           0.0       0.0       0.0       0.0       0.1       0.0
 3 C  dxy             0.0       0.0       0.0       0.1       0.0       0.0
 4 H  s               2.9       2.8       0.7       0.7       2.8       4.4
 5 C  s               0.0       0.3       0.2       0.3       0.0       0.1
 5 C  pz              0.0       0.2       3.4       1.4       0.9      10.5
 5 C  px              2.2       0.3       1.8       0.8       0.4       0.2
 5 C  py              0.1       1.4       2.4       1.1       1.0       1.9
 5 C  dz2             0.0       0.0       0.1       0.1       0.0       0.1
 5 C  dyz             0.0       0.0       0.1       0.0       0.0       0.1
 5 C  dx2y2           0.2       0.0       0.1       0.0       0.0       0.0
 6 H  s               0.0       0.0       2.2       1.9       0.4       6.9
 7 C  s               0.7       0.1       0.1       0.0       0.3       0.1
 7 C  pz              5.5       6.1       0.1       1.0       2.4       4.2
 7 C  px              5.9       0.4       0.6       0.2       0.2       2.1
 7 C  py              3.6       2.2       8.1       0.6       1.9       1.0
 7 C  dyz             0.0       0.0       0.1       0.0       0.0       0.0
 7 C  dx2y2           0.3       0.1       0.0       0.0       0.0       0.0
 8 H  s               4.7       3.4       0.3       0.8       1.3       3.3
 9 C  s               0.8       0.1       0.1       0.2       0.5       0.2
 9 C  pz              0.3       0.2       0.5       0.1       0.1       0.4
 9 C  px              7.8       2.8       2.5       0.0       0.5       0.3
 9 C  py              3.1       1.1      15.1       0.6       0.2       0.1
 9 C  dz2             0.0       0.0       0.0       0.1       0.7       0.0
 9 C  dyz             0.0       0.1       0.0       0.0       0.0       0.1
 9 C  dxy             0.2       0.0       0.0       0.0       0.0       0.0
10 H  s               2.7       0.4       3.3       0.2       0.5       0.0
11 O  s               0.2       0.3       0.4       1.6       1.8       0.5
11 O  pz              1.6       1.8       1.8       4.1      15.5       1.0
11 O  px              2.0       0.0       3.4       0.8       4.1       0.6
11 O  py              7.6       2.3       1.4       0.6       1.0       1.0
12 O  s               0.1       0.1       1.0       1.3       3.0       0.6
12 O  pz              2.2       3.1       7.9       5.7       2.3       6.5
12 O  px              0.9       0.5       3.9       0.1       0.2       0.3
12 O  py              0.8       0.3       0.5       1.6       8.7       0.5
13 O  s               0.2       0.2       1.7       0.0       0.1       0.2
13 O  pz              7.1       0.5       1.6       0.1       0.4       1.9
13 O  px              2.1       4.1       2.3       0.6       2.8       1.0
13 O  py              0.2       0.6       3.1       0.1       0.1       0.0
14 O  s               0.8       0.3       0.0       1.3       0.1       0.1
14 O  pz              0.2       0.7       0.9       1.1       1.5       4.5
14 O  px              2.9       1.0       0.2       4.7       0.4       0.2
14 O  py              0.3       0.2       6.6       0.0       0.0       3.3
15 O  s               1.9       0.7       0.1       0.1       0.4       0.1
15 O  pz              4.3       1.9       0.1       0.8       1.1       0.2
15 O  px              5.0       1.8       1.3       0.2       0.9       3.1
15 O  py              0.8       4.2       0.0       2.8       0.3       0.1
16 O  s               0.0       0.1       0.0       1.8       0.3       0.5
16 O  pz              0.0       5.8       0.6       0.1       1.9       2.7
16 O  px              0.0       0.0       0.7      16.5       0.5       4.9
16 O  py              1.4       0.0       2.4       0.1       0.6       0.1
16 O  dx2y2           0.0       0.0       0.0       0.1       0.0       0.0
17 H  s               0.0       0.0       1.2      10.9       1.6       5.1
18 H  s               0.0       8.9       0.4       0.1       2.8       2.1
19 H  s               0.3       0.2       0.1       0.3       2.3       0.1
20 H  s               0.8       1.0       0.0       0.0       0.4       0.1
21 H  s               0.6       0.6       1.1       0.3       0.0       0.0
22 H  s               0.0       0.1       0.0       0.1       0.5       0.4
23 H  s               0.2       0.1       0.4       0.3       0.7       0.1

                     36        37        38        39        40        41   
                  -0.34611  -0.31901  -0.31553  -0.30542  -0.29693  -0.26650
                   2.00000   2.00000   2.00000   2.00000   2.00000   2.00000
                  --------  --------  --------  --------  --------  --------
 0 C  s               0.1       0.0       0.2       0.1       0.6       0.3
 0 C  pz              1.7       0.2       1.1       0.0       2.3       0.0
 0 C  px              0.3       0.4       0.1       0.4       2.0       0.9
 0 C  py              2.7       0.0       0.1       0.6       0.3       0.1
 0 C  dyz             0.0       0.0       0.0       0.0       0.2       0.0
[...]
 5 C  dx2y2           0.7       0.1       0.1       4.3       0.9       0.0
 5 C  dxy             0.4       0.0       0.1       1.3       0.4       0.0
 6 H  s               0.0       0.0       0.0       0.0       0.1       0.0
 7 C  s               0.9       0.0       0.1       0.1       1.6       0.0
 7 C  pz              0.3       0.0       0.1       0.1       0.8       0.0
 7 C  px              1.0       0.0       0.3       0.3       1.2       0.0
 7 C  py              0.0       0.0       0.0       0.1       0.3       0.0
 7 C  dz2             0.2       0.0       0.0       0.1       0.0       0.0
 7 C  dxz             2.4       0.0       0.6       0.3       3.5       0.1
 7 C  dyz             0.3       0.0       0.1       0.2       0.3       0.0
 7 C  dx2y2           1.4       0.0       0.0       1.6       2.7       0.1
 7 C  dxy             0.5       0.0       0.2       0.1       0.0       0.0
 9 C  s               1.4       0.0       0.0       0.6       0.7       1.8
 9 C  pz              1.6       0.1       0.0       1.0       0.2       0.8
 9 C  px              0.0       0.1       0.0       0.2       0.4       1.6
 9 C  py              0.3       0.0       0.0       0.2       0.3       0.1
 9 C  dz2             2.5       0.0       0.1       0.8       2.5       0.1
 9 C  dxz             0.6       0.2       0.1       1.0       0.0       3.6
 9 C  dyz             3.5       0.0       0.0       2.0       0.7       0.0
 9 C  dx2y2           0.2       0.1       0.1       0.1       0.2       1.6
 9 C  dxy             0.3       0.0       0.0       0.0       0.1       0.0
11 O  s               0.0       0.0       0.0       0.2       0.2       0.0
11 O  pz              0.1       0.0       0.0       0.0       0.0       0.3
11 O  px              0.0       0.2       0.3       0.0       0.2       5.5
11 O  py              0.0       0.1       0.0       0.0       0.0       0.5
11 O  dz2             0.6       0.7       0.2       0.4       0.1       6.0
11 O  dxz             0.4       1.1       1.8       0.3       1.3      37.8
11 O  dyz             0.0       0.1       0.1       0.0       0.2       1.5
11 O  dx2y2           0.0       0.5       1.1       0.8       0.9       0.6
11 O  dxy             0.8       2.0       0.2       1.4       0.7      14.1
12 O  s               1.9       0.0       0.1       1.5       1.0       0.0
12 O  pz              1.4       0.0       0.0       0.8       0.3       0.0
12 O  px              0.2       0.0       0.0       0.0       0.1       0.0
12 O  py              0.9       0.0       0.0       0.5       0.8       0.0
12 O  dz2            19.8       0.1       0.0       9.2       2.6       0.1
12 O  dxz             3.7       0.0       0.0       0.7       1.6       0.0
12 O  dyz            13.7       0.1       0.1       7.4       6.5       0.1
12 O  dx2y2           0.0       0.0       0.2       0.1       0.1       0.2
12 O  dxy             0.4       0.0       0.2       0.0       0.2       0.0
13 O  s               1.2       0.0       0.4       0.2       3.3       0.0
13 O  pz              0.4       0.0       0.0       0.0       0.4       0.0
13 O  px              1.1       0.0       0.3       0.3       1.7       0.0
13 O  py              0.2       0.0       0.0       0.1       0.3       0.0
13 O  dz2             0.0       0.0       0.1       0.0       0.4       0.0
13 O  dxz            15.6       0.1       2.1       2.3      14.9       0.3
13 O  dyz             0.4       0.0       0.0       0.2       0.5       0.0
13 O  dx2y2           9.8       0.1       2.5       2.6      13.2       0.2
13 O  dxy             0.1       0.0       0.0       1.0       0.5       0.0
14 O  s               0.2       0.0       0.1       2.2       2.5       0.1
14 O  pz              0.1       0.0       0.0       0.5       0.2       0.0
14 O  py              0.2       0.0       0.1       2.3       1.3       0.0
14 O  dz2             0.0       0.0       0.4       0.9       2.0       0.1
14 O  dxz             0.2       0.0       0.0       1.6       0.4       0.0
14 O  dyz             1.7       0.1       0.1      13.4       7.1       0.0
14 O  dx2y2           1.9       0.1       0.3      17.0       7.3       0.1
14 O  dxy             0.6       0.0       0.4       5.3       1.6       0.0
15 O  s               0.1       0.4       4.2       0.0       0.1       0.6
15 O  pz              0.0       0.0       0.3       0.0       0.0       0.0
15 O  px              0.0       0.3       1.8       0.0       0.0       0.1
15 O  py              0.0       0.2       1.8       0.0       0.1       0.3
15 O  dz2             0.3       1.6      15.8       0.1       0.4       1.0
15 O  dxz             0.0       0.0       0.0       0.2       0.1       0.0
15 O  dyz             0.0       0.0       0.0       0.1       0.0       0.1
15 O  dx2y2           0.1       0.0       0.1       0.0       0.0       0.3
15 O  dxy             0.9       3.8      35.1       1.1       0.7       2.4
16 O  s               0.0       3.2       0.3       0.0       0.0       0.4
16 O  pz              0.0       0.1       0.0       0.0       0.0       0.0
16 O  px              0.0       2.2       0.2       0.0       0.0       0.2
16 O  py              0.0       1.7       0.2       0.0       0.0       0.0
16 O  dz2             0.0      12.1       0.9       0.1       0.0       0.7
16 O  dxz             0.0       0.5       0.1       0.0       0.0       0.4
16 O  dx2y2           0.1      17.6       2.0       0.3       0.0       1.2
16 O  dxy             0.2      30.0       3.8       0.0       0.0       0.2
19 H  s               0.4       0.0       0.0       0.2       0.2       0.0
20 H  s               0.3       0.0       0.1       0.1       0.3       0.0
21 H  s               0.1       0.0       0.0       0.6       0.1       0.0
22 H  s               0.0       0.1       0.6       0.0       0.0       0.0
23 H  s               0.0       0.7       0.1       0.0       0.0       0.0



                      *****************************
                      * MAYER POPULATION ANALYSIS *
                      *****************************

  NA   - Mulliken gross atomic population
  ZA   - Total nuclear charge
  QA   - Mulliken gross atomic charge
  VA   - Mayer's total valence
  BVA  - Mayer's bonded valence
  FA   - Mayer's free valence

  ATOM       NA         ZA         QA         VA         BVA        FA
  0 C      5.9363     6.0000     0.0637     3.9900     3.9900     0.0000
  1 C      5.9408     6.0000     0.0592     4.0159     4.0159     0.0000
  2 H      0.9390     1.0000     0.0610     0.9805     0.9805     0.0000
  3 C      6.0597     6.0000    -0.0597     3.9817     3.9817     0.0000
  4 H      0.9109     1.0000     0.0891     0.9844     0.9844     0.0000
  5 C      5.9612     6.0000     0.0388     4.1433     4.1433     0.0000
  6 H      0.9517     1.0000     0.0483     0.9819     0.9819     0.0000
  7 C      5.9027     6.0000     0.0973     4.0308     4.0308     0.0000
  8 H      0.9266     1.0000     0.0734     0.9939     0.9939     0.0000
  9 C      5.8413     6.0000     0.1587     4.1155     4.1155     0.0000
 10 H      0.9203     1.0000     0.0797     0.9850     0.9850     0.0000
 11 O      8.3076     8.0000    -0.3076     2.1634     2.1634    -0.0000
 12 O      8.3961     8.0000    -0.3961     2.0398     2.0398     0.0000
 13 O      8.4109     8.0000    -0.4109     2.0311     2.0311     0.0000
 14 O      8.4190     8.0000    -0.4190     2.0233     2.0233     0.0000
 15 O      8.4159     8.0000    -0.4159     2.0410     2.0410     0.0000
 16 O      8.4417     8.0000    -0.4417     2.0216     2.0216     0.0000
 17 H      0.9133     1.0000     0.0867     0.9592     0.9592    -0.0000
 18 H      0.9296     1.0000     0.0704     0.9836     0.9836     0.0000
 19 H      0.6931     1.0000     0.3069     0.8895     0.8895    -0.0000
 20 H      0.6893     1.0000     0.3107     0.8807     0.8807    -0.0000
 21 H      0.6985     1.0000     0.3015     0.9114     0.9114     0.0000
 22 H      0.6920     1.0000     0.3080     0.8877     0.8877    -0.0000
 23 H      0.7023     1.0000     0.2977     0.9189     0.9189     0.0000

  Mayer bond orders larger than 0.100000
B(  0-C ,  1-C ) :   1.0506 B(  0-C , 16-O ) :   1.0760 B(  0-C , 17-H ) :   0.9198 
B(  0-C , 18-H ) :   0.9047 B(  1-C ,  2-H ) :   0.8787 B(  1-C ,  3-C ) :   0.9725 
B(  1-C , 11-O ) :   0.9757 B(  3-C ,  4-H ) :   0.8745 B(  3-C ,  5-C ) :   1.0376 
B(  3-C , 15-O ) :   0.9834 B(  5-C ,  6-H ) :   0.8525 B(  5-C ,  7-C ) :   1.0405 
B(  5-C , 14-O ) :   1.1097 B(  7-C ,  8-H ) :   0.8805 B(  7-C ,  9-C ) :   0.9869 
B(  7-C , 13-O ) :   1.0946 B(  9-C , 10-H ) :   0.8920 B(  9-C , 11-O ) :   1.0739 
B(  9-C , 12-O ) :   1.0970 B( 12-O , 19-H ) :   0.8350 B( 13-O , 20-H ) :   0.8451 
B( 14-O , 21-H ) :   0.8236 B( 15-O , 22-H ) :   0.8382 B( 16-O , 23-H ) :   0.8296 


-------
TIMINGS
-------

Total SCF time: 0 days 0 hours 0 min 7 sec 

Total time                  ....       7.131 sec
Sum of individual times     ....       7.059 sec  ( 99.0%)

SCF preparation             ....       0.199 sec  (  2.8%)
Fock matrix formation       ....       5.768 sec  ( 80.9%)
  Startup                   ....       0.008 sec  (  0.1% of F)
  Split-RI-J                ....       3.038 sec  ( 52.7% of F)
  XC integration            ....       2.624 sec  ( 45.5% of F)
    XC Preparation          ....       0.000 sec  (  0.0% of XC)
    Basis function eval.    ....       1.091 sec  ( 41.6% of XC)
    Density eval.           ....       0.598 sec  ( 22.8% of XC)
    XC-Functional eval.     ....       0.162 sec  (  6.2% of XC)
    XC-Potential eval.      ....       0.611 sec  ( 23.3% of XC)
Diagonalization             ....       0.000 sec  (  0.0%)
Density matrix formation    ....       0.031 sec  (  0.4%)
Total Energy calculation    ....       0.002 sec  (  0.0%)
Population analysis         ....       0.944 sec  ( 13.2%)
Orbital Transformation      ....       0.016 sec  (  0.2%)
Orbital Orthonormalization  ....       0.000 sec  (  0.0%)
DIIS solution               ....       0.078 sec  (  1.1%)
  MO trafo                  ....       0.000 sec  (  0.0 % of DIIS)
  Orb grad                  ....       0.000 sec  (  0.0 % of DIIS)
  Energy W gradient         ....       0.000 sec  (  0.0 % of DIIS)
  DIIS error                ....       0.006 sec  (  7.3 % of DIIS)
  DIIS work                 ....       0.063 sec  ( 80.7 % of DIIS)
  Form Q                    ....       0.000 sec  (  0.0 % of DIIS)
  Form QpQm                 ....       0.000 sec  (  0.0 % of DIIS)
  Exp/Cayley                ....       0.000 sec  (  0.0 % of DIIS)
  Orb update                ....       0.000 sec  (  0.0 % of DIIS)
  Wake-sleep                ....       0.001 sec  (  1.3 % of DIIS)
SOSCF solution              ....       0.021 sec  (  0.3%)
  MO trafo                  ....       0.013 sec  ( 62.7 % of SOSCF)
  Orb grad                  ....       0.000 sec  (  0.9 % of SOSCF)
  Rot update                ....       0.001 sec  (  6.9 % of SOSCF)
  Step                      ....       0.006 sec  ( 29.3 % of SOSCF)
Finished LeanSCF after   8.0 sec

Maximum memory used throughout the entire LEANSCF-calculation: 18.8 MB


-------------------------------------------------------------------------------
                          DFT DISPERSION CORRECTION                            
                                                                               
                                DFTD4 V3.4.0                                   
-------------------------------------------------------------------------------
The PBE functional is recognized
Active option DFTDOPT                   ...         5   

-------------------------   ----------------
Dispersion correction           -0.024723674
-------------------------   ----------------

------------------   -----------------
gCP correction             0.156900604
------------------   -----------------

-------------------------   --------------------
FINAL SINGLE POINT ENERGY      -685.694343703794
-------------------------   --------------------


------------------------------------------------------------------------------
                              ORCA PROPERTY CALCULATIONS
------------------------------------------------------------------------------

GBWName                                 ... sp.gbw
Number of atoms                         ...     24
Number of basis functions               ...    192
Max core memory                         ...   1024 MB

Electric properties:
Dipole moment                           ... YES
Quadrupole moment                       ...  NO
Static polarizability (Dipole/Dipole)   ...  NO
Static polarizability (Dipole/Quad.)    ...  NO
Static polarizability (Quad./Quad.)     ...  NO
Static polarizability (Velocity)        ...  NO

Atomic electric properties:
Dipole moment                           ...  NO
Quadrupole moment                       ...  NO
Static polarizability                   ...  NO

Choice of electric origin               ... Center of mass
Position of electric origin             ...    -0.000003    -0.000004     0.000001

General magnetic properties:
Magnetizability                         ...  NO

EPR properties:
g-Tensor (aka g-matrix)                 ...  NO
Zero-Field splitting spin-orbit         ...  NO
Zero-field splitting spin-spin          ...  NO
Hyperfine couplings                     ...  NO (   0 nuclei)
Quadrupole couplings                    ...  NO (   0 nuclei)
Contact density                         ...  NO (   0 nuclei)

NMR properties:
Chemical shifts                         ...  NO (   0 nuclei)
Spin-rotation constants                 ...  NO (   0 nuclei)
Spin-spin couplings                     ...  NO (   0 nuclei,    0 pairs)

Choice of magnetic origin               ... GIAO
Position of magnetic origin             ...     0.000000     0.000000     0.000000

Properties with geometric perturbations:
SCF Hessian                             ...  NO
IR spectrum                             ...  NO
VCD spectrum                            ...  NO
X-ray spectroscopy properties:
SCF XES/XAS/RIXS spectra                ...  NO


-------------
DIPOLE MOMENT
-------------

Method             : SCF
Type of density    : Electron Density
Multiplicity       :   1
Irrep              :   0
Energy             :  -685.8265206346661671 Eh
Relativity type    : 
Basis              : AO
                                X                 Y                 Z
Electronic contribution:      1.844182273       0.655189794       0.712836760
Nuclear contribution   :     -1.912166843      -0.307043744      -0.660149186
                        -----------------------------------------
Total Dipole Moment    :     -0.067984570       0.348146050       0.052687574
                        -----------------------------------------
Magnitude (a.u.)       :      0.358613377
Magnitude (Debye)      :      0.911522765



--------------------
Rotational spectrum 
--------------------
 
Rotational constants in cm-1:             0.043834             0.026470             0.018792 
Rotational constants in MHz :          1314.103332           793.557265           563.379766 

Dipole components along the rotational axes: 
x,y,z [a.u.] :    -0.023675     0.352561     0.061184 
x,y,z [Debye]:    -0.060176     0.896140     0.155518 

 

Dipole moment calculation done in   0.0 sec 

Maximum memory used throughout the entire PROP-calculation: 12.5 MB

--------------------------------
SUGGESTED CITATIONS FOR THIS RUN
--------------------------------

Below you find a list of papers that are relevant to this ORCA run
We neither can nor want to force you to cite these papers, but we appreciate if you do
You receive ORCA, which is the product of decades of hard work by many enthusiastic individuals, for free
The only thing we kindly ask in return is that you cite our papers,
We deeply appreciate it, if you show your appreciation for ORCA by not just citing the generic ORCA reference.

Please note that relegating all ORCA citations to the supporting information does *not* help us.
SI sections are not indexed - citations you put there will not count into any citation statistics
But we need these citations in order to attract the funding resources that allow us to do what we are doing

Therefore, if you are a happy ORCA user, please consider citing a few of the papers listed below in the main body of your paper

In addition to the list printed below, the program has created the file sp.bibtex that contains the list in bibtex format
You can import this file easily into all common literature databanks and citation aid programs


List of essential papers. We consider these as the minimum necessary citations

  1. Neese,F.
     Software update: the ORCA program system, version 5.0
     WIRES Comput. Molec. Sci., 2022 12(1)e1606
     doi.org/10.1002/wcms.1606

List of papers to cite with high priority. The work reported in these papers was absolutely
necessary for this run to complete.
Our perspective: the developers of density functionals and basis sets usually get cited in chemistry papers
Good! But without the algorithms to do something with them, the functionals or basis sets would not do anything.
Hence, in our opinion, the algorithm design and method developments papers are equally worthy of getting cited

  1. Neese,F.
     An improvement of the resolution of the identity approximation for the formation of the Coulomb matrix
     J. Comp. Chem., 2003 24(14)1740-1747
     doi.org/10.1002/jcc.10318
  2. Neese,F.
     The SHARK Integral Generation and Digestion System
     J. Comp. Chem., 2022  1-16
     doi.org/10.1002/jcc.26942
  3. Caldeweyher,E.; Bannwarth,C.; Grimme,S.
     Extension of the D3 dispersion coefficient model
     J. Chem. Phys., 2017 147 034112
     doi.org/10.1063/1.4993215
  4. Caldeweyher,E.; Ehlert,S.; Hansen,A.; Neugebauer,H.; Spicher,S.; Bannwarth,C.; Grimme,S.
     A generally applicable atomic-charge dependent London dispersion correction
     J. Chem. Phys., 2019 150 154122
     doi.org/10.1063/1.5090222
  5. Caldeweyher,E.; Mewes,J.; Ehlert,S.; Grimme,S.
     Extension and evaluation of the D4 London-dispersion model for periodic systems
     Phys. Chem. Chem. Phys., 2020 22(16)8499-8512
     doi.org/10.1039/D0CP00502A
  6. Wittmann,L.; Gordiy,I.; Friede,M.; Helmich-Paris,B.; Grimme,S.; Hansen,A.; Bursch,M.
     Extension of the D3 and D4 London Dispersion Corrections to the full Actinides Series
     Phys. Chem. Chem. Phys., 2024 26(32)21379-21394
     doi.org/https://doi.org/10.1039/D4CP01514B 

List of suggested additional citations. These are papers that are important in the 'surrounding' of 
of this run, or papers that preceded the highly important papers. If you like your results we are grateful for a citation.

  1. Neese,F.
     The ORCA program system
     WIRES Comput. Molec. Sci., 2012 2(1)73-78
     doi.org/10.1002/wcms.81
  2. Neese,F.
     Software update: the ORCA program system, version 4.0
     WIRES Comput. Molec. Sci., 2018 8(1)1-6
     doi.org/10.1002/wcms.1327
  3. Neese,F.; Wennmohs,F.; Becker,U.; Riplinger,C.
     The ORCA quantum chemistry program package
     J. Chem. Phys., 2020 152 Art. No. L224108
     doi.org/10.1063/5.0004608

List of optional additional citations

  1. Neese,F.
     Approximate second-order SCF convergence for spin unrestricted wavefunctions
     Chem. Phys. Lett., 2000 325(1-3)93-98
     doi.org/10.1016/s0009-2614(00)00662-x

Timings for individual modules:

Sum of individual times          ...        9.369 sec (=   0.156 min)
Startup calculation              ...        0.602 sec (=   0.010 min)   6.4 %
SCF iterations                   ...        8.701 sec (=   0.145 min)  92.9 %
Property calculations            ...        0.066 sec (=   0.001 min)   0.7 %
                             ****ORCA TERMINATED NORMALLY****
TOTAL RUN TIME: 0 days 0 hours 0 minutes 10 seconds 451 msec
