23
 energy: -276.285476622354 gnorm: 0.022094729256 xtb: 6.7.1 (edcfbbe)
C           -2.33950277123670       -1.01601673655022        0.40850798788102
C           -1.80824129610128        0.39624725867559        0.18885367738369
C           -0.56588726355076        0.49678549232014       -0.70324614741163
C            0.81181695815974        0.13083256605798       -0.11365344805036
C            1.86915456302827        0.58456785245904       -1.12956055480054
C            1.06193296717057        0.85894907738062        1.20854654273554
C            0.97327275533128       -1.37631407590988        0.09634717984269
H           -3.32709756337433       -0.97334195363131        0.86437645038303
H           -2.42446618367434       -1.54392594618415       -0.53876652663874
H           -1.69591642455151       -1.59243904590565        1.06549441347215
H           -2.59682406145072        0.97467421853190       -0.30115107523345
H           -1.61861414421725        0.87023670798563        1.15225690761060
H           -0.49963144182140        1.53645269908084       -1.03647124555929
H           -0.73081345112384       -0.11456506915077       -1.59427013160646
H            2.86805511257091        0.32908372664583       -0.78238333814669
H            1.70835307475702        0.10097223404474       -2.09081731772650
H            1.82643596680934        1.66167664283633       -1.27725922326599
H            2.09044040442633        0.70666964221314        1.52904350727756
H            0.40902923388125        0.48504186491493        1.99294802308313
H            0.89348724499593        1.92779911425426        1.09592450918563
H            0.36292644616082       -1.72981253426653        0.92111024490817
H            0.69346034450729       -1.92292617315210       -0.80120647355504
H            2.01083616249105       -1.60997332691342        0.32795309954532
23
 energy: -276.286257523894 gnorm: 0.005585984956 xtb: 6.7.1 (edcfbbe)
C           -2.34680211712311       -1.02042255143106        0.41453557641005
C           -1.81304938165158        0.39474474312698        0.18603172604010
C           -0.56500282208732        0.50568600805608       -0.70129741258993
C            0.81634130658480        0.13253436968456       -0.11659098200807
C            1.87441883388281        0.58513908524713       -1.13512156223408
C            1.06279979118043        0.86123845546886        1.20913636680903
C            0.97384683125373       -1.37878991254301        0.09659650625517
H           -3.33879994386369       -0.98802694421318        0.87271354858753
H           -2.43295822191431       -1.55670781173148       -0.53472072148794
H           -1.70287152414650       -1.60660120989505        1.07074760137041
H           -2.60238676804084        0.97988952090388       -0.29947601479238
H           -1.62985137181654        0.88185379296496        1.14900856824317
H           -0.49328277226190        1.54712176307053       -1.03885031136818
H           -0.72627048159291       -0.09822166826276       -1.60379073709978
H            2.87955982991073        0.32813766851082       -0.78879388579074
H            1.71417138884503        0.10063858678341       -2.10289805091861
H            1.83314952990122        1.66774390993028       -1.28597250464257
H            2.09456550401899        0.70694868967143        1.53770503926293
H            0.40545146063178        0.49169685439496        2.00019365128535
H            0.89810001523793        1.93761140930493        1.10163781770816
H            0.35959369352357       -1.74054736416066        0.92220460348528
H            0.69665389086254       -1.93331325756412       -0.80450250860472
H            2.01483028422871       -1.61767948464921        0.33408076838229
23
 energy: -276.286336787949 gnorm: 0.001105324716 xtb: 6.7.1 (edcfbbe)
C           -2.34856606675891       -1.02245911089794        0.41574945020139
C           -1.81609549832390        0.39382620182729        0.18504166180502
C           -0.56652721745087        0.50719400694025       -0.70087654043006
C            0.81691879691081        0.13333474263319       -0.11638390579250
C            1.87543888026616        0.58441650950226       -1.13629253786706
C            1.06695906340517        0.86253526732293        1.20960916353028
C            0.97436406043804       -1.37948864143365        0.09643348512819
H           -3.34191551600572       -0.99170333763856        0.87495931568385
H           -2.43655633149298       -1.56456837737418       -0.53265530203381
H           -1.70504103148835       -1.61099682321427        1.07307276645767
H           -2.60714155079947        0.97762181504084       -0.30169117943307
H           -1.63926457240175        0.88807946696837        1.14788575177426
H           -0.49426374016204        1.55190703698469       -1.03274391479720
H           -0.72561284046000       -0.08745887229047       -1.61251303111309
H            2.88344982202468        0.32732210230981       -0.79240961208634
H            1.71561038155069        0.09958418764440       -2.10625309505765
H            1.83626999478833        1.66860125956227       -1.29011298635932
H            2.09866911074483        0.70581327150371        1.54400286113158
H            0.40546872552120        0.49739260129862        2.00189917887627
H            0.90642439403876        1.94185711245452        1.10338661810674
H            0.35663263810071       -1.74458170730117        0.92027917401813
H            0.70111863900420       -1.93714029833034       -0.80657643176588
H            2.01586704164257       -1.62041334637302        0.33876626543980
23
 energy: -276.286355346072 gnorm: 0.001319978368 xtb: 6.7.1 (edcfbbe)
C           -2.34905832873397       -1.02437645504048        0.41700692194824
C           -1.81798595667074        0.39153466068036        0.18338954180929
C           -0.56627418603860        0.51056796599820       -0.69845972739308
C            0.81814865869192        0.13341650381891       -0.11632865559404
C            1.87543211376878        0.58350152895939       -1.13801312971408
C            1.06884684349943        0.86273036312966        1.20945333162095
C            0.97462543598312       -1.37961738688871        0.09685067147920
H           -3.34269320846004       -0.99327193168166        0.87605124530251
H           -2.43709175197477       -1.56877077168609       -0.53031710994670
H           -1.70562262613847       -1.61169535660628        1.07572941712074
H           -2.60985831508613        0.97178795814815       -0.30703064564832
H           -1.64627515060265        0.88915079562822        1.14576280934438
H           -0.49409132526483        1.55788350322796       -1.02344791090085
H           -0.72384517508095       -0.07765606749589       -1.61470522698779
H            2.88381476958573        0.32612647098141       -0.79510022724530
H            1.71496533395210        0.09800216462885       -2.10773539423358
H            1.83736844113032        1.66772004270721       -1.29308593477403
H            2.09932230762350        0.70130507622911        1.54577759977554
H            0.40408315576527        0.50230509280374        2.00149201244021
H            0.91432270561877        1.94302392451144        1.10187660785037
H            0.35339871240421       -1.74547617743810        0.91785381940849
H            0.70536576970667       -1.93690304217510       -0.80776151857054
H            2.01530905812717       -1.62061346277922        0.34331878984368
23
 energy: -276.286371980084 gnorm: 0.000793596015 xtb: 6.7.1 (edcfbbe)
C           -2.34652886584427       -1.02768418048843        0.41824554360051
C           -1.82048985691479        0.38904507641303        0.18169198049872
C           -0.56667671275414        0.51431425945126       -0.69572810444877
C            0.81802037014626        0.13404255143284       -0.11560223312518
C            1.87411198767098        0.58173616771430       -1.13928251330565
C            1.07279168766288        0.86303632196268        1.20925976139137
C            0.97291261898208       -1.37886485313092        0.09681608840056
H           -3.34055147411238       -0.99582852665149        0.87586834167458
H           -2.43314826983852       -1.57539076493745       -0.52692032628504
H           -1.70361295581595       -1.61125252200772        1.08026753707639
H           -2.61272322422500        0.96244222120259       -0.31639711922725
H           -1.65737426336405        0.89158067116013        1.14288960047139
H           -0.49407084874488        1.56547150918510       -1.00815374629847
H           -0.72226794017860       -0.06363399852927       -1.61849703627938
H            2.88245892097358        0.32393128056974       -0.79756226162801
H            1.71163416200659        0.09454224351019       -2.10742358729731
H            1.83696446464108        1.66536445730186       -1.29618882845755
H            2.10039322605016        0.69186477132549        1.54864798963894
H            0.40186939528268        0.51066021762031        1.99933111827357
H            0.92946713106865        1.94425545286128        1.09856286750119
H            0.34657268025172       -1.74535382006122        0.91304289022645
H            0.71054017491553       -1.93484595768659       -0.81021157203170
H            2.01191473076254       -1.61875672934962        0.34992104691833
23
 energy: -276.286375335195 gnorm: 0.000380058258 xtb: 6.7.1 (edcfbbe)
C           -2.34433629204073       -1.02887077256151        0.41911932747061
C           -1.82131449561174        0.38902409803571        0.18106152575453
C           -0.56656857582922        0.51697598535048       -0.69475383202484
C            0.81721409588370        0.13431254767804       -0.11569918233770
C            1.87333828197823        0.58099150189905       -1.13975890652126
C            1.07352521685332        0.86266456302426        1.20910628378082
C            0.97151212149937       -1.37846163418076        0.09644925388685
H           -3.33944463331017       -0.99916726521839        0.87450038149192
H           -2.42694666817789       -1.57848793803818       -0.52511553031262
H           -1.70140309817272       -1.60903949844274        1.08378637329236
H           -2.61430480494093        0.95890695919701       -0.31948692450911
H           -1.66166427101508        0.89352254112078        1.14153141150007
H           -0.49407331521720        1.56882095331052       -1.00393396367420
H           -0.72210801221975       -0.05814094434057       -1.61889297707544
H            2.88160172867610        0.32310163870768       -0.79795411850842
H            1.71020957904748        0.09300511395028       -2.10724600075611
H            1.83621453884877        1.66441958873828       -1.29743352559786
H            2.09946237082781        0.68539627787407        1.55021677971829
H            0.39940073429139        0.51500156085972        1.99829262586563
H            0.93713928029959        1.94451740792315        1.09736070580013
H            0.34373626998055       -1.74549910767944        0.91098613087376
H            0.71115072130342       -1.93385227282212       -0.81131303673794
H            2.00986597028353       -1.61846538826573        0.35175455297755
23
 energy: -276.286375335195 gnorm: 0.000380058258 xtb: 6.7.1 (edcfbbe)
C           -2.34433629204073       -1.02887077256151        0.41911932747061
C           -1.82131449561174        0.38902409803571        0.18106152575453
C           -0.56656857582922        0.51697598535048       -0.69475383202484
C            0.81721409588370        0.13431254767804       -0.11569918233770
C            1.87333828197823        0.58099150189905       -1.13975890652126
C            1.07352521685332        0.86266456302426        1.20910628378082
C            0.97151212149937       -1.37846163418076        0.09644925388685
H           -3.33944463331017       -0.99916726521839        0.87450038149192
H           -2.42694666817789       -1.57848793803818       -0.52511553031262
H           -1.70140309817272       -1.60903949844274        1.08378637329236
H           -2.61430480494093        0.95890695919701       -0.31948692450911
H           -1.66166427101508        0.89352254112078        1.14153141150007
H           -0.49407331521720        1.56882095331052       -1.00393396367420
H           -0.72210801221975       -0.05814094434057       -1.61889297707544
H            2.88160172867610        0.32310163870768       -0.79795411850842
H            1.71020957904748        0.09300511395028       -2.10724600075611
H            1.83621453884877        1.66441958873828       -1.29743352559786
H            2.09946237082781        0.68539627787407        1.55021677971829
H            0.39940073429139        0.51500156085972        1.99829262586563
H            0.93713928029959        1.94451740792315        1.09736070580013
H            0.34373626998055       -1.74549910767944        0.91098613087376
H            0.71115072130342       -1.93385227282212       -0.81131303673794
H            2.00986597028353       -1.61846538826573        0.35175455297755
