
                                 *****************
                                 * O   R   C   A *
                                 *****************

                                            #,                                       
                                            ###                                      
                                            ####                                     
                                            #####                                    
                                            ######                                   
                                           ########,                                 
                                     ,,################,,,,,                         
                               ,,#################################,,                 
                          ,,##########################################,,             
                       ,#########################################, ''#####,          
                    ,#############################################,,   '####,        
                  ,##################################################,,,,####,       
                ,###########''''           ''''###############################       
              ,#####''   ,,,,##########,,,,          '''####'''          '####       
            ,##' ,,,,###########################,,,                        '##       
           ' ,,###''''                  '''############,,,                           
         ,,##''                                '''############,,,,        ,,,,,,###''
      ,#''                                            '''#######################'''  
     '                                                          ''''####''''         
             ,#######,   #######,   ,#######,      ##                                
            ,#'     '#,  ##    ##  ,#'     '#,    #''#        ,####,   ,####,        
            ##       ##  ##   ,#'  ##            #'  '#       #'       #'  '#        
            ##       ##  #######   ##           ,######,      #####,   #    #        
            '#,     ,#'  ##    ##  '#,     ,#' ,#      #,     #,   #   #,  ,#        
             '#######'   ##     ##  '#######'  #'      '#     '####' # '####'        



                #########################################################
                #                        -***-                          #
                #          Department of theory and spectroscopy        #
                #                                                       #
                #                      Frank Neese                      #
                #                                                       #
                #     Directorship, Architecture, Infrastructure        #
                #                    SHARK, DRIVERS                     #
                #        Core code/Algorithms in most modules           #
                #                                                       #
                #        Max Planck Institute fuer Kohlenforschung      #
                #                Kaiser Wilhelm Platz 1                 #
                #                 D-45470 Muelheim/Ruhr                 #
                #                      Germany                          #
                #                                                       #
                #                  All rights reserved                  #
                #                        -***-                          #
                #########################################################


                         Program Version 6.0.1  -  RELEASE   -


 With contributions from (in alphabetic order):
[Max-Planck-Institut fuer Kohlenforschung]                               
  Daniel Aravena         : Magnetic Suceptibility                        
  Michael Atanasov       : Ab Initio Ligand Field Theory (pilot matlab implementation)
  Alexander A. Auer      : GIAO ZORA, VPT2 properties, NMR spectrum      
  Ute Becker             : All parallelization in ORCA, NUMFREQ, NUMCALC 
  Giovanni Bistoni       : ED, misc. LED, open-shell LED, HFLD           
  Martin Brehm           : Molecular dynamics                            
  Dmytro Bykov           : pre 5.0 version of the SCF Hessian            
  Marcos Casanova-Páez   : Triplet and SCS-CIS(D). UHF-(DLPNO)-IP/EA/STEOM-CCSD. UHF-CVS-IP/STEOM-CCSD   
  Vijay G. Chilkuri      : MRCI spin determinant printing, contributions to CSF-ICE 
  Pauline Colinet        : FMM embedding                                 
  Dipayan Datta          : RHF DLPNO-CCSD density                        
  Achintya Kumar Dutta   : EOM-CC, STEOM-CC                              
  Nicolas Foglia         : Exact transition moments, OPA infrastructure, MCD improvements    
  Dmitry Ganyushin       : Spin-Orbit,Spin-Spin,Magnetic field MRCI      
  Miquel Garcia-Rates    : C-PCM and meta-GGA Hessian, CCSD/C-PCM, Gaussian charge scheme 
  Tiago L. C. Gouveia    : GS-ROHF, GS-ROCIS                             
  Yang Guo               : DLPNO-NEVPT2, F12-NEVPT2, CIM, IAO-localization        
  Andreas Hansen         : Spin unrestricted coupled pair/coupled cluster methods 
  Ingolf Harden          : AUTO-CI MPn and infrastructure                
  Benjamin Helmich-Paris : MC-RPA, TRAH-(SCF,CASSCF), AVAS, COSX integrals, SCF dyn. polar. 
  Lee Huntington         : MR-EOM, pCC                                   
  Robert Izsak           : Overlap fitted RIJCOSX, COSX-SCS-MP3, EOM     
  Riya Kayal             : Wick's Theorem for AUTO-CI, AUTO-CI UHF-CCSDT 
  Emily Kempfer          : AUTO-CI, RHF CISDT and CCSDT                  
  Christian Kollmar      : KDIIS, OOCD, Brueckner-CCSD(T), CCSD density, CASPT2, CASPT2-K, improved NEVPT2 
  Axel Koslowski         : Symmetry handling                             
  Simone Kossmann        : meta-GGA functionals, TD-DFT gradient, OOMP2, (MP2 Hessian; deprecated post 5.0) 
  Lucas Lang             : DCDCAS                                        
  Marvin Lechner         : AUTO-CI (C++ implementation), FIC-MRCC        
  Spencer Leger          : CASSCF response                               
  Dagmar Lenk            : GEPOL surface, SMD, ORCA-2-JSON               
  Dimitrios Liakos       : Extrapolation schemes; Compound Job, initial MDCI parallelization 
  Dimitrios Manganas     : Further ROCIS development; embedding schemes. LFT, Crystal Embedding 
  Dimitrios Pantazis     : SARC Basis sets                               
  Anastasios Papadopoulos: AUTO-CI, single reference methods and gradients 
  Taras Petrenko         : pre 6.0 DFT Hessian and TD-DFT gradient, (ASA, deprecated), ECA, 1-Electron XAS/XES, NRVS 
  Peter Pinski           : DLPNO-MP2, DLPNO-MP2 Gradient                 
  Christoph Reimann      : Effective Core Potentials                     
  Marius Retegan         : Local ZFS, SOC                                
  Christoph Riplinger    : Optimizer, TS searches, QM/MM, DLPNO-CCSD(T), (RO)-DLPNO pert. Triples 
  Michael Roemelt        : Original ROCIS implementation                 
  Masaaki Saitow         : Open-shell DLPNO-CCSD energy and density      
  Barbara Sandhoefer     : DKH picture change effects                    
  Kantharuban Sivalingam : CASSCF convergence/infrastructure, NEVPT2 and variants, FIC-MRCI 
  Bernardo de Souza      : ESD, SOC TD-DFT                               
  Georgi L. Stoychev     : AutoAux, RI-MP2 NMR, DLPNO-MP2 response, X2C  
  Van Anh Tran           : RI-MP2 g-tensors                              
  Willem Van den Heuvel  : Paramagnetic NMR                              
  Zikuan Wang            : NOTCH, Electric field optimization            
  Frank Wennmohs         : Technical directorship and infrastructure     
  Hang Xu                : AUTO-CI-Response properties                   
                                                                         
[FACCTs GmbH]                                                            
  Markus Bursch, Miquel Garcia-Rates, Christoph Riplinger, Bernardo de Souza, Georgi L. Stoychev 
                                                                 
  APM, Basis sets (HGBS, AHGBS, def-TZVP (Ac-Lr), def2-XVPD (La-Lu)), CI-OPT, improved COSX, DLPNO-Multilevel,           
  DOCKER, DRACO, updates on ESD, GOAT, IRC, LR-CPCM, MBIS, meta-GGA TD-DFT gradient, ML-optimized integration grids, 
  MM, NACMEs, nearIR, NEB, NEB-TS, NL-DFT gradient (VV10), 2- and 3-layer-ONIOM, interface openCOSMO-RS, QMMM,   
  Crystal-QMMM, SF, symmetry and pop. for TD-DFT, r2SCAN hybrids, SOLVATOR                                   
                                                                         
[Other institutions]                                                     
  V. Asgeirsson          : NEB                                           
  Christoph Bannwarth    : sTDA-DFT, sTD-DFT, PBEh-3c, B97-3c, D3        
  Sebastian Ehlert       : rSCAN, r2SCAN, r2SCAN-3c, D4, dhf basis sets  
  Marvin Friede          : D4 for Fr, Ra, Ac-Lr                          
  Lars Goerigk           : TD-DFT with DH, B97 family of functionals     
  Stefan Grimme          : VdW corrections, initial TS optimization, DFT functionals, gCP, sTDA/sTD-DF 
  Waldemar Hujo          : DFT-NL                                        
  H. Jonsson             : NEB                                           
  Holger Kruse           : gCP                                           
  Marcel Mueller         : wB97X-3c, vDZP basis set                      
  Hagen Neugebauer       : wr2SCAN                                       
  Tobias Risthaus        : range-separated hybrid DFT                    
  Lukas Wittmann         : regularized MP2, r2SCAN double-hybrids, wr2SCAN        
                                                                         
We gratefully acknowledge several colleagues who have allowed us to      
interface, adapt or use parts of their codes:                            
  Ed Valeev, F. Pavosevic, A. Kumar             : LibInt (2-el integral package), F12 methods 
  Garnet Chan, S. Sharma, J. Yang, R. Olivares  : DMRG                   
  Ulf Ekstrom                                   : XCFun DFT Library      
  Mihaly Kallay                                 : mrcc  (arbitrary order and MRCC methods)
  Frank Weinhold                                : gennbo (NPA and NBO analysis)           
  Simon Mueller                                 : openCOSMO-RS                            
  Christopher J. Cramer and Donald G. Truhlar   : smd solvation model                     
  S Lehtola, MJT Oliveira, MAL Marques          : LibXC Library                           
  Liviu Ungur et al                             : ANISO software                          


 Your calculation uses the libint2 library for the computation of 2-el integrals
 For citations please refer to: http://libint.valeyev.net

 Your ORCA version has been built with support for libXC version: 6.2.2
 For citations please refer to: https://libxc.gitlab.io

 This ORCA versions uses:
   CBLAS   interface :  Fast vector & matrix operations
   LAPACKE interface :  Fast linear algebra routines
   SCALAPACK package :  Parallel linear algebra routines
   Shared memory     :  Shared parallel matrices
   BLAS/LAPACK       :  OpenBLAS 0.3.27  USE64BITINT DYNAMIC_ARCH NO_AFFINITY Zen SINGLE_THREADED
        Core in use  :  Zen
   Copyright (c) 2011-2014, The OpenBLAS Project


Your calculation utilizes the geometrical counterpoise correction gCP
Please cite in your paper:
H.Kruse, S. Grimme J.Chem.Phys., 136, (2012), 154101 
   

Your calculation utilizes the atom-pairwise dispersion correction
based on EEQ partial charges (D4)


================================================================================

----- Orbital basis set information -----
Your calculation utilizes the basis: def2-mTZVPP
   Stefan Grimme, Andreas Hansen, Sebastian Ehlert, and Jan-Michael Mewes 
   J. Chem. Phys. 154, 064103 (2021). DOI: 10.1063/5.0040021

----- AuxJ basis set information -----
Your calculation utilizes the auxiliary basis: def2/J
   F. Weigend, Phys. Chem. Chem. Phys. 8, 1057 (2006).

================================================================================
                                        WARNINGS
                       Please study these warnings very carefully!
================================================================================



WARNING: SCAN, rSCAN, or r2SCAN functional requested.
  ===> : libXC variant has now been activated.



================================================================================
                                       INPUT FILE
================================================================================
NAME = sp.inp
|  1> ! r2scan-3c def2/J RI DEFGRID2 scfconv6 printgap
|  2> %output
|  3>     printlevel normal
|  4> end
|  5> * xyz 0 1
|  6> C -1.1955935805 -1.2006372141 0.0091602861
|  7> C 0.184559119 -1.2030695796 0.0021962082
|  8> C 0.8712198742 4.77089e-05 -0.0006058686
|  9> C 0.1845458374 1.2031203129 0.0021395434
| 10> C -1.1956450262 1.2005683729 0.0091412493
| 11> C -1.9086123085 -3.70483e-05 0.0113317446
| 12> N -3.2843264726 3.75534e-05 -0.0543686485
| 13> Cl 2.6045759423 -6.784e-06 -0.0030713054
| 14> H -1.7341055477 -2.13702057 0.010926535
| 15> H 0.7277070985 -2.1350420045 0.0020962527
| 16> H 0.7275602232 2.1351621669 0.0021364123
| 17> H -1.7341307224 2.136963027 0.0109039172
| 18> H -3.7507056117 -0.8488826159 0.2192977875
| 19> H -3.7506497549 0.848625496 0.2206450387
| 20> *
| 21> 
| 22>                          ****END OF INPUT****
================================================================================

                       ****************************
                       * Single Point Calculation *
                       ****************************

---------------------------------
CARTESIAN COORDINATES (ANGSTROEM)
---------------------------------
  C     -1.195594   -1.200637    0.009160
  C      0.184559   -1.203070    0.002196
  C      0.871220    0.000048   -0.000606
  C      0.184546    1.203120    0.002140
  C     -1.195645    1.200568    0.009141
  C     -1.908612   -0.000037    0.011332
  N     -3.284326    0.000038   -0.054369
  Cl     2.604576   -0.000007   -0.003071
  H     -1.734106   -2.137021    0.010927
  H      0.727707   -2.135042    0.002096
  H      0.727560    2.135162    0.002136
  H     -1.734131    2.136963    0.010904
  H     -3.750706   -0.848883    0.219298
  H     -3.750650    0.848625    0.220645

----------------------------
CARTESIAN COORDINATES (A.U.)
----------------------------
  NO LB      ZA    FRAG     MASS         X           Y           Z
   0 C     6.0000    0    12.011   -2.259344   -2.268876    0.017310
   1 C     6.0000    0    12.011    0.348766   -2.273472    0.004150
   2 C     6.0000    0    12.011    1.646367    0.000090   -0.001145
   3 C     6.0000    0    12.011    0.348741    2.273568    0.004043
   4 C     6.0000    0    12.011   -2.259442    2.268745    0.017274
   5 C     6.0000    0    12.011   -3.606755   -0.000070    0.021414
   6 N     7.0000    0    14.007   -6.206478    0.000071   -0.102742
   7 Cl   17.0000    0    35.453    4.921935   -0.000013   -0.005804
   8 H     1.0000    0     1.008   -3.276985   -4.038384    0.020648
   9 H     1.0000    0     1.008    1.375167   -4.034645    0.003961
  10 H     1.0000    0     1.008    1.374890    4.034872    0.004037
  11 H     1.0000    0     1.008   -3.277032    4.038275    0.020605
  12 H     1.0000    0     1.008   -7.087806   -1.604156    0.414413
  13 H     1.0000    0     1.008   -7.087701    1.603670    0.416959

--------------------------------
INTERNAL COORDINATES (ANGSTROEM)
--------------------------------
 C      0   0   0     0.000000000000     0.00000000     0.00000000
 C      1   0   0     1.380172412679     0.00000000     0.00000000
 C      2   1   0     1.385280496598   119.61411556     0.00000000
 C      3   2   1     1.385248158489   120.56840141   359.93366919
 C      4   3   2     1.380210982513   119.61053592     0.06811028
 C      5   4   3     1.396345416190   120.80951405   359.89674190
 N      6   5   4     1.377282109273   120.65667120   183.51704391
 Cl     3   2   1     1.733357822311   119.71319002   179.76102276
 H      1   2   3     1.080190745961   119.80221680   179.97339736
 H      2   1   3     1.078694738283   120.33395904   179.80596152
 H      4   3   2     1.078687462059   120.05824989   179.86423314
 H      5   4   3     1.080187437548   119.79574657   180.02411792
 H      7   6   5     1.006512927600   116.73200070   197.47120981
 H      7   6   5     1.006574104618   116.72845511   338.98615102

---------------------------
INTERNAL COORDINATES (A.U.)
---------------------------
 C      0   0   0     0.000000000000     0.00000000     0.00000000
 C      1   0   0     2.608147877557     0.00000000     0.00000000
 C      2   1   0     2.617800757232   119.61411556     0.00000000
 C      3   2   1     2.617739647063   120.56840141   359.93366919
 C      4   3   2     2.608220763979   119.61053592     0.06811028
 C      5   4   3     2.638710424955   120.80951405   359.89674190
 N      6   5   4     2.602685995676   120.65667120   183.51704391
 Cl     3   2   1     3.275571576258   119.71319002   179.76102276
 H      1   2   3     2.041264682262   119.80221680   179.97339736
 H      2   1   3     2.038437637457   120.33395904   179.80596152
 H      4   3   2     2.038423887386   120.05824989   179.86423314
 H      5   4   3     2.041258430268   119.79574657   180.02411792
 H      7   6   5     1.902033783414   116.73200070   197.47120981
 H      7   6   5     1.902149391226   116.72845511   338.98615102

---------------------
BASIS SET INFORMATION
---------------------
There are 4 groups of distinct atoms

 Group   1 Type C   : 11s6p1d contracted to 5s3p1d pattern {62111/411/1}
 Group   2 Type N   : 11s6p2d contracted to 5s3p2d pattern {62111/411/11}
 Group   3 Type Cl  : 14s9p2d contracted to 5s4p2d pattern {73211/6111/11}
 Group   4 Type H   : 4s1p contracted to 2s1p pattern {31/1}

Atom   0C    basis set group =>   1
Atom   1C    basis set group =>   1
Atom   2C    basis set group =>   1
Atom   3C    basis set group =>   1
Atom   4C    basis set group =>   1
Atom   5C    basis set group =>   1
Atom   6N    basis set group =>   2
Atom   7Cl   basis set group =>   3
Atom   8H    basis set group =>   4
Atom   9H    basis set group =>   4
Atom  10H    basis set group =>   4
Atom  11H    basis set group =>   4
Atom  12H    basis set group =>   4
Atom  13H    basis set group =>   4
---------------------------------
AUXILIARY/J BASIS SET INFORMATION
---------------------------------
There are 4 groups of distinct atoms

 Group   1 Type C   : 12s5p4d2f1g contracted to 6s4p3d1f1g pattern {711111/2111/211/2/1}
 Group   2 Type N   : 12s5p4d2f1g contracted to 6s4p3d1f1g pattern {711111/2111/211/2/1}
 Group   3 Type Cl  : 14s5p5d2f1g contracted to 8s4p3d1f1g pattern {71111111/2111/311/2/1}
 Group   4 Type H   : 5s2p1d contracted to 3s1p1d pattern {311/2/1}

Atom   0C    basis set group =>   1
Atom   1C    basis set group =>   1
Atom   2C    basis set group =>   1
Atom   3C    basis set group =>   1
Atom   4C    basis set group =>   1
Atom   5C    basis set group =>   1
Atom   6N    basis set group =>   2
Atom   7Cl   basis set group =>   3
Atom   8H    basis set group =>   4
Atom   9H    basis set group =>   4
Atom  10H    basis set group =>   4
Atom  11H    basis set group =>   4
Atom  12H    basis set group =>   4
Atom  13H    basis set group =>   4

Checking for AutoStart:
The File: sp.gbw exists
Trying to determine its content:
     ... Fine, the file contains calculation information
     ... Fine, the calculation information was read
     ... Fine, the file contains a basis set
     ... Fine, the basis set was read
     ... Fine, the file contains a geometry
     ... Fine, the geometry was read
     ... Fine, the file contains a set of orbitals
     ... Fine, the orbitals can be read
     => possible old guess file was deleted
     => GBW file was renamed to GES file
     => GES file is set as startup file
     => Guess is set to MORead
     ... now leaving AutoStart

------------------------------------------------------------------------------
                             ORCA STARTUP CALCULATIONS
                           -- RI-GTO INTEGRALS CHOSEN --
------------------------------------------------------------------------------
------------------------------------------------------------------------------
                   ___                                                        
                  /   \      - P O W E R E D   B Y -                         
                 /     \                                                     
                 |  |  |   _    _      __       _____    __    __             
                 |  |  |  | |  | |    /  \     |  _  \  |  |  /  |          
                  \  \/   | |  | |   /    \    | | | |  |  | /  /          
                 / \  \   | |__| |  /  /\  \   | |_| |  |  |/  /          
                |  |  |   |  __  | /  /__\  \  |    /   |      \           
                |  |  |   | |  | | |   __   |  |    \   |  |\   \          
                \     /   | |  | | |  |  |  |  | |\  \  |  | \   \       
                 \___/    |_|  |_| |__|  |__|  |_| \__\ |__|  \__/        
                                                                              
                      - O R C A' S   B I G   F R I E N D -                    
                                      &                                       
                       - I N T E G R A L  F E E D E R -                       
                                                                              
 v1 FN, 2020, v2 2021, v3 2022-2024                                           
------------------------------------------------------------------------------


----------------------
SHARK INTEGRAL PACKAGE
----------------------

Number of atoms                             ...     14
Number of basis functions                   ...    195
Number of shells                            ...     93
Maximum angular momentum                    ...      2
Integral batch strategy                     ... SHARK/LIBINT Hybrid
RI-J (if used) integral strategy            ... SPLIT-RIJ (Revised 2003 algorithm where possible)
Printlevel                                  ...      1
Contraction scheme used                     ... SEGMENTED contraction
Prescreening option                         ... SCHWARTZ
   Thresh                                   ... 1.000e-10
   Tcut                                     ... 1.000e-11
   Tpresel                                  ... 1.000e-11 
Coulomb Range Separation                    ... NOT USED
Exchange Range Separation                   ... NOT USED
Multipole approximations                    ... NOT USED
Finite Nucleus Model                        ... NOT USED
CABS basis                                  ... NOT available
Auxiliary Coulomb fitting basis             ... AVAILABLE
   # of basis functions in Aux-J            ...    460
   # of shells in Aux-J                     ...    152
   Maximum angular momentum in Aux-J        ...      4
Auxiliary J/K fitting basis                 ... NOT available
Auxiliary Correlation fitting basis         ... NOT available
Auxiliary 'external' fitting basis          ... NOT available

Checking pre-screening integrals            ... done (  0.0 sec) Dimension = 93
Check shell pair data                       ... done (  0.0 sec)
Shell pair information
Shell pair cut-off parameter TPreSel        ...   1.0e-11
Total number of shell pairs                 ...      4371
Shell pairs after pre-screening             ...      3925
Total number of primitive shell pairs       ...     16865
Primitive shell pairs kept                  ...     10713
          la=0 lb=0:   1186 shell pairs
          la=1 lb=0:   1459 shell pairs
          la=1 lb=1:    462 shell pairs
          la=2 lb=0:    475 shell pairs
          la=2 lb=1:    289 shell pairs
          la=2 lb=2:     54 shell pairs

Calculating one electron integrals          ... done (  0.0 sec)
Calculating RI/J V-Matrix + Cholesky decomp.... done (  0.0 sec)
Calculating Nuclear repulsion               ... done (  0.2 sec) ENN=    396.772186804440 Eh

Diagonalization of the overlap matrix:
Smallest eigenvalue                        ... 2.969e-05
Time for diagonalization                   ...    0.003 sec
Threshold for overlap eigenvalues          ... 1.000e-07
Number of eigenvalues below threshold      ... 0
Time for construction of square roots      ...    0.004 sec
Total time needed                          ...    0.009 sec

-------------------
DFT GRID GENERATION
-------------------

General Integration Accuracy     IntAcc      ... 4.388
Radial Grid Type                 RadialGrid  ... OptM3 with GC (2021)
Angular Grid (max. ang.)         AngularGrid ... 4 (Lebedev-302)
Angular grid pruning method      GridPruning ... 4 (adaptive)
Weight generation scheme         WeightScheme... mBecke (2022)
Basis function cutoff            BFCut       ... 1.0000e-10
Integration weight cutoff        WCut        ... 1.0000e-14
Partially contracted basis set               ... off
Rotationally invariant grid construction     ... off
Angular grids for H and He will be reduced by one unit

Total number of grid points                  ...    68733
Total number of batches                      ...     1083
Average number of points per batch           ...       63
Average number of grid points per atom       ...     4910
Initializing property integral containers    ... done (  0.0 sec)

SHARK setup successfully completed in   0.9 seconds

Maximum memory used throughout the entire STARTUP-calculation: 32.7 MB
-------------------------------------------------------------------------------
                                 ORCA GUESS
                   Start orbitals & Density for SCF / CASSCF
-------------------------------------------------------------------------------

------------
SCF SETTINGS
------------
Hamiltonian:
 Density Functional     Method          .... DFT(GTOs)
  Functional kind                       .... Exchange
  Functional name                       .... Re-regularized SCAN exchange by Furness et al
  Functional family                     .... MGGA
  Functional refs                              
    [ 0] J. W. Furness, A. D. Kaplan, J. Ning, J. P. Perdew, and J. Sun.,  J. Phys. Chem. Lett. 11, 8208-8215 (2020), doi: 10.1021/acs.jpclett.0c02405
    [ 1] J. W. Furness, A. D. Kaplan, J. Ning, J. P. Perdew, and J. Sun.,  J. Phys. Chem. Lett. 11, 9248-9248 (2020), doi: 10.1021/acs.jpclett.0c03077
  Functional external parameters        .... 6
    Parameter  0 _c1        =  6.670000e-01 : c1 parameter        
    Parameter  1 _c2        =  8.000000e-01 : c2 parameter        
    Parameter  2 _d         =  1.240000e+00 : d parameter         
    Parameter  3 _k1        =  6.500000e-02 : k1 parameter        
    Parameter  4 _eta       =  1.000000e-03 : eta parameter       
    Parameter  5 _dp2       =  3.610000e-01 : dp2 parameter       
  Functional kind                       .... Correlation
  Functional name                       .... Re-regularized SCAN correlation by Furness et al
  Functional family                     .... MGGA
  Functional refs                              
    [ 0] J. W. Furness, A. D. Kaplan, J. Ning, J. P. Perdew, and J. Sun.,  J. Phys. Chem. Lett. 11, 8208-8215 (2020), doi: 10.1021/acs.jpclett.0c02405
    [ 1] J. W. Furness, A. D. Kaplan, J. Ning, J. P. Perdew, and J. Sun.,  J. Phys. Chem. Lett. 11, 9248-9248 (2020), doi: 10.1021/acs.jpclett.0c03077
  Functional external parameters        .... 1
    Parameter  0 _eta       =  1.000000e-03 : Regularization parameter
 Gradients option       PostSCFGGA      .... off
 RI-approximation to the Coulomb term is turned on
   Number of AuxJ basis functions       .... 460


General Settings:
 Integral files         IntName         .... sp
 Hartree-Fock type      HFTyp           .... RHF
 Total Charge           Charge          ....    0
 Multiplicity           Mult            ....    1
 Number of Electrons    NEL             ....   66
 Basis Dimension        Dim             ....  195
 Nuclear Repulsion      ENuc            ....    396.7721868044 Eh

Convergence Acceleration:
 AO-DIIS                CNVDIIS         .... on
   Start iteration      DIISMaxIt       ....    12
   Startup error        DIISStart       ....  0.200000
   # of expansion vecs  DIISMaxEq       ....     5
   Bias factor          DIISBfac        ....   1.050
   Max. coefficient     DIISMaxC        ....  10.000
 MO-DIIS                CNVKDIIS        .... off
 Trust-Rad. Augm. Hess. CNVTRAH         .... auto
   Auto Start mean grad. ratio tolernc. ....  1.125000
   Auto Start start iteration           ....     1
   Auto Start num. interpolation iter.  ....    10
   Max. Number of Micro iterations      ....    24
   Max. Number of Macro iterations      .... Maxiter - #DIIS iter
   Number of Davidson start vectors     ....     2
   Converg. threshold    (grad. norm)   ....   3.330e-04
   Grad. Scal. Fac. for Micro threshold ....   0.100
   Minimum threshold for Micro iter.    ....   1.000e-02
   NR start threshold (gradient norm)   ....   1.000e-04
   Initial trust radius                 ....   0.400
   Minimum AH scaling param. (alpha)    ....   1.000
   Maximum AH scaling param. (alpha)    .... 1000.000
   Quad. conv. algorithm                .... NR
   White noise on init. David. guess    .... on
   Maximum white noise                  ....   0.010
   Pseudo random numbers                .... off
   Inactive MOs                         .... canonical
   Orbital update algorithm             .... Taylor
   Preconditioner                       .... Diag
   Full preconditioner red. dimension   ....   250
   COSX micro iterations for RIJONX calc.... off
 SOSCF                  CNVSOSCF        .... on
   Start iteration      SOSCFMaxIt      ....   150
   Startup grad/error   SOSCFStart      ....  0.003300
   Hessian update       SOSCFHessUp     .... L-BFGS
 Level Shifting         CNVShift        .... on
   Level shift para.    LevelShift      ....    0.2500
   Turn off err/grad.   ShiftErr        ....    0.0010
 Zerner damping         CNVZerner       .... off
 Static damping         CNVDamp         .... on
   Fraction old density DampFac         ....    0.7000
   Max. Damping (<1)    DampMax         ....    0.9800
   Min. Damping (>=0)   DampMin         ....    0.0000
   Turn off err/grad.   DampErr         ....    0.1000

SCF Procedure:
 Maximum # iterations   MaxIter         ....   125
 SCF integral mode      SCFMode         .... Direct
   Integral package                     .... SHARK and LIBINT hybrid scheme
 Reset frequency        DirectResetFreq ....    20
 Integral Threshold     Thresh          ....  1.000e-10 Eh
 Primitive CutOff       TCut            ....  1.000e-11 Eh

Convergence Tolerance:
 Convergence Check Mode ConvCheckMode   .... Total+1el-Energy
 Convergence forced     ConvForced      .... 0
 Energy Change          TolE            ....  1.000e-06 Eh
 1-El. energy change                    ....  1.000e-03 Eh
 Orbital Gradient       TolG            ....  3.330e-04
 Orbital Rotation angle TolX            ....  3.330e-04
 DIIS Error             TolErr          ....  1.000e-06

---------------------
INITIAL GUESS: MOREAD
---------------------
Guess MOs are being read from file: sp.ges
Input Geometry matches current geometry (good)
Atom 0: N(Shells)= 9 and 6 - projection required
Input basis set needs projection
NBasis(read)= 128
NBasis(calc)= 195
Basis set overlap was calculated
Using GuessMode=FMatrix for the initial guess
C*T matrix was formed
Effective Fockian was calculated
Effective Fockian was diagonalized
Initial density was built
                      ------------------
                      INITIAL GUESS DONE (   0.0 sec)
                      ------------------
             **** ENERGY FILE WAS UPDATED (sp.en.tmp) ****
Finished Guess after   0.1 sec
Maximum memory used throughout the entire GUESS-calculation: 14.0 MB

-------------------------------------------------------------------------------------------
                                      ORCA LEAN-SCF
                              memory conserving SCF solver
-------------------------------------------------------------------------------------------

----------------------------------------D-I-I-S--------------------------------------------
Iteration    Energy (Eh)           Delta-E    RMSDP     MaxDP     DIISErr   Damp  Time(sec)
-------------------------------------------------------------------------------------------
               ***  Starting incremental Fock matrix formation  ***
    1    -746.9480918585700238     0.00e+00  1.35e-02  4.68e-01  5.37e-01  0.700   1.3
    2    -746.9964740319921930    -4.84e-02  1.01e-02  3.48e-01  3.76e-01  0.700   1.2
    3    -747.0307026293755825    -3.42e-02  7.24e-03  2.47e-01  2.63e-01  0.700   1.2
                               ***Turning on AO-DIIS***
    4    -747.0547475916941949    -2.40e-02  5.15e-03  1.74e-01  1.84e-01  0.700   1.2
    5    -747.0716160724016390    -1.69e-02  3.63e-03  1.22e-01  1.29e-01  0.700   1.2
    6    -747.0834536521331302    -1.18e-02  2.54e-03  8.57e-02  9.03e-02  0.700   1.2
    7    -747.0917540936466139    -8.30e-03  5.94e-03  2.00e-01  6.32e-02  0.000   1.2
                              *** Initializing SOSCF ***
---------------------------------------S-O-S-C-F--------------------------------------
Iteration    Energy (Eh)           Delta-E    RMSDP     MaxDP     MaxGrad    Time(sec)
--------------------------------------------------------------------------------------
    8    -747.1111612587376385    -1.94e-02  2.26e-05  4.99e-04  6.74e-04     1.2
               *** Restarting incremental Fock matrix formation ***
    9    -747.1111614523731532    -1.94e-07  2.52e-05  6.70e-04  1.47e-04     1.4
   10    -747.1111591677893102     2.28e-06  1.76e-05  4.47e-04  3.10e-04     1.1
   11    -747.1111622998635085    -3.13e-06  8.28e-06  1.91e-04  6.08e-05     1.2
                  *** Gradient check signals convergence ***

               *****************************************************
               *                     SUCCESS                       *
               *           SCF CONVERGED AFTER  11 CYCLES          *
               *****************************************************

             **** ENERGY FILE WAS UPDATED (sp.en.tmp) ****

----------------
TOTAL SCF ENERGY
----------------

Total Energy       :       -747.11116229986351 Eh          -20329.92828 eV

Components:
Nuclear Repulsion  :        396.77218680444031 Eh           10796.72010 eV
Electronic Energy  :      -1143.88334910430376 Eh          -31126.64838 eV
One Electron Energy:      -1809.60102344569145 Eh          -49241.74725 eV
Two Electron Energy:        665.71767434138769 Eh           18115.09887 eV

Virial components:
Potential Energy   :      -1492.05845813700012 Eh          -40600.97476 eV
Kinetic Energy     :        744.94729583713661 Eh           20271.04648 eV
Virial Ratio       :          2.00290472423327

DFT components:
N(Alpha)           :       32.999992012930 electrons
N(Beta)            :       32.999992012930 electrons
N(Total)           :       65.999984025860 electrons
E(X)               :      -67.621579515109 Eh       
E(C)               :       -2.252360998822 Eh       
E(XC)              :      -69.873940513931 Eh       

---------------
SCF CONVERGENCE
---------------

  Last Energy change         ...    3.1321e-06  Tolerance :   1.0000e-06
  Last MAX-Density change    ...    1.9082e-04  Tolerance :   1.0000e-05
  Last RMS-Density change    ...    8.2837e-06  Tolerance :   1.0000e-06
  Last DIIS Error            ...    6.7353e-04  Tolerance :   1.0000e-06
  Last Orbital Gradient      ...    6.0837e-05  Tolerance :   3.3300e-04
  Last Orbital Rotation      ...    3.0991e-04  Tolerance :   3.3300e-04


----------------
ORBITAL ENERGIES
----------------

  NO   OCC          E(Eh)            E(eV) 
   0   2.0000    -101.208164     -2754.0142 
   1   2.0000     -14.176883      -385.7726 
   2   2.0000     -10.084086      -274.4019 
   3   2.0000     -10.082925      -274.3703 
   4   2.0000     -10.043461      -273.2965 
   5   2.0000     -10.043453      -273.2963 
   6   2.0000     -10.038366      -273.1578 
   7   2.0000     -10.038357      -273.1576 
   8   2.0000      -9.364239      -254.8139 
   9   2.0000      -7.110359      -193.4827 
  10   2.0000      -7.100423      -193.2123 
  11   2.0000      -7.100177      -193.2056 
  12   2.0000      -0.901395       -24.5282 
  13   2.0000      -0.848576       -23.0909 
  14   2.0000      -0.787578       -21.4311 
  15   2.0000      -0.727458       -19.7951 
  16   2.0000      -0.683533       -18.5999 
  17   2.0000      -0.598156       -16.2767 
  18   2.0000      -0.569441       -15.4953 
  19   2.0000      -0.504539       -13.7292 
  20   2.0000      -0.496739       -13.5170 
  21   2.0000      -0.450618       -12.2619 
  22   2.0000      -0.417954       -11.3731 
  23   2.0000      -0.412230       -11.2173 
  24   2.0000      -0.399750       -10.8778 
  25   2.0000      -0.377559       -10.2739 
  26   2.0000      -0.352298        -9.5865 
  27   2.0000      -0.331165        -9.0114 
  28   2.0000      -0.326449        -8.8831 
  29   2.0000      -0.276130        -7.5139 
  30   2.0000      -0.269234        -7.3262 
  31   2.0000      -0.245346        -6.6762 
  32   2.0000      -0.186399        -5.0722 
  33   0.0000      -0.040065        -1.0902 
  34   0.0000      -0.019145        -0.5210 
  35   0.0000       0.022798         0.6204 
  36   0.0000       0.066981         1.8226 
  37   0.0000       0.103628         2.8199 
  38   0.0000       0.107605         2.9281 
  39   0.0000       0.116410         3.1677 
  40   0.0000       0.124494         3.3877 
  41   0.0000       0.152289         4.1440 
  42   0.0000       0.157024         4.2728 
  43   0.0000       0.166083         4.5193 
*Only the first 10 virtual orbitals were printed.

                    ********************************
                    * MULLIKEN POPULATION ANALYSIS *
                    ********************************

-----------------------
MULLIKEN ATOMIC CHARGES
-----------------------
   0 C :   -0.357032
   1 C :   -0.192617
   2 C :    0.156471
   3 C :   -0.192622
   4 C :   -0.356973
   5 C :    0.528409
   6 N :   -0.533667
   7 Cl:   -0.166216
   8 H :    0.140139
   9 H :    0.160379
  10 H :    0.160377
  11 H :    0.140146
  12 H :    0.256588
  13 H :    0.256620
Sum of atomic charges:    0.0000000

--------------------------------
MULLIKEN REDUCED ORBITAL CHARGES
--------------------------------
  0 C s       :     3.248179  s :     3.248179
      pz      :     1.064854  p :     3.072744
      px      :     1.017448
      py      :     0.990442
      dz2     :     0.003424  d :     0.036109
      dxz     :     0.005794
      dyz     :     0.003083
      dx2y2   :     0.010514
      dxy     :     0.013294

  1 C s       :     3.183130  s :     3.183130
      pz      :     0.992513  p :     2.971750
      px      :     0.991826
      py      :     0.987411
      dz2     :     0.003422  d :     0.037737
      dxz     :     0.006956
      dyz     :     0.003845
      dx2y2   :     0.010643
      dxy     :     0.012871

  2 C s       :     3.130954  s :     3.130954
      pz      :     1.061485  p :     2.658906
      px      :     0.712468
      py      :     0.884953
      dz2     :     0.003926  d :     0.053669
      dxz     :     0.007824
      dyz     :     0.007209
      dx2y2   :     0.018035
      dxy     :     0.016675

  3 C s       :     3.183154  s :     3.183154
      pz      :     0.992513  p :     2.971731
      px      :     0.991811
      py      :     0.987407
      dz2     :     0.003421  d :     0.037737
      dxz     :     0.006956
      dyz     :     0.003846
      dx2y2   :     0.010644
      dxy     :     0.012870

  4 C s       :     3.248102  s :     3.248102
      pz      :     1.064851  p :     3.072764
      px      :     1.017414
      py      :     0.990499
      dz2     :     0.003424  d :     0.036108
      dxz     :     0.005793
      dyz     :     0.003083
      dx2y2   :     0.010514
      dxy     :     0.013293

  5 C s       :     3.065377  s :     3.065377
      pz      :     0.928874  p :     2.341733
      px      :     0.794525
      py      :     0.618335
      dz2     :     0.004564  d :     0.064481
      dxz     :     0.016070
      dyz     :     0.006831
      dx2y2   :     0.020249
      dxy     :     0.016767

  6 N s       :     3.461668  s :     3.461668
      pz      :     1.720251  p :     4.025686
      px      :     1.061061
      py      :     1.244374
      dz2     :     0.003724  d :     0.046313
      dxz     :     0.012458
      dyz     :     0.006098
      dx2y2   :     0.007648
      dxy     :     0.016385

  7 Cls       :     5.943257  s :     5.943257
      pz      :     3.939535  p :    11.167112
      px      :     3.257851
      py      :     3.969726
      dz2     :     0.005513  d :     0.055848
      dxz     :     0.021640
      dyz     :     0.000511
      dx2y2   :     0.017181
      dxy     :     0.011004

  8 H s       :     0.840058  s :     0.840058
      pz      :     0.004614  p :     0.019803
      px      :     0.005113
      py      :     0.010076

  9 H s       :     0.819931  s :     0.819931
      pz      :     0.004128  p :     0.019689
      px      :     0.005548
      py      :     0.010013

 10 H s       :     0.819934  s :     0.819934
      pz      :     0.004128  p :     0.019690
      px      :     0.005547
      py      :     0.010015

 11 H s       :     0.840052  s :     0.840052
      pz      :     0.004614  p :     0.019803
      px      :     0.005113
      py      :     0.010076

 12 H s       :     0.710564  s :     0.710564
      pz      :     0.010937  p :     0.032848
      px      :     0.007397
      py      :     0.014514

 13 H s       :     0.710536  s :     0.710536
      pz      :     0.010944  p :     0.032843
      px      :     0.007395
      py      :     0.014505


------------------------
MULLIKEN OVERLAP CHARGES
------------------------
B(  0-C ,  1-C ) :   0.6511 B(  0-C ,  2-C ) :  -0.1762 B(  0-C ,  4-C ) :  -0.4375 
B(  0-C ,  5-C ) :   0.9329 B(  0-C ,  6-N ) :  -0.0683 B(  0-C ,  8-H ) :   0.7691 
B(  1-C ,  2-C ) :   1.0674 B(  1-C ,  3-C ) :  -0.1723 B(  1-C ,  5-C ) :  -0.0932 
B(  1-C ,  7-Cl) :  -0.1201 B(  1-C ,  9-H ) :   0.7785 B(  2-C ,  3-C ) :   1.0674 
B(  2-C ,  4-C ) :  -0.1762 B(  2-C ,  5-C ) :  -0.0593 B(  2-C ,  7-Cl) :   0.4453 
B(  3-C ,  4-C ) :   0.6510 B(  3-C ,  5-C ) :  -0.0930 B(  3-C ,  7-Cl) :  -0.1201 
B(  3-C , 10-H ) :   0.7785 B(  4-C ,  5-C ) :   0.9332 B(  4-C ,  6-N ) :  -0.0683 
B(  4-C , 11-H ) :   0.7691 B(  5-C ,  6-N ) :   0.4646 B(  5-C ,  8-H ) :  -0.0772 
B(  5-C , 11-H ) :  -0.0771 B(  5-C , 12-H ) :  -0.1303 B(  5-C , 13-H ) :  -0.1302 
B(  6-N , 12-H ) :   0.7409 B(  6-N , 13-H ) :   0.7409 


                     *******************************
                     * LOEWDIN POPULATION ANALYSIS *
                     *******************************

----------------------
LOEWDIN ATOMIC CHARGES
----------------------
   0 C :   -0.155137
   1 C :   -0.162361
   2 C :   -0.197748
   3 C :   -0.162360
   4 C :   -0.155124
   5 C :    0.123724
   6 N :   -0.602174
   7 Cl:    0.109374
   8 H :    0.171070
   9 H :    0.177663
  10 H :    0.177662
  11 H :    0.171074
  12 H :    0.252152
  13 H :    0.252187

-------------------------------
LOEWDIN REDUCED ORBITAL CHARGES
-------------------------------
  0 C s       :     2.889334  s :     2.889334
      pz      :     1.042120  p :     3.187519
      px      :     1.075364
      py      :     1.070034
      dz2     :     0.005650  d :     0.078285
      dxz     :     0.010276
      dyz     :     0.004983
      dx2y2   :     0.026236
      dxy     :     0.031139

  1 C s       :     2.902162  s :     2.902162
      pz      :     0.983102  p :     3.176991
      px      :     1.101905
      py      :     1.091984
      dz2     :     0.005926  d :     0.083209
      dxz     :     0.012888
      dyz     :     0.006642
      dx2y2   :     0.026236
      dxy     :     0.031517

  2 C s       :     2.891613  s :     2.891613
      pz      :     1.057768  p :     3.191259
      px      :     0.993895
      py      :     1.139596
      dz2     :     0.007721  d :     0.114875
      dxz     :     0.014241
      dyz     :     0.012852
      dx2y2   :     0.040712
      dxy     :     0.039350

  3 C s       :     2.902163  s :     2.902163
      pz      :     0.983101  p :     3.176989
      px      :     1.101892
      py      :     1.091995
      dz2     :     0.005926  d :     0.083208
      dxz     :     0.012887
      dyz     :     0.006643
      dx2y2   :     0.026238
      dxy     :     0.031514

  4 C s       :     2.889332  s :     2.889332
      pz      :     1.042115  p :     3.187510
      px      :     1.075351
      py      :     1.070044
      dz2     :     0.005650  d :     0.078282
      dxz     :     0.010275
      dyz     :     0.004983
      dx2y2   :     0.026238
      dxy     :     0.031136

  5 C s       :     2.785849  s :     2.785849
      pz      :     0.894051  p :     2.951484
      px      :     0.977663
      py      :     1.079769
      dz2     :     0.009190  d :     0.138943
      dxz     :     0.031290
      dyz     :     0.012051
      dx2y2   :     0.045332
      dxy     :     0.041080

  6 N s       :     3.154196  s :     3.154196
      pz      :     1.684810  p :     4.146588
      px      :     1.225485
      py      :     1.236294
      dz2     :     0.028488  d :     0.301390
      dxz     :     0.073019
      dyz     :     0.014027
      dx2y2   :     0.065236
      dxy     :     0.120619

  7 Cls       :     5.645530  s :     5.645530
      pz      :     3.911630  p :    11.129469
      px      :     3.299935
      py      :     3.917904
      dz2     :     0.014201  d :     0.115627
      dxz     :     0.037522
      dyz     :     0.000579
      dx2y2   :     0.040916
      dxy     :     0.022409

  8 H s       :     0.784100  s :     0.784100
      pz      :     0.010208  p :     0.044830
      px      :     0.011669
      py      :     0.022954

  9 H s       :     0.777238  s :     0.777238
      pz      :     0.009013  p :     0.045099
      px      :     0.012394
      py      :     0.023691

 10 H s       :     0.777238  s :     0.777238
      pz      :     0.009014  p :     0.045100
      px      :     0.012392
      py      :     0.023694

 11 H s       :     0.784096  s :     0.784096
      pz      :     0.010208  p :     0.044831
      px      :     0.011669
      py      :     0.022954

 12 H s       :     0.661051  s :     0.661051
      pz      :     0.028008  p :     0.086797
      px      :     0.020282
      py      :     0.038507

 13 H s       :     0.661031  s :     0.661031
      pz      :     0.028027  p :     0.086783
      px      :     0.020275
      py      :     0.038482


---------------------------------
LOEWDIN BOND ORDERS (THRESH 0.050000)
---------------------------------
B(  0-C ,  1-C ) :   1.5250 B(  0-C ,  2-C ) :   0.0983 B(  0-C ,  3-C ) :   0.1190 
B(  0-C ,  4-C ) :   0.0854 B(  0-C ,  5-C ) :   1.2940 B(  0-C ,  6-N ) :   0.2299 
B(  0-C ,  8-H ) :   0.8639 B(  0-C ,  9-H ) :   0.0553 B(  1-C ,  2-C ) :   1.4250 
B(  1-C ,  3-C ) :   0.0877 B(  1-C ,  4-C ) :   0.1190 B(  1-C ,  5-C ) :   0.0905 
B(  1-C ,  7-Cl) :   0.1540 B(  1-C ,  8-H ) :   0.0547 B(  1-C ,  9-H ) :   0.8669 
B(  2-C ,  3-C ) :   1.4251 B(  2-C ,  4-C ) :   0.0983 B(  2-C ,  5-C ) :   0.0951 
B(  2-C ,  7-Cl) :   1.4066 B(  2-C ,  9-H ) :   0.0526 B(  2-C , 10-H ) :   0.0526 
B(  3-C ,  4-C ) :   1.5249 B(  3-C ,  5-C ) :   0.0905 B(  3-C ,  7-Cl) :   0.1540 
B(  3-C , 10-H ) :   0.8669 B(  3-C , 11-H ) :   0.0547 B(  4-C ,  5-C ) :   1.2940 
B(  4-C ,  6-N ) :   0.2299 B(  4-C , 10-H ) :   0.0553 B(  4-C , 11-H ) :   0.8639 
B(  5-C ,  6-N ) :   1.4960 B(  5-C ,  8-H ) :   0.0529 B(  5-C , 11-H ) :   0.0529 
B(  6-N , 12-H ) :   0.9167 B(  6-N , 13-H ) :   0.9167 

------------------------------------------
LOEWDIN REDUCED ORBITAL POPULATIONS PER MO
-------------------------------------------
THRESHOLD FOR PRINTING IS 0.1%%
                      0         1         2         3         4         5   
                 -101.20816 -14.17688 -10.08409 -10.08293 -10.04346 -10.04345
                   2.00000   2.00000   2.00000   2.00000   2.00000   2.00000
                  --------  --------  --------  --------  --------  --------
 0 C  s               0.0       0.0       0.0       0.0       0.1       0.1
 1 C  s               0.0       0.0       0.0       0.0      50.3      49.0
 1 C  py              0.0       0.0       0.1       0.0       0.0       0.0
 2 C  s               0.0       0.0      99.5       0.0       0.0       0.1
 2 C  py              0.0       0.0       0.0       0.0       0.2       0.0
 3 C  s               0.0       0.0       0.0       0.0      49.0      50.3
 3 C  py              0.0       0.0       0.1       0.0       0.0       0.0
 4 C  s               0.0       0.0       0.0       0.0       0.1       0.1
 5 C  s               0.0       0.0       0.0      99.2       0.0       0.0
 6 N  s               0.0      99.8       0.0       0.0       0.0       0.0
 6 N  px              0.0       0.0       0.0       0.1       0.0       0.0
 6 N  dx2y2           0.0       0.0       0.0       0.2       0.0       0.0
 7 Cl s             100.0       0.0       0.0       0.0       0.0       0.0

                      6         7         8         9        10        11   
                 -10.03837 -10.03836  -9.36424  -7.11036  -7.10042  -7.10018
                   2.00000   2.00000   2.00000   2.00000   2.00000   2.00000
                  --------  --------  --------  --------  --------  --------
 0 C  s              86.2      13.1       0.0       0.0       0.0       0.0
 1 C  s               0.2       0.0       0.0       0.0       0.0       0.0
 1 C  px              0.1       0.0       0.0       0.0       0.0       0.0
 2 C  px              0.0       0.0       0.2       0.0       0.0       0.0
 3 C  s               0.0       0.2       0.0       0.0       0.0       0.0
 3 C  px              0.0       0.1       0.0       0.0       0.0       0.0
 4 C  s              13.1      86.3       0.0       0.0       0.0       0.0
 5 C  py              0.2       0.0       0.0       0.0       0.0       0.0
 7 Cl s               0.0       0.0      99.8       0.0       0.0       0.0
 7 Cl pz              0.0       0.0       0.0       0.0     100.0       0.0
 7 Cl px              0.0       0.0       0.0     100.0       0.0       0.0
 7 Cl py              0.0       0.0       0.0       0.0       0.0     100.0

                     12        13        14        15        16        17   
                  -0.90139  -0.84858  -0.78758  -0.72746  -0.68353  -0.59816
                   2.00000   2.00000   2.00000   2.00000   2.00000   2.00000
                  --------  --------  --------  --------  --------  --------
 0 C  s               4.0       2.3       7.3      14.2       3.4       5.3
 0 C  px              0.7       2.0       0.5       1.8       4.0       6.3
 0 C  py              1.8       0.2       0.7       0.6       1.3       0.1
 0 C  dx2y2           0.0       0.0       0.0       0.1       0.1       0.0
 1 C  s               1.2       8.7       3.5      14.1       4.6       6.5
 1 C  px              0.4       0.5       3.3       1.8       2.5       4.4
 1 C  py              0.2       2.8       0.1       0.6       1.2       0.2
 1 C  dx2y2           0.0       0.0       0.0       0.1       0.1       0.0
 2 C  s               1.0      23.5       0.2       0.0       8.4       0.0
 2 C  px              0.2       1.3      15.5       0.0       6.0       0.0
 2 C  py              0.0       0.0       0.0      10.5       0.0      14.3
 2 C  dz2             0.0       0.3       0.0       0.0       0.0       0.0
 2 C  dx2y2           0.0       0.1       0.2       0.0       0.3       0.0
 2 C  dxy             0.0       0.0       0.0       0.3       0.0       0.2
 3 C  s               1.2       8.7       3.5      14.1       4.6       6.5
 3 C  px              0.4       0.5       3.3       1.8       2.5       4.4
 3 C  py              0.2       2.8       0.1       0.6       1.2       0.2
 3 C  dx2y2           0.0       0.0       0.0       0.1       0.1       0.0
 4 C  s               4.0       2.3       7.3      14.2       3.4       5.3
 4 C  px              0.7       2.0       0.5       1.8       4.0       6.3
 4 C  py              1.8       0.2       0.7       0.6       1.3       0.1
 4 C  dx2y2           0.0       0.0       0.0       0.1       0.1       0.0
 5 C  s              18.0       0.1       3.1       0.0      10.1       0.0
 5 C  px              4.6       4.1       7.3       0.0       2.8       0.0
 5 C  py              0.0       0.0       0.0      10.3       0.0      16.2
 5 C  dz2             0.4       0.0       0.0       0.0       0.1       0.0
 5 C  dx2y2           0.3       0.1       0.1       0.0       0.2       0.0
 5 C  dxy             0.0       0.0       0.0       0.2       0.0       0.1
 6 N  s              40.1       4.0       5.3       0.0       4.3       0.0
 6 N  pz              0.4       0.1       0.1       0.0       0.2       0.0
 6 N  px              1.7       0.1       1.1       0.0       6.9       0.0
 6 N  py              0.0       0.0       0.0       0.5       0.0       6.2
 6 N  dz2             0.4       0.0       0.1       0.0       0.2       0.0
 6 N  dx2y2           0.3       0.0       0.3       0.0       1.0       0.0
 6 N  dxy             0.0       0.0       0.0       0.4       0.0       0.7
 7 Cl s               0.2      26.1      30.0       0.0      14.0       0.0
 7 Cl px              0.1       2.3       0.3       0.0       1.8       0.0
 7 Cl py              0.0       0.0       0.0       0.1       0.0       0.6
 7 Cl dz2             0.0       0.2       0.0       0.0       0.1       0.0
 7 Cl dx2y2           0.0       0.4       0.1       0.0       0.2       0.0
 7 Cl dxy             0.0       0.0       0.0       0.0       0.0       0.2
 8 H  s               0.4       0.2       0.7       2.5       0.7       3.1
 8 H  py              0.0       0.0       0.0       0.2       0.1       0.2
 9 H  s               0.1       0.8       0.3       2.4       0.9       3.2
 9 H  py              0.0       0.0       0.0       0.2       0.1       0.2
10 H  s               0.1       0.8       0.3       2.4       0.9       3.2
10 H  py              0.0       0.0       0.0       0.2       0.1       0.2
11 H  s               0.4       0.2       0.7       2.5       0.7       3.1
11 H  py              0.0       0.0       0.0       0.2       0.1       0.2
12 H  s               6.5       0.7       1.3       0.0       2.2       1.1
12 H  px              0.3       0.0       0.0       0.0       0.0       0.0
12 H  py              0.6       0.1       0.2       0.0       0.3       0.0
13 H  s               6.5       0.7       1.3       0.0       2.2       1.1
13 H  px              0.3       0.0       0.0       0.0       0.0       0.0
13 H  py              0.6       0.1       0.2       0.0       0.3       0.0

                     18        19        20        21        22        23   
                  -0.56944  -0.50454  -0.49674  -0.45062  -0.41795  -0.41223
                   2.00000   2.00000   2.00000   2.00000   2.00000   2.00000
                  --------  --------  --------  --------  --------  --------
 0 C  s               3.4       0.1       1.5       2.1       0.4       0.2
 0 C  pz              0.0       0.0       0.0       0.0       0.0       0.1
 0 C  px              2.9       0.7       1.8       5.5       7.5       0.2
 0 C  py              6.3       6.8       1.2       3.1       3.0       7.6
 0 C  dx2y2           0.1       0.1       0.0       0.2       0.1       0.1
 0 C  dxy             0.0       0.0       0.0       0.1       0.0       0.4
 1 C  s               1.4       1.4       0.2       2.0       0.2       0.3
 1 C  px              4.7       2.4       6.5       0.4       4.9       2.6
 1 C  py              7.1       7.3       0.4       0.5       6.7       9.3
 1 C  dx2y2           0.2       0.0       0.1       0.0       0.0       0.0
 1 C  dxy             0.0       0.0       0.0       0.2       0.1       0.3
 2 C  s               7.0       0.1       0.0       3.4       0.0       1.1
 2 C  px              0.1       2.2       0.0       7.7       0.0       7.6
 2 C  py              0.0       0.0       7.1       0.0      12.6       0.0
 2 C  dx2y2           0.0       0.1       0.0       0.1       0.0       0.0
 3 C  s               1.4       1.4       0.2       2.0       0.2       0.3
 3 C  px              4.7       2.4       6.5       0.4       4.8       2.6
 3 C  py              7.1       7.3       0.4       0.5       6.7       9.3
 3 C  dx2y2           0.2       0.0       0.1       0.0       0.0       0.0
 3 C  dxy             0.0       0.0       0.0       0.2       0.1       0.3
 4 C  s               3.4       0.1       1.5       2.1       0.4       0.2
 4 C  pz              0.0       0.0       0.0       0.0       0.0       0.1
 4 C  px              2.9       0.7       1.8       5.5       7.5       0.2
 4 C  py              6.3       6.8       1.2       3.1       3.0       7.6
 4 C  dx2y2           0.1       0.1       0.0       0.2       0.1       0.1
 4 C  dxy             0.0       0.0       0.0       0.1       0.0       0.4
 5 C  s               5.5       0.2       0.0       0.5       0.0       2.1
 5 C  pz              0.0       0.2       0.0       0.2       0.0       0.5
 5 C  px              0.6      14.4       0.0       2.9       0.0       8.9
 5 C  py              0.0       0.0       2.4       0.0      10.1       0.0
 5 C  dx2y2           0.0       0.0       0.0       0.7       0.0       0.1
 5 C  dxy             0.0       0.0       0.4       0.0       0.6       0.0
 6 N  s               0.7       0.2       0.0       0.3       0.0       0.1
 6 N  pz              0.3       0.6       0.0       0.4       0.0       0.6
 6 N  px             11.7      20.7       0.0       8.0       0.0       4.7
 6 N  py              0.0       0.0      41.1       0.0      12.5       0.0
 6 N  dz2             0.0       0.0       0.0       0.2       0.0       0.0
 6 N  dyz             0.0       0.0       0.3       0.0       0.1       0.0
 6 N  dx2y2           0.7       0.2       0.0       0.1       0.0       0.4
 6 N  dxy             0.0       0.0       0.4       0.0       3.2       0.0
 7 Cl s               4.4       1.3       0.0       4.7       0.0       1.0
 7 Cl px              3.8       2.3       0.0      23.5       0.0       6.2
 7 Cl py              0.0       0.0       1.0       0.0       3.4       0.0
 7 Cl dz2             0.1       0.0       0.0       0.2       0.0       0.0
 7 Cl dx2y2           0.4       0.1       0.0       0.7       0.0       0.0
 7 Cl dxy             0.0       0.0       0.2       0.0       0.4       0.0
 8 H  s               2.5       1.8       0.6       6.6       0.1       4.0
 8 H  px              0.1       0.0       0.1       0.0       0.0       0.1
 8 H  py              0.1       0.1       0.0       0.2       0.1       0.1
 9 H  s               1.3       4.9       0.5       1.3       1.0       7.2
 9 H  px              0.1       0.1       0.0       0.0       0.1       0.0
 9 H  py              0.0       0.2       0.1       0.0       0.0       0.1
10 H  s               1.3       4.9       0.4       1.3       1.0       7.2
10 H  px              0.1       0.1       0.0       0.0       0.1       0.0
10 H  py              0.0       0.2       0.1       0.0       0.0       0.1
11 H  s               2.5       1.8       0.6       6.6       0.1       4.0
11 H  px              0.1       0.0       0.1       0.0       0.0       0.1
11 H  py              0.1       0.1       0.0       0.2       0.1       0.1
12 H  s               1.8       2.5      10.0       0.8       4.3       0.5
12 H  px              0.0       0.0       0.3       0.0       0.1       0.0
12 H  py              0.2       0.2       0.1       0.0       0.0       0.0
13 H  s               1.8       2.5      10.0       0.8       4.3       0.5
13 H  px              0.0       0.0       0.3       0.0       0.1       0.0
13 H  py              0.2       0.2       0.1       0.0       0.0       0.0

                     24        25        26        27        28        29   
                  -0.39975  -0.37756  -0.35230  -0.33116  -0.32645  -0.27613
                   2.00000   2.00000   2.00000   2.00000   2.00000   2.00000
                  --------  --------  --------  --------  --------  --------
 0 C  s               0.3       0.0       0.2       0.0       0.1       0.1
 0 C  pz              0.0      11.4       0.1       2.0       0.0       0.0
 0 C  px              7.7       0.1      10.2       0.4       0.7       0.5
 0 C  py              9.7       0.1       0.1       0.0      10.4       0.3
 0 C  dx2y2           0.2       0.0       0.2       0.0       0.0       0.0
 0 C  dxy             0.0       0.0       0.0       0.0       0.8       0.1
 1 C  s               0.5       0.0       0.1       0.0       0.1       0.5
 1 C  pz              0.0      10.4       0.7       2.1       0.0       0.0
 1 C  px              7.3       0.1      10.7       0.5       0.3       1.8
 1 C  py              8.6       0.0       0.1       0.0       8.2       1.2
 1 C  dx2y2           0.2       0.0       0.4       0.0       0.1       0.0
 1 C  dxy             0.0       0.0       0.0       0.0       0.7       0.0
 2 C  s               0.0       0.0       0.2       0.0       0.0       0.0
 2 C  pz              0.0      15.7       1.8      16.0       0.0       0.0
 2 C  px              0.0       0.6       8.1       0.1       0.0       0.0
 2 C  py              0.8       0.0       0.0       0.0       8.1       3.3
 2 C  dx2y2           0.0       0.0       1.1       0.0       0.0       0.0
 2 C  dxy             0.5       0.0       0.0       0.0       0.1       0.9
 3 C  s               0.5       0.0       0.1       0.0       0.1       0.5
 3 C  pz              0.0      10.4       0.7       2.1       0.0       0.0
 3 C  px              7.3       0.1      10.7       0.5       0.3       1.8
 3 C  py              8.6       0.0       0.1       0.0       8.2       1.2
 3 C  dx2y2           0.2       0.0       0.4       0.0       0.1       0.0
 3 C  dxy             0.0       0.0       0.0       0.0       0.7       0.0
 4 C  s               0.3       0.0       0.2       0.0       0.1       0.1
 4 C  pz              0.0      11.4       0.1       2.0       0.0       0.0
 4 C  px              7.7       0.1      10.2       0.4       0.7       0.5
 4 C  py              9.7       0.1       0.1       0.0      10.4       0.3
 4 C  dx2y2           0.2       0.0       0.2       0.0       0.0       0.0
 4 C  dxy             0.0       0.0       0.0       0.0       0.8       0.1
 5 C  s               0.0       0.0       0.3       0.0       0.0       0.0
 5 C  pz              0.0      18.8       0.1      15.1       0.0       0.0
 5 C  px              0.0       0.2       2.1       0.6       0.0       0.0
 5 C  py              0.9       0.0       0.0       0.0      13.6       0.2
 5 C  dx2y2           0.0       0.0       0.8       0.0       0.0       0.0
 5 C  dxy             0.3       0.0       0.0       0.0       0.4       0.0
 6 N  s               0.0       0.3       0.7       0.4       0.0       0.0
 6 N  pz              0.0       9.3       0.6      20.1       0.0       0.0
 6 N  px              0.0       0.4       3.4       1.4       0.0       0.0
 6 N  py              0.8       0.0       0.0       0.0       0.7       0.0
 6 N  dz2             0.0       0.0       0.3       0.1       0.0       0.0
 6 N  dxz             0.0       0.8       0.0       0.6       0.0       0.0
 6 N  dxy             0.2       0.0       0.0       0.0       1.3       0.0
 7 Cl s               0.0       0.1       0.6       0.0       0.0       0.0
 7 Cl pz              0.0       6.8       1.6      32.4       0.0       0.0
 7 Cl px              0.0       1.2      23.0       0.5       0.0       0.0
 7 Cl py              0.8       0.0       0.0       0.0       5.0      85.0
 7 Cl dxz             0.0       0.3       0.0       0.5       0.0       0.0
 7 Cl dx2y2           0.0       0.0       0.1       0.0       0.0       0.0
 7 Cl dxy             0.0       0.0       0.0       0.0       0.2       0.1
 8 H  s               7.2       0.1       2.0       0.1       6.1       0.6
 8 H  py              0.1       0.0       0.1       0.0       0.0       0.0
 9 H  s               5.7       0.0       2.0       0.1       7.1       0.0
10 H  s               5.7       0.0       2.0       0.1       7.1       0.0
11 H  s               7.2       0.1       2.0       0.1       6.1       0.6
11 H  py              0.1       0.0       0.1       0.0       0.0       0.0
12 H  s               0.2       0.0       0.3       0.0       0.5       0.0
12 H  pz              0.0       0.1       0.0       0.2       0.0       0.0
13 H  s               0.2       0.0       0.3       0.0       0.5       0.0
13 H  pz              0.0       0.1       0.0       0.2       0.0       0.0

                     30        31        32        33        34        35   
                  -0.26923  -0.24535  -0.18640  -0.04006  -0.01914   0.02280
                   2.00000   2.00000   2.00000   0.00000   0.00000   0.00000
                  --------  --------  --------  --------  --------  --------
 0 C  s               0.0       0.0       0.0       0.0       0.0       0.9
 0 C  pz              3.7      24.2      10.5      22.3       4.1       0.0
 0 C  px              0.0       0.0       0.0       0.0       0.0       0.5
 0 C  py              0.0       0.0       0.0       0.0       0.0       0.6
 0 C  dxz             0.1       0.2       0.1       0.5       0.6       0.0
 0 C  dyz             0.0       0.0       0.1       0.0       0.6       0.0
 0 C  dxy             0.0       0.0       0.0       0.0       0.0       0.4
 1 C  pz              8.7      24.2       3.0      22.8       8.3       0.0
 1 C  px              0.0       0.0       0.0       0.0       0.0       0.1
 1 C  py              0.0       0.0       0.0       0.0       0.0       1.9
 1 C  dxz             0.0       0.2       0.3       0.5       0.4       0.0
 1 C  dyz             0.0       0.0       0.1       0.0       0.6       0.0
 1 C  dx2y2           0.0       0.0       0.0       0.0       0.0       0.8
 1 C  dxy             0.0       0.0       0.0       0.0       0.0       0.9
 2 C  s               0.0       0.0       0.0       0.0       0.0       7.8
 2 C  pz              1.8       0.0      17.6       0.0      26.4       0.0
 2 C  px              0.0       0.0       0.0       0.0       0.0      19.7
 2 C  dz2             0.0       0.0       0.0       0.0       0.0       0.7
 2 C  dxz             0.5       0.0       0.1       0.0       0.1       0.0
 2 C  dyz             0.0       0.6       0.0       1.5       0.0       0.0
 2 C  dx2y2           0.0       0.0       0.0       0.0       0.0       1.1
 3 C  pz              8.7      24.2       3.0      22.8       8.4       0.0
 3 C  px              0.0       0.0       0.0       0.0       0.0       0.1
 3 C  py              0.0       0.0       0.0       0.0       0.0       1.9
 3 C  dxz             0.0       0.2       0.3       0.5       0.4       0.0
 3 C  dyz             0.0       0.0       0.1       0.0       0.6       0.0
 3 C  dx2y2           0.0       0.0       0.0       0.0       0.0       0.8
 3 C  dxy             0.0       0.0       0.0       0.0       0.0       0.9
 4 C  s               0.0       0.0       0.0       0.0       0.0       0.9
 4 C  pz              3.7      24.2      10.5      22.3       4.1       0.0
 4 C  px              0.0       0.0       0.0       0.0       0.0       0.5
 4 C  py              0.0       0.0       0.0       0.0       0.0       0.6
 4 C  dxz             0.1       0.2       0.1       0.5       0.6       0.0
 4 C  dyz             0.0       0.0       0.1       0.0       0.6       0.0
 4 C  dxy             0.0       0.0       0.0       0.0       0.0       0.4
 5 C  s               0.0       0.0       0.0       0.0       0.0       0.3
 5 C  pz              0.8       0.0       9.0       0.0      25.9       0.0
 5 C  px              0.1       0.0       0.1       0.0       0.0       0.1
 5 C  dxz             0.5       0.0       0.9       0.0       0.0       0.0
 5 C  dyz             0.0       0.6       0.0       1.4       0.0       0.0
 6 N  s               0.7       0.0       0.8       0.0       0.3       0.0
 6 N  pz             25.1       0.0      26.4       0.0       5.1       0.0
 6 N  px              0.6       0.0       0.5       0.0       0.2       0.2
 6 N  dxz             0.0       0.0       2.1       0.0       4.7       0.0
 6 N  dyz             0.0       0.2       0.0       1.7       0.0       0.0
 6 N  dx2y2           0.0       0.0       0.0       0.0       0.0       0.8
 7 Cl s               0.0       0.0       0.0       0.0       0.0       4.5
 7 Cl pz             43.3       0.0      11.4       0.0       2.5       0.0
 7 Cl px              0.0       0.0       0.0       0.0       0.0      25.6
 7 Cl dz2             0.0       0.0       0.0       0.0       0.0       3.4
 7 Cl dxz             0.0       0.0       1.0       0.0       3.4       0.0
 7 Cl dyz             0.0       0.0       0.0       0.4       0.0       0.0
 7 Cl dx2y2           0.0       0.0       0.0       0.0       0.0      14.5
 8 H  s               0.0       0.0       0.0       0.0       0.0       1.2
 8 H  pz              0.0       0.3       0.1       0.7       0.2       0.0
 8 H  px              0.0       0.0       0.0       0.0       0.0       0.2
 8 H  py              0.0       0.0       0.0       0.0       0.0       0.1
 9 H  s               0.0       0.0       0.0       0.0       0.0       2.2
 9 H  pz              0.1       0.3       0.0       0.7       0.3       0.0
 9 H  px              0.0       0.0       0.0       0.0       0.0       0.1
 9 H  py              0.0       0.0       0.0       0.0       0.0       0.2
10 H  s               0.0       0.0       0.0       0.0       0.0       2.2
10 H  pz              0.1       0.3       0.0       0.7       0.3       0.0
10 H  px              0.0       0.0       0.0       0.0       0.0       0.1
10 H  py              0.0       0.0       0.0       0.0       0.0       0.2
11 H  s               0.0       0.0       0.0       0.0       0.0       1.2
11 H  pz              0.0       0.3       0.1       0.7       0.2       0.0
11 H  px              0.0       0.0       0.0       0.0       0.0       0.2
11 H  py              0.0       0.0       0.0       0.0       0.0       0.1
12 H  s               0.1       0.0       0.2       0.0       0.2       0.1
12 H  pz              0.3       0.0       0.5       0.0       0.2       0.0
13 H  s               0.1       0.0       0.2       0.0       0.2       0.1
13 H  pz              0.3       0.0       0.5       0.0       0.2       0.0

                     36        37        38        39        40        41   
                   0.06698   0.10363   0.10760   0.11641   0.12449   0.15229
                   0.00000   0.00000   0.00000   0.00000   0.00000   0.00000
                  --------  --------  --------  --------  --------  --------
 0 C  s               3.4       5.3       2.9       1.8       5.1       1.0
 0 C  pz              0.1       0.0       0.1      12.5       1.6       0.3
 0 C  px              4.9       1.9       4.1       0.0       2.1       1.8
 0 C  py              0.1       9.1      11.2       0.3       4.8       0.8
 0 C  dz2             0.0       0.1       0.0       0.1       0.8       0.0
 0 C  dyz             0.0       0.0       0.0       0.5       0.1       0.0
 0 C  dx2y2           0.4       1.0       0.0       0.0       0.0       0.1
 0 C  dxy             0.0       0.2       0.6       0.0       0.0       0.0
 1 C  s               1.2       6.3       2.4       1.5       9.0       4.2
 1 C  pz              0.3       0.1       0.0      11.3       1.3       0.0
 1 C  px              0.5       0.3       0.7       0.0       2.0       2.4
 1 C  py              1.3       2.9       4.4       0.0       0.3      14.3
 1 C  dz2             0.2       0.1       0.0       0.1       0.2       0.1
 1 C  dxz             0.0       0.0       0.0       0.1       0.0       0.0
 1 C  dyz             0.0       0.0       0.0       0.3       0.0       0.0
 1 C  dxy             0.0       0.1       0.7       0.0       0.0       0.0
 2 C  s               0.2       4.4       0.0       1.5      12.1       0.0
 2 C  pz              0.3       0.1       0.0      10.5       1.2       0.0
 2 C  px              0.9       2.4       0.0       0.0       1.7       0.0
 2 C  py              0.0       0.0       1.3       0.0       0.0       0.9
 2 C  dz2             0.0       0.5       0.0       0.1       0.7       0.0
 2 C  dxz             0.0       0.0       0.0       0.3       0.0       0.0
 2 C  dx2y2           0.0       0.3       0.0       0.0       0.0       0.0
 2 C  dxy             0.0       0.0       0.3       0.0       0.0       0.0
 3 C  s               1.2       6.3       2.4       1.5       9.0       4.2
 3 C  pz              0.3       0.1       0.0      11.3       1.3       0.0
 3 C  px              0.5       0.3       0.7       0.0       2.0       2.4
 3 C  py              1.3       2.9       4.4       0.0       0.3      14.2
 3 C  dz2             0.2       0.1       0.0       0.1       0.2       0.1
 3 C  dxz             0.0       0.0       0.0       0.1       0.0       0.0
 3 C  dyz             0.0       0.0       0.0       0.3       0.0       0.0
 3 C  dxy             0.0       0.1       0.7       0.0       0.0       0.0
 4 C  s               3.4       5.3       2.9       1.8       5.1       1.0
 4 C  pz              0.1       0.0       0.1      12.5       1.6       0.3
 4 C  px              4.9       1.9       4.0       0.0       2.1       1.8
 4 C  py              0.1       9.1      11.2       0.3       4.8       0.8
 4 C  dz2             0.0       0.1       0.0       0.1       0.8       0.0
 4 C  dyz             0.0       0.0       0.0       0.5       0.1       0.0
 4 C  dx2y2           0.4       1.0       0.0       0.0       0.0       0.1
 4 C  dxy             0.0       0.2       0.6       0.0       0.0       0.0
 5 C  s               6.3       1.1       0.0       2.3       3.7       0.0
 5 C  pz              0.3       0.0       0.0      14.5       2.5       0.0
 5 C  px              6.0       4.6       0.0       0.3       1.3       0.0
 5 C  py              0.0       0.0       3.1       0.0       0.0       0.6
 5 C  dz2             0.6       0.1       0.0       0.2       0.2       0.0
 5 C  dx2y2           0.2       2.2       0.0       0.0       0.2       0.0
 5 C  dxy             0.0       0.0       1.1       0.0       0.0       0.4
 6 N  s              16.3       1.0       0.0       0.2       0.0       0.0
 6 N  pz              1.1       0.0       0.0       0.9       0.3       0.0
 6 N  px              5.5       1.4       0.0       0.5       0.7       0.0
 6 N  py              0.0       0.0       8.5       0.0       0.0      12.2
 6 N  dz2             0.2       0.3       0.0       1.2       2.4       0.0
 6 N  dxz             0.3       0.0       0.0       2.4       0.4       0.0
 6 N  dyz             0.0       0.0       0.9       0.0       0.0       2.9
 6 N  dx2y2           3.8       0.5       0.0       0.1       1.5       0.0
 6 N  dxy             0.0       0.0       3.9       0.0       0.0       3.4
 7 Cl s               0.0       0.7       0.0       0.1       2.2       0.0
 7 Cl pz              0.0       0.0       0.0       0.5       0.1       0.0
 7 Cl px              0.1       2.1       0.0       0.0       0.3       0.0
 7 Cl py              0.0       0.0       0.4       0.0       0.0       1.7
 7 Cl dz2             0.0       0.3       0.0       0.1       1.0       0.0
 7 Cl dxz             0.1       0.0       0.0       2.6       0.3       0.0
 7 Cl dx2y2           0.2       2.3       0.0       0.1       1.9       0.0
 7 Cl dxy             0.0       0.0       0.5       0.0       0.0       0.2
 8 H  s               0.6       5.3       2.8       0.2       2.9       0.0
 8 H  pz              0.0       0.0       0.0       0.8       0.1       0.0
 8 H  px              0.3       0.1       0.9       0.0       0.2       0.1
 8 H  py              0.0       2.3       0.9       0.0       0.4       0.2
 9 H  s               0.4       1.6       1.4       0.1       0.7       2.6
 9 H  pz              0.0       0.0       0.0       0.8       0.1       0.0
 9 H  px              0.1       0.0       0.3       0.0       0.2       0.5
 9 H  py              0.1       1.0       0.5       0.0       0.1       1.3
10 H  s               0.4       1.6       1.4       0.1       0.7       2.6
10 H  pz              0.0       0.0       0.0       0.8       0.1       0.0
10 H  px              0.1       0.0       0.3       0.0       0.2       0.5
10 H  py              0.1       1.0       0.5       0.0       0.1       1.3
11 H  s               0.6       5.3       2.8       0.2       2.9       0.0
11 H  pz              0.0       0.0       0.0       0.8       0.1       0.0
11 H  px              0.3       0.1       0.9       0.0       0.2       0.1
11 H  py              0.0       2.3       0.9       0.0       0.4       0.2
12 H  s              10.7       0.0       4.7       0.2       0.4       6.9
12 H  pz              0.2       0.0       0.1       0.1       0.0       0.3
12 H  px              0.6       0.1       0.4       0.0       0.0       0.8
12 H  py              3.5       0.0       0.8       0.0       0.2       1.1
13 H  s              10.7       0.0       4.7       0.2       0.4       6.9
13 H  pz              0.2       0.0       0.1       0.1       0.0       0.3
13 H  px              0.6       0.1       0.4       0.0       0.0       0.8
13 H  py              3.5       0.0       0.8       0.0       0.2       1.1

                     42        43        44        45        46        47   
                   0.15702   0.16608   0.17134   0.19949   0.22049   0.22131
                   0.00000   0.00000   0.00000   0.00000   0.00000   0.00000
                  --------  --------  --------  --------  --------  --------
 0 C  s               2.4       2.5       7.0       3.3       0.1       5.3
 0 C  pz              0.2       0.1       0.2       0.2      17.5       0.3
 0 C  px              0.8       0.9       2.0       3.7       0.1       1.7
 0 C  py              1.4       0.6       7.0       3.2       0.0       3.6
 0 C  dz2             0.0       0.0       0.6       0.4       0.0       0.9
 0 C  dx2y2           0.0       0.1       0.2       0.0       0.0       0.1
 0 C  dxy             0.7       0.1       0.1       0.8       0.0       1.4
 1 C  s               0.7       2.6       2.9       2.1       0.0       5.5
 1 C  pz              0.1       0.0       0.0       0.0      15.7       0.1
 1 C  px             10.3       4.3       3.8       0.7       0.0       3.2
 1 C  py              1.6       9.9       1.2       1.8       0.0       3.1
 1 C  dz2             0.0       0.8       0.4       0.4       0.0       0.3
 1 C  dx2y2           0.9       0.4       0.3       0.3       0.0       0.0
[...]
 3 C  px              0.1       4.0       0.6       0.1       0.4       0.2
 3 C  py              0.4       1.0       1.8       0.2       1.1       0.2
 3 C  dz2             7.1       0.1       0.8       0.0       0.2       0.1
 3 C  dx2y2           0.0       8.0       0.5       0.6       1.9       0.7
 3 C  dxy             0.0       1.7       6.8       1.1       5.3       2.2
 4 C  s               3.5       0.1       0.7       0.1       0.3       0.1
 4 C  px              0.4       4.0       0.5       0.1       0.4       0.3
 4 C  py              0.8       1.0       2.0       0.0       0.4       0.9
 4 C  dz2             3.0       0.1       0.8       0.2       0.3       0.1
 4 C  dx2y2           1.9       8.6       0.6       0.2       1.4       1.2
 4 C  dxy             2.6       1.7       7.3       0.5       3.5       3.7
 5 C  s               3.6       0.0       0.0       4.2       1.1       1.3
 5 C  px              0.3       0.0       0.0       3.4       1.0       5.1
 5 C  py              0.0       3.3       1.2       0.0       0.0       0.0
 5 C  dz2             3.5       0.0       0.0       3.6       0.0       0.7
 5 C  dxz             0.0       0.0       0.0       0.2       0.0       0.0
 5 C  dx2y2           2.7       0.0       0.0       1.8       0.1      11.7
 5 C  dxy             0.0      13.9       0.1       0.0       0.0       0.0
 6 N  s               0.3       0.0       0.0      22.2       2.7       0.7
 6 N  pz              0.0       0.0       0.0       0.5       0.4       0.2
 6 N  px              1.2       0.0       0.0       6.2       5.4      12.1
 6 N  py              0.0       1.0       0.1       0.0       0.0       0.0
 6 N  dz2             0.0       0.0       0.0      29.0       2.7       0.0
 6 N  dxz             0.8       0.0       0.0       1.3       1.8       1.4
 6 N  dyz             0.0       1.0       0.0       0.0       0.0       0.0
 6 N  dx2y2           0.2       0.0       0.0       0.9      11.3      25.2
 6 N  dxy             0.0       1.0       0.4       0.0       0.0       0.0
 7 Cl s               0.2       0.0       0.0       0.0       0.0       0.0
 7 Cl px              0.9       0.0       0.0       0.0       0.2       0.1
 7 Cl dx2y2           0.0       0.0       0.0       0.0       0.1       0.0
 7 Cl dxy             0.0       0.1       0.0       0.0       0.0       0.0
 8 H  s               0.3       0.1       3.2       0.0       1.3       1.3
 8 H  px              0.2       0.3       1.8       0.0       0.6       0.6
 8 H  py              0.1       0.1       7.3       0.0       2.1       1.8
 9 H  s               1.4       0.1       3.3       0.4       2.2       0.6
 9 H  px              2.2       0.3       1.7       0.5       1.4       0.2
 9 H  py              5.0       0.1       8.1       0.6       3.7       0.9
10 H  s               1.4       0.1       3.3       0.4       2.2       0.6
10 H  px              2.2       0.3       1.7       0.5       1.4       0.2
10 H  py              5.0       0.1       8.1       0.6       3.7       0.9
11 H  s               0.3       0.1       3.2       0.0       1.3       1.3
11 H  px              0.2       0.3       1.8       0.0       0.6       0.6
11 H  py              0.1       0.1       7.3       0.0       2.1       1.8
12 H  s               0.1       0.1       0.0       1.5       2.3       1.8
12 H  pz              0.0       0.0       0.0       0.7       0.5       0.3
12 H  px              0.0       0.7       0.0       1.3       1.3       0.9
12 H  py              0.5       0.0       0.0       4.5       3.7       1.7
13 H  s               0.1       0.1       0.0       1.5       2.3       1.8
13 H  pz              0.0       0.0       0.0       0.7       0.5       0.3
13 H  px              0.0       0.7       0.0       1.3       1.3       0.9
13 H  py              0.5       0.0       0.1       4.5       3.7       1.7

                    186       187       188       189       190       191   
                   4.29734  21.37334  21.89826  21.94828  22.14886  22.18320
                   0.00000   0.00000   0.00000   0.00000   0.00000   0.00000
                  --------  --------  --------  --------  --------  --------
 0 C  s               0.2      12.7      15.9      23.8       3.1      25.9
 1 C  s               0.0      18.1       0.9      25.9      13.3      23.9
 2 C  s               0.0      30.2      39.8       0.0      19.8       0.0
 2 C  py              0.0       0.0       0.0       0.1       0.0       0.0
 3 C  s               0.0      18.1       0.9      25.9      13.3      23.8
 4 C  s               0.2      12.7      15.8      23.8       3.1      26.0
 5 C  s               0.0       7.8      26.0       0.0      46.9       0.0
 5 C  py              0.5       0.0       0.0       0.1       0.0       0.1
 5 C  dyz             0.1       0.0       0.0       0.0       0.0       0.0
 5 C  dxy             0.6       0.0       0.0       0.0       0.0       0.0
 6 N  s               0.0       0.1       0.1       0.0       0.1       0.0
 6 N  py             18.0       0.0       0.0       0.0       0.0       0.0
 6 N  dyz            12.7       0.0       0.0       0.0       0.0       0.0
 6 N  dxy            29.2       0.0       0.0       0.0       0.0       0.0
12 H  s               8.3       0.0       0.0       0.0       0.0       0.0
12 H  pz              0.7       0.0       0.0       0.0       0.0       0.0
12 H  px              2.0       0.0       0.0       0.0       0.0       0.0
12 H  py              7.9       0.0       0.0       0.0       0.0       0.0
13 H  s               8.3       0.0       0.0       0.0       0.0       0.0
13 H  pz              0.7       0.0       0.0       0.0       0.0       0.0
13 H  px              2.0       0.0       0.0       0.0       0.0       0.0
13 H  py              7.8       0.0       0.0       0.0       0.0       0.0

                    192       193       194   
                  22.31526  25.33978  31.89240
                   0.00000   0.00000   0.00000
                  --------  --------  --------
 0 C  s              18.1       0.0       0.0
 1 C  s              17.5       0.1       0.0
 2 C  s               9.9       0.0       0.0
 2 C  px              0.0       0.5       0.0
 3 C  s              17.5       0.1       0.0
 4 C  s              18.1       0.0       0.0
 5 C  s              18.6       0.0       0.1
 6 N  s               0.0       0.0      99.7
 7 Cl s               0.0      99.2       0.0
 7 Cl px              0.0       0.1       0.0


                      *****************************
                      * MAYER POPULATION ANALYSIS *
                      *****************************

  NA   - Mulliken gross atomic population
  ZA   - Total nuclear charge
  QA   - Mulliken gross atomic charge
  VA   - Mayer's total valence
  BVA  - Mayer's bonded valence
  FA   - Mayer's free valence

  ATOM       NA         ZA         QA         VA         BVA        FA
  0 C      6.3570     6.0000    -0.3570     3.8372     3.8372    -0.0000
  1 C      6.1926     6.0000    -0.1926     3.8850     3.8850     0.0000
  2 C      5.8435     6.0000     0.1565     3.7493     3.7493     0.0000
  3 C      6.1926     6.0000    -0.1926     3.8849     3.8849     0.0000
  4 C      6.3570     6.0000    -0.3570     3.8373     3.8373     0.0000
  5 C      5.4716     6.0000     0.5284     3.5000     3.5000     0.0000
  6 N      7.5337     7.0000    -0.5337     3.0311     3.0311    -0.0000
  7 Cl    17.1662    17.0000    -0.1662     1.0953     1.0953    -0.0000
  8 H      0.8599     1.0000     0.1401     0.9740     0.9740    -0.0000
  9 H      0.8396     1.0000     0.1604     0.9654     0.9654     0.0000
 10 H      0.8396     1.0000     0.1604     0.9654     0.9654     0.0000
 11 H      0.8599     1.0000     0.1401     0.9740     0.9740     0.0000
 12 H      0.7434     1.0000     0.2566     0.9270     0.9270     0.0000
 13 H      0.7434     1.0000     0.2566     0.9270     0.9270     0.0000

  Mayer bond orders larger than 0.100000
B(  0-C ,  1-C ) :   1.4091 B(  0-C ,  5-C ) :   1.3240 B(  0-C ,  8-H ) :   0.9505 
B(  1-C ,  2-C ) :   1.3975 B(  1-C ,  9-H ) :   0.9361 B(  2-C ,  3-C ) :   1.3976 
B(  2-C ,  7-Cl) :   0.8997 B(  3-C ,  4-C ) :   1.4090 B(  3-C , 10-H ) :   0.9361 
B(  4-C ,  5-C ) :   1.3242 B(  4-C , 11-H ) :   0.9505 B(  5-C ,  6-N ) :   0.9390 
B(  6-N , 12-H ) :   0.9279 B(  6-N , 13-H ) :   0.9279 

-------
TIMINGS
-------

Total SCF time: 0 days 0 hours 0 min 16 sec 

Total time                  ....      16.200 sec
Sum of individual times     ....      15.954 sec  ( 98.5%)

SCF preparation             ....       1.519 sec  (  9.4%)
Fock matrix formation       ....      12.986 sec  ( 80.2%)
  Startup                   ....       0.008 sec  (  0.1% of F)
  Split-RI-J                ....       2.662 sec  ( 20.5% of F)
  XC integration            ....      10.191 sec  ( 78.5% of F)
    XC Preparation          ....       0.000 sec  (  0.0% of XC)
    Basis function eval.    ....       1.814 sec  ( 17.8% of XC)
    Density eval.           ....       3.267 sec  ( 32.1% of XC)
    XC-Functional eval.     ....       1.236 sec  ( 12.1% of XC)
    XC-Potential eval.      ....       3.541 sec  ( 34.7% of XC)
Diagonalization             ....       0.000 sec  (  0.0%)
Density matrix formation    ....       0.044 sec  (  0.3%)
Total Energy calculation    ....       0.003 sec  (  0.0%)
Population analysis         ....       1.245 sec  (  7.7%)
Orbital Transformation      ....       0.018 sec  (  0.1%)
Orbital Orthonormalization  ....       0.000 sec  (  0.0%)
DIIS solution               ....       0.108 sec  (  0.7%)
  MO trafo                  ....       0.000 sec  (  0.0 % of DIIS)
  Orb grad                  ....       0.000 sec  (  0.0 % of DIIS)
  Energy W gradient         ....       0.000 sec  (  0.0 % of DIIS)
  DIIS error                ....       0.010 sec  (  9.5 % of DIIS)
  DIIS work                 ....       0.088 sec  ( 80.9 % of DIIS)
  Form Q                    ....       0.000 sec  (  0.0 % of DIIS)
  Form QpQm                 ....       0.000 sec  (  0.0 % of DIIS)
  Exp/Cayley                ....       0.000 sec  (  0.0 % of DIIS)
  Orb update                ....       0.000 sec  (  0.0 % of DIIS)
  Wake-sleep                ....       0.001 sec  (  1.2 % of DIIS)
SOSCF solution              ....       0.031 sec  (  0.2%)
  MO trafo                  ....       0.017 sec  ( 54.3 % of SOSCF)
  Orb grad                  ....       0.000 sec  (  0.8 % of SOSCF)
  Rot update                ....       0.004 sec  ( 13.2 % of SOSCF)
  Step                      ....       0.010 sec  ( 31.6 % of SOSCF)
Finished LeanSCF after  17.1 sec

Maximum memory used throughout the entire LEANSCF-calculation: 20.9 MB


-------------------------------------------------------------------------------
                          DFT DISPERSION CORRECTION                            
                                                                               
                                DFTD4 V3.4.0                                   
-------------------------------------------------------------------------------
The R2SCAN3C composite method is recognized
Using three-body term ABC
Active option DFTDOPT                   ...         5   

-------------------------   ----------------
Dispersion correction           -0.004861555
-------------------------   ----------------

------------------   -----------------
gCP correction             0.006798543
------------------   -----------------

-------------------------   --------------------
FINAL SINGLE POINT ENERGY      -747.109225311609
-------------------------   --------------------


------------------------------------------------------------------------------
                              ORCA PROPERTY CALCULATIONS
------------------------------------------------------------------------------

GBWName                                 ... sp.gbw
Number of atoms                         ...     14
Number of basis functions               ...    195
Max core memory                         ...   1024 MB

Electric properties:
Dipole moment                           ... YES
Quadrupole moment                       ...  NO
Static polarizability (Dipole/Dipole)   ...  NO
Static polarizability (Dipole/Quad.)    ...  NO
Static polarizability (Quad./Quad.)     ...  NO
Static polarizability (Velocity)        ...  NO

Atomic electric properties:
Dipole moment                           ...  NO
Quadrupole moment                       ...  NO
Static polarizability                   ...  NO

Choice of electric origin               ... Center of mass
Position of electric origin             ...    -0.000029    -0.000000     0.000000

General magnetic properties:
Magnetizability                         ...  NO

EPR properties:
g-Tensor (aka g-matrix)                 ...  NO
Zero-Field splitting spin-orbit         ...  NO
Zero-field splitting spin-spin          ...  NO
Hyperfine couplings                     ...  NO (   0 nuclei)
Quadrupole couplings                    ...  NO (   0 nuclei)
Contact density                         ...  NO (   0 nuclei)

NMR properties:
Chemical shifts                         ...  NO (   0 nuclei)
Spin-rotation constants                 ...  NO (   0 nuclei)
Spin-spin couplings                     ...  NO (   0 nuclei,    0 pairs)

Choice of magnetic origin               ... GIAO
Position of magnetic origin             ...     0.000000     0.000000     0.000000

Properties with geometric perturbations:
SCF Hessian                             ...  NO
IR spectrum                             ...  NO
VCD spectrum                            ...  NO
X-ray spectroscopy properties:
SCF XES/XAS/RIXS spectra                ...  NO


-------------
DIPOLE MOMENT
-------------

Method             : SCF
Type of density    : Electron Density
Multiplicity       :   1
Irrep              :   0
Energy             :  -747.1111622998635085 Eh
Relativity type    : 
Basis              : AO
                                X                 Y                 Z
Electronic contribution:     11.042274316      -0.000008378      -0.143697844
Nuclear contribution   :    -12.440016401      -0.000173163       0.441017706
                        -----------------------------------------
Total Dipole Moment    :     -1.397742085      -0.000181542       0.297319862
                        -----------------------------------------
Magnitude (a.u.)       :      1.429014370
Magnitude (Debye)      :      3.632265868



--------------------
Rotational spectrum 
--------------------
 
Rotational constants in cm-1:             0.188587             0.032717             0.027893 
Rotational constants in MHz :          5653.704783           980.826693           836.220704 

Dipole components along the rotational axes: 
x,y,z [a.u.] :     1.397742    -0.000182     0.297320 
x,y,z [Debye]:     3.552778    -0.000461     0.755726 

 

Dipole moment calculation done in   0.3 sec 

Maximum memory used throughout the entire PROP-calculation: 12.5 MB

--------------------------------
SUGGESTED CITATIONS FOR THIS RUN
--------------------------------

Below you find a list of papers that are relevant to this ORCA run
We neither can nor want to force you to cite these papers, but we appreciate if you do
You receive ORCA, which is the product of decades of hard work by many enthusiastic individuals, for free
The only thing we kindly ask in return is that you cite our papers,
We deeply appreciate it, if you show your appreciation for ORCA by not just citing the generic ORCA reference.

Please note that relegating all ORCA citations to the supporting information does *not* help us.
SI sections are not indexed - citations you put there will not count into any citation statistics
But we need these citations in order to attract the funding resources that allow us to do what we are doing

Therefore, if you are a happy ORCA user, please consider citing a few of the papers listed below in the main body of your paper

In addition to the list printed below, the program has created the file sp.bibtex that contains the list in bibtex format
You can import this file easily into all common literature databanks and citation aid programs


List of essential papers. We consider these as the minimum necessary citations

  1. Neese,F.
     Software update: the ORCA program system, version 5.0
     WIRES Comput. Molec. Sci., 2022 12(1)e1606
     doi.org/10.1002/wcms.1606
  2. Grimme,S.; Hansen,A.; Ehlert,S.; Mewes,J.
     r2SCAN-3c: A 'Swiss army knife' composite electronic-structure method
     J. Chem. Phys., 2021 154 064103
     doi.org/10.1063/5.0040021

List of papers to cite with high priority. The work reported in these papers was absolutely
necessary for this run to complete.
Our perspective: the developers of density functionals and basis sets usually get cited in chemistry papers
Good! But without the algorithms to do something with them, the functionals or basis sets would not do anything.
Hence, in our opinion, the algorithm design and method developments papers are equally worthy of getting cited

  1. Neese,F.
     An improvement of the resolution of the identity approximation for the formation of the Coulomb matrix
     J. Comp. Chem., 2003 24(14)1740-1747
     doi.org/10.1002/jcc.10318
  2. Neese,F.
     The SHARK Integral Generation and Digestion System
     J. Comp. Chem., 2022  1-16
     doi.org/10.1002/jcc.26942
  3. Lehtola,S.; Steigemann,C.; Oliveira,M.; Marques,M.
     Recent developments in Libxc - A comprehensive library of functionals for density functional theory
     Software X, 2018 7 
     doi.org/10.1016/j.softx.2017.11.002
  4. Caldeweyher,E.; Bannwarth,C.; Grimme,S.
     Extension of the D3 dispersion coefficient model
     J. Chem. Phys., 2017 147 034112
     doi.org/10.1063/1.4993215
  5. Caldeweyher,E.; Ehlert,S.; Hansen,A.; Neugebauer,H.; Spicher,S.; Bannwarth,C.; Grimme,S.
     A generally applicable atomic-charge dependent London dispersion correction
     J. Chem. Phys., 2019 150 154122
     doi.org/10.1063/1.5090222
  6. Caldeweyher,E.; Mewes,J.; Ehlert,S.; Grimme,S.
     Extension and evaluation of the D4 London-dispersion model for periodic systems
     Phys. Chem. Chem. Phys., 2020 22(16)8499-8512
     doi.org/10.1039/D0CP00502A
  7. Wittmann,L.; Gordiy,I.; Friede,M.; Helmich-Paris,B.; Grimme,S.; Hansen,A.; Bursch,M.
     Extension of the D3 and D4 London Dispersion Corrections to the full Actinides Series
     Phys. Chem. Chem. Phys., 2024 26(32)21379-21394
     doi.org/https://doi.org/10.1039/D4CP01514B 

List of suggested additional citations. These are papers that are important in the 'surrounding' of 
of this run, or papers that preceded the highly important papers. If you like your results we are grateful for a citation.

  1. Neese,F.
     The ORCA program system
     WIRES Comput. Molec. Sci., 2012 2(1)73-78
     doi.org/10.1002/wcms.81
  2. Neese,F.
     Software update: the ORCA program system, version 4.0
     WIRES Comput. Molec. Sci., 2018 8(1)1-6
     doi.org/10.1002/wcms.1327
  3. Neese,F.; Wennmohs,F.; Becker,U.; Riplinger,C.
     The ORCA quantum chemistry program package
     J. Chem. Phys., 2020 152 Art. No. L224108
     doi.org/10.1063/5.0004608

List of optional additional citations

  1. Neese,F.
     Approximate second-order SCF convergence for spin unrestricted wavefunctions
     Chem. Phys. Lett., 2000 325(1-3)93-98
     doi.org/10.1016/s0009-2614(00)00662-x

Timings for individual modules:

Sum of individual times          ...       18.473 sec (=   0.308 min)
Startup calculation              ...        0.880 sec (=   0.015 min)   4.8 %
SCF iterations                   ...       17.196 sec (=   0.287 min)  93.1 %
Property calculations            ...        0.397 sec (=   0.007 min)   2.2 %
                             ****ORCA TERMINATED NORMALLY****
TOTAL RUN TIME: 0 days 0 hours 0 minutes 20 seconds 497 msec
