      -----------------------------------------------------------      
     |                   =====================                   |     
     |                           x T B                           |     
     |                   =====================                   |     
     |                         S. Grimme                         |     
     |          Mulliken Center for Theoretical Chemistry        |     
     |                    University of Bonn                     |     
      -----------------------------------------------------------      

   * xtb version 6.7.1 (edcfbbe) compiled by 'albert@albert-system' on 2024-07-22

   xtb is free software: you can redistribute it and/or modify it under
   the terms of the GNU Lesser General Public License as published by
   the Free Software Foundation, either version 3 of the License, or
   (at your option) any later version.
   
   xtb is distributed in the hope that it will be useful,
   but WITHOUT ANY WARRANTY; without even the implied warranty of
   MERCHANTABILITY or FITNESS FOR A PARTICULAR PURPOSE.  See the
   GNU Lesser General Public License for more details.
   
   Cite this work as:
   * C. Bannwarth, E. Caldeweyher, S. Ehlert, A. Hansen, P. Pracht,
     J. Seibert, S. Spicher, S. Grimme, WIREs Comput. Mol. Sci., 2020, 11,
     e01493. DOI: 10.1002/wcms.1493
   
   for GFN2-xTB:
   * C. Bannwarth, S. Ehlert and S. Grimme., J. Chem. Theory Comput., 2019,
     15, 1652-1671. DOI: 10.1021/acs.jctc.8b01176
   for GFN1-xTB:
   * S. Grimme, C. Bannwarth, P. Shushkov, J. Chem. Theory Comput., 2017,
     13, 1989-2009. DOI: 10.1021/acs.jctc.7b00118
   for GFN0-xTB:
   * P. Pracht, E. Caldeweyher, S. Ehlert, S. Grimme, ChemRxiv, 2019, preprint.
     DOI: 10.26434/chemrxiv.8326202.v1
   for GFN-FF:
   * S. Spicher and S. Grimme, Angew. Chem. Int. Ed., 2020, 59, 15665-15673.
     DOI: 10.1002/anie.202004239
   
   for ALPB and GBSA implicit solvation:
   * S. Ehlert, M. Stahn, S. Spicher, S. Grimme, J. Chem. Theory Comput.,
     2021, 17, 4250-4261. DOI: 10.1021/acs.jctc.1c00471
   
   for ddCOSMO and CPCM-X implicit solvation:
   * M. Stahn, S. Ehlert, S. Grimme, J. Phys. Chem. A,
     2023, XX, XXXX-XXXX. DOI: 10.1021/acs.jpca.3c04382
   
   for DFT-D4:
   * E. Caldeweyher, C. Bannwarth and S. Grimme, J. Chem. Phys., 2017,
     147, 034112. DOI: 10.1063/1.4993215
   * E. Caldeweyher, S. Ehlert, A. Hansen, H. Neugebauer, S. Spicher,
     C. Bannwarth and S. Grimme, J. Chem. Phys., 2019, 150, 154122.
     DOI: 10.1063/1.5090222
   * E. Caldeweyher, J.-M. Mewes, S. Ehlert and S. Grimme, Phys. Chem. Chem. Phys.
     2020, 22, 8499-8512. DOI: 10.1039/D0CP00502A
   
   for sTDA-xTB:
   * S. Grimme and C. Bannwarth, J. Chem. Phys., 2016, 145, 054103.
     DOI: 10.1063/1.4959605
   
   in the mass-spec context:
   * V. Asgeirsson, C. Bauer and S. Grimme, Chem. Sci., 2017, 8, 4879.
     DOI: 10.1039/c7sc00601b
   * J. Koopman and S. Grimme, ACS Omega 2019, 4, 12, 15120-15133.
     DOI: 10.1021/acsomega.9b02011
   
   for metadynamics refer to:
   * S. Grimme, J. Chem. Theory Comput., 2019, 155, 2847-2862
     DOI: 10.1021/acs.jctc.9b00143
   
   for SPH calculations refer to:
   * S. Spicher and S. Grimme, J. Chem. Theory Comput., 2021, 17, 1701-1714
     DOI: 10.1021/acs.jctc.0c01306
   
   for ONIOM refer to:
   * C. Plett, A. Katbashev, S. Ehlert, S. Grimme, M. Bursch,
     Phys. Chem. Chem. Phys., 2023, 25, 17860-17868. DOI: 10.1039/D3CP02178E
   
   for DIPRO refer to:
   * J. Kohn, N. Gildemeister, S. Grimme, D. Fazzi, A. Hansen,
     J. Chem. Phys., 2023, just accepted.
   
   for PTB refer to:
   * S. Grimme, M. Mueller, A. Hansen, J. Chem. Phys., 2023, 158, 124111.
     DOI: 10.1063/5.0137838
   
   with help from (in alphabetical order)
   P. Atkinson, C. Bannwarth, F. Bohle, G. Brandenburg, E. Caldeweyher
   M. Checinski, S. Dohm, S. Ehlert, S. Ehrlich, I. Gerasimov, C. Hölzer
   A. Katbashev, J. Kohn, J. Koopman, C. Lavigne, S. Lehtola, F. März, M. Müller,
   F. Musil, H. Neugebauer, J. Pisarek, C. Plett, P. Pracht, F. Pultar,
   J. Seibert, P. Shushkov, S. Spicher, M. Stahn, M. Steiner, T. Strunk,
   J. Stückrath, T. Rose, and J. Unsleber
   
 * started run on 2025/04/15 at 19:33:14.169     
   ID    Z sym.   atoms
    1    6 C      1-3, 5
    2    1 H      4, 7-15
    3    8 O      6

           -------------------------------------------------
          |                Calculation Setup                |
           -------------------------------------------------

          program call               : /software/projects/pawsey0265/mwang1/xtb/bin/xtb xtb_rrho.coord --gfn2 --ohess vtight --chrg 0 --enso --norestart -I rrho-xcontrol-inp --parallel 1
          hostname                   : nid002800
          coordinate file            : xtb_rrho.coord
          omp threads                :                     1


           -------------------------------------------------
          |                 G F N 2 - x T B                 |
           -------------------------------------------------

        Reference                      10.1021/acs.jctc.8b01176
      * Hamiltonian:
        H0-scaling (s, p, d)           1.850000    2.230000    2.230000
        zeta-weighting                 0.500000
      * Dispersion:
        s8                             2.700000
        a1                             0.520000
        a2                             5.000000
        s9                             5.000000
      * Repulsion:
        kExp                           1.500000    1.000000
        rExp                           1.000000
      * Coulomb:
        alpha                          2.000000
        third order                    shell-resolved
        anisotropic                    true
        a3                             3.000000
        a5                             4.000000
        cn-shift                       1.200000
        cn-exp                         4.000000
        max-rad                        5.000000


          ...................................................
          :                      SETUP                      :
          :.................................................:
          :  # basis functions                  30          :
          :  # atomic orbitals                  30          :
          :  # shells                           20          :
          :  # electrons                        32          :
          :  max. iterations                   250          :
          :  Hamiltonian                  GFN2-xTB          :
          :  restarted?                      false          :
          :  GBSA solvation                  false          :
          :  PC potential                    false          :
          :  electronic temp.          300.0000000     K    :
          :  accuracy                    1.0000000          :
          :  -> integral cutoff          0.2500000E+02      :
          :  -> integral neglect         0.1000000E-07      :
          :  -> SCF convergence          0.1000000E-05 Eh   :
          :  -> wf. convergence          0.1000000E-03 e    :
          :  Broyden damping             0.4000000          :
          :  net charge                          0          :
          :  unpaired electrons                  0          :
          ...................................................

 iter      E             dE          RMSdq      gap      omega  full diag
   1    -17.8962077 -0.178962E+02  0.316E+00   12.07       0.0  T
   2    -17.9310838 -0.348761E-01  0.169E+00   11.74       1.0  T
   3    -17.9317871 -0.703278E-03  0.754E-01   11.84       1.0  T
   4    -17.9320906 -0.303544E-03  0.144E-01   11.81       1.0  T
   5    -17.9321722 -0.816131E-04  0.672E-02   11.83       1.0  T
   6    -17.9321736 -0.134211E-05  0.102E-02   11.84       2.5  T
   7    -17.9321739 -0.310662E-06  0.488E-03   11.84       5.3  T
   8    -17.9321739 -0.279315E-07  0.141E-03   11.84      18.3  T
   9    -17.9321739 -0.203647E-08  0.343E-04   11.84      75.2  T
  10    -17.9321739 -0.438874E-09  0.111E-04   11.84     231.6  T

   *** convergence criteria satisfied after 10 iterations ***

         #    Occupation            Energy/Eh            Energy/eV
      -------------------------------------------------------------
         1        2.0000           -0.6782895             -18.4572
       ...           ...                  ...                  ...
        10        2.0000           -0.4713044             -12.8248
        11        2.0000           -0.4654945             -12.6668
        12        2.0000           -0.4589209             -12.4879
        13        2.0000           -0.4512678             -12.2796
        14        2.0000           -0.4365191             -11.8783
        15        2.0000           -0.4309718             -11.7273
        16        2.0000           -0.4037623             -10.9869 (HOMO)
        17                          0.0312091               0.8492 (LUMO)
        18                          0.0839407               2.2841
        19                          0.0932228               2.5367
        20                          0.1249770               3.4008
        21                          0.1362818               3.7084
       ...                                ...                  ...
        30                          0.2788985               7.5892
      -------------------------------------------------------------
                  HL-Gap            0.4349713 Eh           11.8362 eV
             Fermi-level           -0.1862766 Eh           -5.0688 eV

 SCC (total)                   0 d,  0 h,  0 min,  0.038 sec
 SCC setup                      ...        0 min,  0.000 sec (  0.554%)
 Dispersion                     ...        0 min,  0.000 sec (  0.271%)
 classical contributions        ...        0 min,  0.000 sec (  0.098%)
 integral evaluation            ...        0 min,  0.001 sec (  2.546%)
 iterations                     ...        0 min,  0.032 sec ( 86.436%)
 molecular gradient             ...        0 min,  0.004 sec (  9.587%)
 printout                       ...        0 min,  0.000 sec (  0.442%)

         :::::::::::::::::::::::::::::::::::::::::::::::::::::
         ::                     SUMMARY                     ::
         :::::::::::::::::::::::::::::::::::::::::::::::::::::
         :: total energy             -17.723714053441 Eh    ::
         :: gradient norm              0.025046555159 Eh/a0 ::
         :: HOMO-LUMO gap             11.836172686647 eV    ::
         ::.................................................::
         :: SCC energy               -17.932159891803 Eh    ::
         :: -> isotropic ES            0.027913107599 Eh    ::
         :: -> anisotropic ES          0.004867986804 Eh    ::
         :: -> anisotropic XC          0.006279990203 Eh    ::
         :: -> dispersion             -0.007517893820 Eh    ::
         :: repulsion energy           0.208445838362 Eh    ::
         :: add. restraining           0.000000000000 Eh    ::
         :: total charge              -0.000000000000 e     ::
         :::::::::::::::::::::::::::::::::::::::::::::::::::::

      ----------------------------------------------------------- 
     |                   =====================                   |
     |                        A N C O P T                        |
     |                   =====================                   |
     |               Approximate Normal Coordinate               |
     |                Rational Function Optimizer                |
      ----------------------------------------------------------- 
      ----------------------------------------------------------- 
     |                   =====================                   |
     |                        A N C O P T                        |
     |                   =====================                   |
     |               Approximate Normal Coordinate               |
     |                Rational Function Optimizer                |
      ----------------------------------------------------------- 

          ...................................................
          :                      SETUP                      :
          :.................................................:
          :   optimization level         verytight          :
          :   max. optcycles                   300          :
          :   ANC micro-cycles                  20          :
          :   degrees of freedom                39          :
          :.................................................:
          :   RF solver                   davidson          :
          :   write xtbopt.log                true          :
          :   linear?                        false          :
          :   energy convergence         0.1000000E-06 Eh   :
          :   grad. convergence          0.2000000E-03 Eh/α :
          :   maxmium RF displ.          1.0000000          :
          :   Hlow (freq-cutoff)         0.1000000E-01      :
          :   Hmax (freq-cutoff)         5.0000000          :
          :   S6 in model hess.         20.0000000          :
          ...................................................

generating ANC from exact Hessian ...
Using Lindh-Hessian (1995)
 Shifting diagonal of input Hessian by   6.405245954673738E-003
 Lowest  eigenvalues of input Hessian
    0.000000    0.000000    0.000000    0.000000    0.000000    0.000000
    0.010000    0.013106    0.013991    0.017465    0.023183    0.029099
    0.036148    0.047222    0.057254    0.057823    0.060034    0.062958
 Highest eigenvalues
    1.131948    1.146881    1.199513    1.248446    1.300785    1.428727
 

........................................................................
.............................. CYCLE    1 ..............................
........................................................................

 iter      E             dE          RMSdq      gap      omega  full diag
   1    -17.9321739 -0.179322E+02  0.232E-05   11.84       0.0  T
   2    -17.9321739 -0.287770E-12  0.139E-05   11.84    1858.1  T
   3    -17.9321739 -0.994760E-13  0.237E-06   11.84   10879.9  T
     SCC iter.                  ...        0 min,  0.001 sec
     gradient                   ...        0 min,  0.003 sec
 * total energy  :   -17.7237141 Eh     change       -0.1688605E-10 Eh
   gradient norm :     0.0250472 Eh/α   predicted     0.0000000E+00 (-100.00%)
   displ. norm   :     0.0965522 α      lambda       -0.1005379E-02
   maximum displ.:     0.0417565 α      in ANC's #2, #14, #4, ...

........................................................................
.............................. CYCLE    2 ..............................
........................................................................

 iter      E             dE          RMSdq      gap      omega  full diag
   1    -17.9384307 -0.179384E+02  0.996E-02   12.04       0.0  T
   2    -17.9384386 -0.787538E-05  0.560E-02   12.04       1.0  T
   3    -17.9384387 -0.512029E-07  0.152E-02   12.05       1.7  T
   4    -17.9384392 -0.543158E-06  0.255E-03   12.04      10.1  T
   5    -17.9384392 -0.207530E-07  0.130E-03   12.04      19.9  T
   6    -17.9384392 -0.139246E-08  0.419E-04   12.04      61.6  T
   7    -17.9384392 -0.164651E-09  0.800E-05   12.04     322.7  T
     SCC iter.                  ...        0 min,  0.002 sec
     gradient                   ...        0 min,  0.003 sec
 * total energy  :   -17.7243564 Eh     change       -0.6423695E-03 Eh
   gradient norm :     0.0111349 Eh/α   predicted    -0.5073758E-03 ( -21.01%)
   displ. norm   :     0.0692162 α      lambda       -0.2241335E-03
   maximum displ.:     0.0423049 α      in ANC's #4, #2, #3, ...

........................................................................
.............................. CYCLE    3 ..............................
........................................................................

 iter      E             dE          RMSdq      gap      omega  full diag
   1    -17.9409719 -0.179410E+02  0.393E-02   12.22       0.0  T
   2    -17.9409760 -0.403834E-05  0.223E-02   12.22       1.2  T
   3    -17.9409762 -0.165985E-06  0.103E-02   12.22       2.5  T
   4    -17.9409763 -0.110387E-06  0.170E-03   12.22      15.2  T
   5    -17.9409763 -0.118321E-07  0.597E-04   12.22      43.2  T
   6    -17.9409763 -0.623057E-09  0.269E-04   12.22      96.0  T
     SCC iter.                  ...        0 min,  0.002 sec
     gradient                   ...        0 min,  0.003 sec
 * total energy  :   -17.7244902 Eh     change       -0.1338188E-03 Eh
   gradient norm :     0.0028988 Eh/α   predicted    -0.1126044E-03 ( -15.85%)
   displ. norm   :     0.0447323 α      lambda       -0.3920928E-04
   maximum displ.:     0.0313551 α      in ANC's #4, #3, #1, ...

........................................................................
.............................. CYCLE    4 ..............................
........................................................................

 iter      E             dE          RMSdq      gap      omega  full diag
   1    -17.9408077 -0.179408E+02  0.179E-02   12.27       0.0  T
   2    -17.9408081 -0.465887E-06  0.108E-02   12.27       2.4  T
   3    -17.9408081 -0.106110E-07  0.389E-03   12.27       6.6  T
   4    -17.9408082 -0.320854E-07  0.694E-04   12.27      37.2  T
   5    -17.9408082 -0.181389E-08  0.202E-04   12.27     128.1  T
     SCC iter.                  ...        0 min,  0.001 sec
     gradient                   ...        0 min,  0.003 sec
 * total energy  :   -17.7245176 Eh     change       -0.2734857E-04 Eh
   gradient norm :     0.0013245 Eh/α   predicted    -0.1964549E-04 ( -28.17%)
   displ. norm   :     0.0769307 α      lambda       -0.2248022E-04
   maximum displ.:     0.0525776 α      in ANC's #4, #3, #1, ...

........................................................................
.............................. CYCLE    5 ..............................
........................................................................

 iter      E             dE          RMSdq      gap      omega  full diag
   1    -17.9399216 -0.179399E+02  0.284E-02   12.30       0.0  T
   2    -17.9399219 -0.328015E-06  0.172E-02   12.30       1.5  T
   3    -17.9399219  0.141955E-07  0.330E-03   12.30       7.8  T
   4    -17.9399220 -0.653588E-07  0.796E-04   12.30      32.5  T
   5    -17.9399220 -0.132255E-08  0.267E-04   12.30      96.6  T
     SCC iter.                  ...        0 min,  0.001 sec
     gradient                   ...        0 min,  0.003 sec
 * total energy  :   -17.7245344 Eh     change       -0.1677071E-04 Eh
   gradient norm :     0.0025513 Eh/α   predicted    -0.1127079E-04 ( -32.79%)
   displ. norm   :     0.0177628 α      lambda       -0.7439773E-05
   maximum displ.:     0.0094363 α      in ANC's #4, #3, #1, ...

........................................................................
.............................. CYCLE    6 ..............................
........................................................................

 iter      E             dE          RMSdq      gap      omega  full diag
   1    -17.9399732 -0.179400E+02  0.730E-03   12.29       0.0  T
   2    -17.9399732 -0.298458E-07  0.439E-03   12.29       5.9  T
   3    -17.9399732  0.127013E-09  0.946E-04   12.29      27.3  T
   4    -17.9399732 -0.407592E-08  0.232E-04   12.29     111.1  T
     SCC iter.                  ...        0 min,  0.001 sec
     gradient                   ...        0 min,  0.003 sec
 * total energy  :   -17.7245405 Eh     change       -0.6154456E-05 Eh
   gradient norm :     0.0016483 Eh/α   predicted    -0.3721399E-05 ( -39.53%)
   displ. norm   :     0.0630009 α      lambda       -0.1078985E-04
   maximum displ.:     0.0343239 α      in ANC's #4, #3, #1, ...

........................................................................
.............................. CYCLE    7 ..............................
........................................................................

 iter      E             dE          RMSdq      gap      omega  full diag
   1    -17.9402919 -0.179403E+02  0.246E-02   12.26       0.0  T
   2    -17.9402921 -0.198837E-06  0.148E-02   12.26       1.7  T
   3    -17.9402921 -0.310826E-08  0.235E-03   12.26      11.0  T
   4    -17.9402921 -0.326824E-07  0.724E-04   12.26      35.6  T
   5    -17.9402921 -0.113030E-08  0.254E-04   12.26     101.5  T
     SCC iter.                  ...        0 min,  0.001 sec
     gradient                   ...        0 min,  0.003 sec
 * total energy  :   -17.7245457 Eh     change       -0.5143266E-05 Eh
   gradient norm :     0.0009016 Eh/α   predicted    -0.5404457E-05 (   5.08%)
   displ. norm   :     0.0127471 α      lambda       -0.1370628E-05
   maximum displ.:     0.0069005 α      in ANC's #2, #4, #1, ...

........................................................................
.............................. CYCLE    8 ..............................
........................................................................

 iter      E             dE          RMSdq      gap      omega  full diag
   1    -17.9403214 -0.179403E+02  0.552E-03   12.27       0.0  T
   2    -17.9403214 -0.187580E-07  0.333E-03   12.27       7.8  T
   3    -17.9403214 -0.246061E-09  0.656E-04   12.27      39.4  T
   4    -17.9403214 -0.149831E-08  0.160E-04   12.27     161.8  T
     SCC iter.                  ...        0 min,  0.001 sec
     gradient                   ...        0 min,  0.003 sec
 * total energy  :   -17.7245467 Eh     change       -0.1074349E-05 Eh
   gradient norm :     0.0001028 Eh/α   predicted    -0.6846282E-06 ( -36.28%)
   displ. norm   :     0.0031120 α      lambda       -0.9828728E-07
   maximum displ.:     0.0018171 α      in ANC's #4, #3, #2, ...

........................................................................
.............................. CYCLE    9 ..............................
........................................................................

 iter      E             dE          RMSdq      gap      omega  full diag
   1    -17.9402932 -0.179403E+02  0.158E-03   12.27       0.0  T
   2    -17.9402932 -0.352575E-09  0.943E-04   12.27      27.4  T
   3    -17.9402932 -0.398970E-11  0.878E-05   12.27     294.2  T
     SCC iter.                  ...        0 min,  0.001 sec
     gradient                   ...        0 min,  0.003 sec
 * total energy  :   -17.7245468 Eh     change       -0.9503368E-07 Eh
   gradient norm :     0.0000792 Eh/α   predicted    -0.4973581E-07 ( -47.67%)
   displ. norm   :     0.0054411 α      lambda       -0.9815167E-07
   maximum displ.:     0.0037705 α      in ANC's #3, #4, #2, ...

   *** GEOMETRY OPTIMIZATION CONVERGED AFTER 9 ITERATIONS ***

------------------------------------------------------------------------
 total energy gain   :        -0.0008328 Eh       -0.5226 kcal/mol
 total RMSD          :         0.0774772 a0        0.0410 Å
 total power (kW/mol):        -0.2429388 (step)  -34.3608 (real)
------------------------------------------------------------------------

 ANCopt (total)                0 d,  0 h,  0 min,  0.064 sec
 optimizer setup                ...        0 min,  0.001 sec (  0.808%)
 model hessian                  ...        0 min,  0.008 sec ( 12.582%)
 ANC generation                 ...        0 min,  0.000 sec (  0.575%)
 coordinate transformation      ...        0 min,  0.000 sec (  0.103%)
 single point calculation       ...        0 min,  0.051 sec ( 80.720%)
 optimization log               ...        0 min,  0.002 sec (  2.905%)
 hessian update                 ...        0 min,  0.000 sec (  0.103%)
 rational function              ...        0 min,  0.001 sec (  1.537%)

================
 final structure:
================
$coord
        3.18597541516210        0.72166585791461        1.20773600634367      C
        1.67684811590485        0.80128462638418       -1.24557622983035      C
       -1.06819454725023       -0.09452590476304       -0.92491334741212      C
       -1.99475398156783        0.02250358683221       -2.79332588825034      H
       -2.55787035737241        1.51797471272779        0.94057420324975      C
       -1.17927629994414       -2.61805424332652       -0.04946714632809      O
        2.56259529463752        2.19037438850364        2.49956912422803      H
        5.18502773419279        1.00588424847627        0.82441185946995      H
        2.94390120248414       -1.10183826968763        2.12514543898113      H
        2.59265925060925       -0.41727164337135       -2.64455832749921      H
        1.66069160796839        2.71742910994749       -2.00785976961262      H
       -2.46060284227293        3.49784354605553        0.40752558793832      H
       -4.52053384567048        0.91586770455121        0.95133745653221      H
       -1.80190679497877        1.27293126003228        2.83152774549912      H
       -0.15493874165956       -3.66070914827942       -1.13413857382846      H
$end
 
 Bond Distances (Angstroems)
 ---------------------------
C1-C2=1.5248         C1-H7=1.0864         C1-H8=1.0876         C1-H9=1.0878         C2-C1=1.5248         C2-C3=1.5374         
C2-H10=1.0949        C2-H11=1.0913        C3-C2=1.5374         C3-H4=1.1054         C3-C5=1.5245         C3-O6=1.4147         
H4-C3=1.1054         C5-C3=1.5245         C5-H12=1.0862        C5-H13=1.0864        C5-H14=1.0854        O6-C3=1.4147         
O6-H15=0.9632        H7-C1=1.0864         H8-C1=1.0876         H9-C1=1.0878         H10-C2=1.0949        H11-C2=1.0913        
H12-C5=1.0862        H13-C5=1.0864        H14-C5=1.0854        H15-O6=0.9632        
 C  H  Rav=1.0901 sigma=0.0061  Rmin=1.0854  Rmax=1.1054     9
 C  C  Rav=1.5289 sigma=0.0060  Rmin=1.5245  Rmax=1.5374     3
 O  H  Rav=0.9632 sigma=0.0000  Rmin=0.9632  Rmax=0.9632     1
 O  C  Rav=1.4147 sigma=0.0000  Rmin=1.4147  Rmax=1.4147     1
 
 selected bond angles (degree)
 --------------------
H7-C1-C2=110.91                H8-C1-C2=110.29                H8-C1-H7=108.29                H9-C1-C2=110.05                
H9-C1-H7=108.54                H9-C1-H8=108.69                C3-C2-C1=113.10                H10-C2-C1=109.12               
H10-C2-C3=108.13               H11-C2-C1=110.15               H11-C2-C3=108.66               H11-C2-H10=107.50              
H4-C3-C2=107.64                C5-C3-C2=112.80                C5-C3-H4=108.57                O6-C3-C2=111.50                
O6-C3-H4=109.11                O6-C3-C5=107.15                H12-C5-C3=110.32               H13-C5-C3=109.49               
H13-C5-H12=109.24              H14-C5-C3=109.85               H14-C5-H12=109.70              H14-C5-H13=108.21              
H15-O6-C3=108.80               
 
 selected dihedral angles (degree)
 ---------------------------------
C3-C2-C1-H7=288.73            C3-C2-C1-H8=168.76            C3-C2-C1-H9= 48.85            H10-C2-C1-H7=168.32           
H10-C2-C1-H8= 48.36           H10-C2-C1-H9=288.45           H11-C2-C1-H7= 50.53           H11-C2-C1-H8=290.56           
H11-C2-C1-H9=170.65           H4-C3-C2-C1=180.29            H4-C3-C2-H10=301.25           H4-C3-C2-H11= 57.65           
C5-C3-C2-C1= 60.54            C5-C3-C2-H10=181.50           C5-C3-C2-H11=297.90           O6-C3-C2-C1=299.92            
O6-C3-C2-H10= 60.89           O6-C3-C2-H11=177.29           H12-C5-C3-C2= 54.23           H12-C5-C3-H4=295.01           
H12-C5-C3-O6=177.30           H13-C5-C3-C2=174.48           H13-C5-C3-H4= 55.26           H13-C5-C3-O6=297.55           
H14-C5-C3-C2=293.17           H14-C5-C3-H4=173.96           H14-C5-C3-O6= 56.24           H15-O6-C3-C2=307.73           
H15-O6-C3-H4= 66.49           H15-O6-C3-C5=183.86           
           -------------------------------------------------
          |                Final Singlepoint                |
           -------------------------------------------------

          ...................................................
          :                      SETUP                      :
          :.................................................:
          :  # basis functions                  30          :
          :  # atomic orbitals                  30          :
          :  # shells                           20          :
          :  # electrons                        32          :
          :  max. iterations                   250          :
          :  Hamiltonian                  GFN2-xTB          :
          :  restarted?                      false          :
          :  GBSA solvation                  false          :
          :  PC potential                    false          :
          :  electronic temp.          300.0000000     K    :
          :  accuracy                    1.0000000          :
          :  -> integral cutoff          0.2500000E+02      :
          :  -> integral neglect         0.1000000E-07      :
          :  -> SCF convergence          0.1000000E-05 Eh   :
          :  -> wf. convergence          0.1000000E-03 e    :
          :  Broyden damping             0.4000000          :
          :  net charge                          0          :
          :  unpaired electrons                  0          :
          ...................................................

 iter      E             dE          RMSdq      gap      omega  full diag
   1    -17.9402932 -0.179403E+02  0.274E-05   12.27       0.0  T
   2    -17.9402932 -0.586198E-12  0.166E-05   12.27    1554.4  T
   3    -17.9402932 -0.710543E-13  0.457E-06   12.27    5646.7  T

   *** convergence criteria satisfied after 3 iterations ***

         #    Occupation            Energy/Eh            Energy/eV
      -------------------------------------------------------------
         1        2.0000           -0.6815239             -18.5452
       ...           ...                  ...                  ...
        10        2.0000           -0.4697184             -12.7817
        11        2.0000           -0.4661142             -12.6836
        12        2.0000           -0.4604630             -12.5298
        13        2.0000           -0.4522816             -12.3072
        14        2.0000           -0.4370161             -11.8918
        15        2.0000           -0.4299178             -11.6987
        16        2.0000           -0.4020172             -10.9394 (HOMO)
        17                          0.0489261               1.3313 (LUMO)
        18                          0.0904525               2.4613
        19                          0.0970187               2.6400
        20                          0.1272417               3.4624
        21                          0.1397044               3.8015
       ...                                ...                  ...
        30                          0.2932933               7.9809
      -------------------------------------------------------------
                  HL-Gap            0.4509433 Eh           12.2708 eV
             Fermi-level           -0.1765455 Eh           -4.8040 eV

 SCC (total)                   0 d,  0 h,  0 min,  0.005 sec
 SCC setup                      ...        0 min,  0.000 sec (  2.481%)
 Dispersion                     ...        0 min,  0.000 sec (  0.823%)
 classical contributions        ...        0 min,  0.000 sec (  0.274%)
 integral evaluation            ...        0 min,  0.001 sec ( 21.722%)
 iterations                     ...        0 min,  0.001 sec ( 12.887%)
 molecular gradient             ...        0 min,  0.003 sec ( 59.764%)
 printout                       ...        0 min,  0.000 sec (  1.680%)

         :::::::::::::::::::::::::::::::::::::::::::::::::::::
         ::                     SUMMARY                     ::
         :::::::::::::::::::::::::::::::::::::::::::::::::::::
         :: total energy             -17.724546828110 Eh    ::
         :: gradient norm              0.000079313438 Eh/a0 ::
         :: HOMO-LUMO gap             12.270791544641 eV    ::
         ::.................................................::
         :: SCC energy               -17.940279819426 Eh    ::
         :: -> isotropic ES            0.027520878861 Eh    ::
         :: -> anisotropic ES          0.004439637780 Eh    ::
         :: -> anisotropic XC          0.005859612999 Eh    ::
         :: -> dispersion             -0.007557817715 Eh    ::
         :: repulsion energy           0.215732991316 Eh    ::
         :: add. restraining           0.000000000000 Eh    ::
         :: total charge               0.000000000000 e     ::
         :::::::::::::::::::::::::::::::::::::::::::::::::::::

           ------------------------------------------------- 
          |                Numerical Hessian                |
           ------------------------------------------------- 
step length          :   0.00500
SCC accuracy         :   0.30000
Hessian scale factor :   1.00000
frozen atoms in %    :   0.00000    0
RMS gradient         :   0.00008
estimated CPU  time      0.01 min
estimated wall time      0.01 min

writing file <hessian>.

 projected vibrational frequencies (cm⁻¹)
eigval :       -0.00    -0.00    -0.00     0.00     0.00     0.00
eigval :      107.28   175.86   212.04   276.56   305.53   359.84
eigval :      404.82   585.21   817.54   833.60   946.68  1017.24
eigval :     1022.30  1031.52  1104.58  1128.01  1173.33  1247.15
eigval :     1263.79  1314.01  1346.56  1362.01  1400.68  1413.43
eigval :     1472.61  1489.11  1495.19  1499.07  1513.64  2806.64
eigval :     2945.60  2986.86  3034.20  3038.64  3045.75  3049.52
eigval :     3051.69  3064.13  3551.56
           -------------------------------------------------
          |                Property Printout                |
           -------------------------------------------------

    * Orbital Energies and Occupations

         #    Occupation            Energy/Eh            Energy/eV
      -------------------------------------------------------------
         1        2.0000           -0.6815240             -18.5452
       ...           ...                  ...                  ...
         4        2.0000           -0.5840057             -15.8916
         5        2.0000           -0.5701414             -15.5143
         6        2.0000           -0.5441463             -14.8070
         7        2.0000           -0.5274890             -14.3537
         8        2.0000           -0.5172231             -14.0744
         9        2.0000           -0.4874026             -13.2629
        10        2.0000           -0.4697184             -12.7817
        11        2.0000           -0.4661142             -12.6836
        12        2.0000           -0.4604630             -12.5298
        13        2.0000           -0.4522816             -12.3072
        14        2.0000           -0.4370161             -11.8918
        15        2.0000           -0.4299178             -11.6987
        16        2.0000           -0.4020172             -10.9394 (HOMO)
        17                          0.0489261               1.3313 (LUMO)
        18                          0.0904525               2.4613
        19                          0.0970187               2.6400
        20                          0.1272417               3.4624
        21                          0.1397044               3.8015
        22                          0.1575782               4.2879
        23                          0.1789236               4.8688
        24                          0.1937479               5.2721
        25                          0.2065219               5.6197
        26                          0.2291953               6.2367
        27                          0.2468660               6.7176
       ...                                ...                  ...
        30                          0.2932933               7.9809
      -------------------------------------------------------------
                  HL-Gap            0.4509433 Eh           12.2708 eV
             Fermi-level           -0.1765456 Eh           -4.8040 eV

     #   Z          covCN         q      C6AA      α(0)
     1   6 C        3.751    -0.102    22.518     6.767
     2   6 C        3.799    -0.066    21.767     6.643
     3   6 C        3.723     0.122    18.696     6.175
     4   1 H        0.922     0.004     2.985     2.702
     5   6 C        3.753    -0.112    22.705     6.795
     6   8 O        1.656    -0.446    21.759     6.297
     7   1 H        0.925     0.039     2.466     2.456
     8   1 H        0.925     0.032     2.562     2.503
     9   1 H        0.925     0.047     2.353     2.399
    10   1 H        0.924     0.025     2.666     2.553
    11   1 H        0.924     0.031     2.570     2.507
    12   1 H        0.925     0.037     2.484     2.464
    13   1 H        0.925     0.050     2.324     2.384
    14   1 H        0.925     0.057     2.230     2.335
    15   1 H        0.805     0.282     0.777     1.384

 Mol. C6AA /au·bohr⁶  :       1460.845693
 Mol. C8AA /au·bohr⁸  :      29842.759305
 Mol. α(0) /au        :         56.364000


Wiberg/Mayer (AO) data.
largest (>0.10) Wiberg bond orders for each atom

 ---------------------------------------------------------------------------
     #   Z sym  total        # sym  WBO       # sym  WBO       # sym  WBO
 ---------------------------------------------------------------------------
     1   6 C    3.996 --     2 C    1.020     8 H    0.987     7 H    0.987
                             9 H    0.985
     2   6 C    3.998 --     1 C    1.020     3 C    0.986    11 H    0.978
                            10 H    0.977
     3   6 C    3.956 --     5 C    1.006     2 C    0.986     6 O    0.986
                             4 H    0.962
     4   1 H    1.000 --     3 C    0.962
     5   6 C    3.995 --     3 C    1.006    12 H    0.986    13 H    0.986
                            14 H    0.983
     6   8 O    1.959 --     3 C    0.986    15 H    0.903
     7   1 H    0.999 --     1 C    0.987
     8   1 H    0.999 --     1 C    0.987
     9   1 H    0.998 --     1 C    0.985
    10   1 H    0.999 --     2 C    0.977
    11   1 H    0.999 --     2 C    0.978
    12   1 H    0.999 --     5 C    0.986
    13   1 H    0.998 --     5 C    0.986
    14   1 H    0.997 --     5 C    0.983
    15   1 H    0.920 --     6 O    0.903
 ---------------------------------------------------------------------------

Topologies differ in total number of bonds
Writing topology from bond orders to xtbtopo.mol

molecular dipole:
                 x           y           z       tot (Debye)
 q only:        0.292       0.214      -0.249
   full:        0.425       0.211      -0.480       1.716
molecular quadrupole (traceless):
                xx          xy          yy          xz          yz          zz
 q only:       -0.674      -2.113       0.368       0.069       1.843       0.306
  q+dip:       -0.988      -2.674       0.276       0.259       2.712       0.712
   full:       -1.084      -2.766       0.495       0.134       2.689       0.590

           -------------------------------------------------
          |                Geometry Summary                 |
           -------------------------------------------------

      molecular mass/u    :       74.1217560
   center of mass at/Å    :        0.0002189      -0.0000336       0.0000729
  moments of inertia/u·Å² :        0.7854153E+02   0.1283830E+03   0.1564017E+03
rotational constants/cm⁻¹ :        0.2146334E+00   0.1313073E+00   0.1077842E+00

 * 14 selected distances

     #   Z          #   Z                                           value/Å
     1   6 C        2   6 C                                       1.5247786
     2   6 C        3   6 C                                       1.5373998 (max)
     3   6 C        4   1 H                                       1.1053566
     3   6 C        5   6 C                                       1.5244839
     3   6 C        6   8 O                                       1.4146899
     1   6 C        7   1 H                                       1.0863663
     1   6 C        8   1 H                                       1.0875755
     1   6 C        9   1 H                                       1.0877660
     2   6 C       10   1 H                                       1.0948651
     2   6 C       11   1 H                                       1.0913050
     5   6 C       12   1 H                                       1.0862299
     5   6 C       13   1 H                                       1.0863864
     5   6 C       14   1 H                                       1.0854240
     6   8 O       15   1 H                                       0.9631766 (min)

 * 4 distinct bonds (by element types)

   Z      Z             #   av. dist./Å        max./Å        min./Å
   1 H    6 C           9     1.0901417     1.1053566     1.0854240
   6 C    6 C           3     1.5288874     1.5373998     1.5244839
   1 H    8 O           1     0.9631766     0.9631766     0.9631766
   6 C    8 O           1     1.4146899     1.4146899     1.4146899

           -------------------------------------------------
          |               Frequency Printout                |
           -------------------------------------------------
 projected vibrational frequencies (cm⁻¹)
eigval :       -0.00    -0.00    -0.00     0.00     0.00     0.00
eigval :      107.28   175.86   212.04   276.56   305.53   359.84
eigval :      404.82   585.21   817.54   833.60   946.68  1017.24
eigval :     1022.30  1031.52  1104.58  1128.01  1173.33  1247.15
eigval :     1263.79  1314.01  1346.56  1362.01  1400.68  1413.43
eigval :     1472.61  1489.11  1495.19  1499.07  1513.64  2806.64
eigval :     2945.60  2986.86  3034.20  3038.64  3045.75  3049.52
eigval :     3051.69  3064.13  3551.56
 reduced masses (amu)
   1:  9.72   2:  9.86   3: 11.06   4: 10.56   5: 10.97   6: 11.59   7:  7.47   8:  1.42
   9:  5.74  10:  6.68  11:  1.95  12:  8.46  13:  9.76  14:  8.94  15:  3.80  16:  7.99
  17:  7.09  18:  4.69  19:  5.71  20:  5.69  21:  4.94  22:  7.87  23:  7.74  24:  4.12
  25:  2.75  26:  4.74  27:  4.09  28:  4.39  29:  3.80  30:  3.26  31:  1.57  32:  1.72
  33:  1.72  34:  1.57  35:  1.57  36:  1.72  37:  1.81  38:  1.65  39:  1.88  40:  1.69
  41:  1.67  42:  1.71  43:  1.67  44:  1.68  45:  1.87
 IR intensities (km·mol⁻¹)
   1:  0.59   2:  0.39   3:  0.08   4:  0.31   5:  0.15   6:  0.70   7:  0.05   8:  0.33
   9:  2.32  10:  3.40  11:156.11  12:  2.62  13: 13.05  14:  2.65  15:  2.49  16:  4.08
  17: 15.96  18:  8.93  19:  9.12  20: 27.86  21: 19.57  22: 12.11  23: 38.09  24: 75.00
  25: 16.36  26: 22.50  27:  6.90  28: 19.39  29: 12.78  30:  4.39  31:  1.19  32:  1.95
  33:  2.80  34:  3.65  35:  0.51  36:105.45  37: 56.10  38: 34.77  39: 46.47  40: 21.53
  41: 32.25  42: 25.10  43: 33.80  44: 25.08  45:  4.88
 Raman intensities (Ä⁴*amu⁻¹)
   1:  0.00   2:  0.00   3:  0.00   4:  0.00   5:  0.00   6:  0.00   7:  0.00   8:  0.00
   9:  0.00  10:  0.00  11:  0.00  12:  0.00  13:  0.00  14:  0.00  15:  0.00  16:  0.00
  17:  0.00  18:  0.00  19:  0.00  20:  0.00  21:  0.00  22:  0.00  23:  0.00  24:  0.00
  25:  0.00  26:  0.00  27:  0.00  28:  0.00  29:  0.00  30:  0.00  31:  0.00  32:  0.00
  33:  0.00  34:  0.00  35:  0.00  36:  0.00  37:  0.00  38:  0.00  39:  0.00  40:  0.00
  41:  0.00  42:  0.00  43:  0.00  44:  0.00  45:  0.00
 output can be read by thermo (or use thermo option).
 writing <g98.out> molden fake output.
 recommended (thermochemical) frequency scaling factor: 1.0
           -------------------------------------------------
          |             Thermodynamic Functions             |
           -------------------------------------------------

Molecule has no symmetry elements
It seems to be the C1 point group
c1  symmetry found (for desy threshold:  0.10E+00) used in thermo

          ...................................................
          :                      SETUP                      :
          :.................................................:
          :  # frequencies                          39      :
          :  # imaginary freq.                       0      :
          :  linear?                             false      :
          :  only rotor calc.                    false      :
          :  symmetry                               c1      :
          :  rotational number                       1      :
          :  scaling factor                  1.0000000      :
          :  rotor cutoff                    0.0000000 cm⁻¹ :
          :  imag. cutoff                 -100.0000000 cm⁻¹ :
          :.................................................:

    mode    ω/cm⁻¹     T·S(HO)/kcal·mol⁻¹    T·S(FR)/kcal·mol⁻¹   T·S(vib)
   ------------------------------------------------------------------------
       1    107.28    -0.98911 (100.00%)    -0.83000 (  0.00%)    -0.98911
       2    175.86    -0.70719 (100.00%)    -0.68374 (  0.00%)    -0.70719
       3    212.04    -0.60405 (100.00%)    -0.62835 (  0.00%)    -0.60405
       4    276.56    -0.46358 (100.00%)    -0.54971 (  0.00%)    -0.46358
   ------------------------------------------------------------------------

   temp. (K)  partition function   enthalpy   heat capacity  entropy
                                   cal/mol     cal/K/mol   cal/K/mol   J/K/mol
 298.15  VIB   19.7                 2509.394     17.890     14.340
         ROT  0.959E+05              888.752      2.981     25.778
         INT  0.189E+07             3398.146     20.871     40.118
         TR   0.617E+27             1481.254      4.968     38.808
         TOT                        4879.4004    25.8391    78.9258   330.2254

       T/K    H(0)-H(T)+PV         H(T)/Eh          T*S/Eh         G(T)/Eh
   ------------------------------------------------------------------------
    298.15    0.777582E-02    0.141946E+00    0.375002E-01    0.104446E+00
   ------------------------------------------------------------------------

         :::::::::::::::::::::::::::::::::::::::::::::::::::::
         ::                  THERMODYNAMIC                  ::
         :::::::::::::::::::::::::::::::::::::::::::::::::::::
         :: total free energy         -17.620101256017 Eh   ::
         ::.................................................::
         :: total energy              -17.724546828110 Eh   ::
         :: zero point energy           0.134169934795 Eh   ::
         :: G(RRHO) w/o ZPVE           -0.029724362701 Eh   ::
         :: G(RRHO) contrib.            0.104445572094 Eh   ::
         :::::::::::::::::::::::::::::::::::::::::::::::::::::

optimized geometry written to: xtbopt.coord


           -------------------------------------------------
          | TOTAL ENERGY              -17.724546828110 Eh   |
          | TOTAL ENTHALPY            -17.582601073810 Eh   |
          | TOTAL FREE ENERGY         -17.620101256017 Eh   |
          | GRADIENT NORM               0.000079292788 Eh/α |
          | HOMO-LUMO GAP              12.270791946218 eV   |
           -------------------------------------------------

------------------------------------------------------------------------
 * finished run on 2025/04/15 at 19:33:14.776     
------------------------------------------------------------------------
 total:
 * wall-time:     0 d,  0 h,  0 min,  0.606 sec
 *  cpu-time:     0 d,  0 h,  0 min,  0.566 sec
 * ratio c/w:     0.933 speedup
 SCF:
 * wall-time:     0 d,  0 h,  0 min,  0.038 sec
 *  cpu-time:     0 d,  0 h,  0 min,  0.017 sec
 * ratio c/w:     0.452 speedup
 ANC optimizer:
 * wall-time:     0 d,  0 h,  0 min,  0.072 sec
 *  cpu-time:     0 d,  0 h,  0 min,  0.069 sec
 * ratio c/w:     0.960 speedup
 analytical hessian:
 * wall-time:     0 d,  0 h,  0 min,  0.467 sec
 *  cpu-time:     0 d,  0 h,  0 min,  0.466 sec
 * ratio c/w:     0.998 speedup

