      -----------------------------------------------------------      
     |                   =====================                   |     
     |                           x T B                           |     
     |                   =====================                   |     
     |                         S. Grimme                         |     
     |          Mulliken Center for Theoretical Chemistry        |     
     |                    University of Bonn                     |     
      -----------------------------------------------------------      

   * xtb version 6.7.1 (edcfbbe) compiled by 'albert@albert-system' on 2024-07-22

   xtb is free software: you can redistribute it and/or modify it under
   the terms of the GNU Lesser General Public License as published by
   the Free Software Foundation, either version 3 of the License, or
   (at your option) any later version.
   
   xtb is distributed in the hope that it will be useful,
   but WITHOUT ANY WARRANTY; without even the implied warranty of
   MERCHANTABILITY or FITNESS FOR A PARTICULAR PURPOSE.  See the
   GNU Lesser General Public License for more details.
   
   Cite this work as:
   * C. Bannwarth, E. Caldeweyher, S. Ehlert, A. Hansen, P. Pracht,
     J. Seibert, S. Spicher, S. Grimme, WIREs Comput. Mol. Sci., 2020, 11,
     e01493. DOI: 10.1002/wcms.1493
   
   for GFN2-xTB:
   * C. Bannwarth, S. Ehlert and S. Grimme., J. Chem. Theory Comput., 2019,
     15, 1652-1671. DOI: 10.1021/acs.jctc.8b01176
   for GFN1-xTB:
   * S. Grimme, C. Bannwarth, P. Shushkov, J. Chem. Theory Comput., 2017,
     13, 1989-2009. DOI: 10.1021/acs.jctc.7b00118
   for GFN0-xTB:
   * P. Pracht, E. Caldeweyher, S. Ehlert, S. Grimme, ChemRxiv, 2019, preprint.
     DOI: 10.26434/chemrxiv.8326202.v1
   for GFN-FF:
   * S. Spicher and S. Grimme, Angew. Chem. Int. Ed., 2020, 59, 15665-15673.
     DOI: 10.1002/anie.202004239
   
   for ALPB and GBSA implicit solvation:
   * S. Ehlert, M. Stahn, S. Spicher, S. Grimme, J. Chem. Theory Comput.,
     2021, 17, 4250-4261. DOI: 10.1021/acs.jctc.1c00471
   
   for ddCOSMO and CPCM-X implicit solvation:
   * M. Stahn, S. Ehlert, S. Grimme, J. Phys. Chem. A,
     2023, XX, XXXX-XXXX. DOI: 10.1021/acs.jpca.3c04382
   
   for DFT-D4:
   * E. Caldeweyher, C. Bannwarth and S. Grimme, J. Chem. Phys., 2017,
     147, 034112. DOI: 10.1063/1.4993215
   * E. Caldeweyher, S. Ehlert, A. Hansen, H. Neugebauer, S. Spicher,
     C. Bannwarth and S. Grimme, J. Chem. Phys., 2019, 150, 154122.
     DOI: 10.1063/1.5090222
   * E. Caldeweyher, J.-M. Mewes, S. Ehlert and S. Grimme, Phys. Chem. Chem. Phys.
     2020, 22, 8499-8512. DOI: 10.1039/D0CP00502A
   
   for sTDA-xTB:
   * S. Grimme and C. Bannwarth, J. Chem. Phys., 2016, 145, 054103.
     DOI: 10.1063/1.4959605
   
   in the mass-spec context:
   * V. Asgeirsson, C. Bauer and S. Grimme, Chem. Sci., 2017, 8, 4879.
     DOI: 10.1039/c7sc00601b
   * J. Koopman and S. Grimme, ACS Omega 2019, 4, 12, 15120-15133.
     DOI: 10.1021/acsomega.9b02011
   
   for metadynamics refer to:
   * S. Grimme, J. Chem. Theory Comput., 2019, 155, 2847-2862
     DOI: 10.1021/acs.jctc.9b00143
   
   for SPH calculations refer to:
   * S. Spicher and S. Grimme, J. Chem. Theory Comput., 2021, 17, 1701-1714
     DOI: 10.1021/acs.jctc.0c01306
   
   for ONIOM refer to:
   * C. Plett, A. Katbashev, S. Ehlert, S. Grimme, M. Bursch,
     Phys. Chem. Chem. Phys., 2023, 25, 17860-17868. DOI: 10.1039/D3CP02178E
   
   for DIPRO refer to:
   * J. Kohn, N. Gildemeister, S. Grimme, D. Fazzi, A. Hansen,
     J. Chem. Phys., 2023, just accepted.
   
   for PTB refer to:
   * S. Grimme, M. Mueller, A. Hansen, J. Chem. Phys., 2023, 158, 124111.
     DOI: 10.1063/5.0137838
   
   with help from (in alphabetical order)
   P. Atkinson, C. Bannwarth, F. Bohle, G. Brandenburg, E. Caldeweyher
   M. Checinski, S. Dohm, S. Ehlert, S. Ehrlich, I. Gerasimov, C. Hölzer
   A. Katbashev, J. Kohn, J. Koopman, C. Lavigne, S. Lehtola, F. März, M. Müller,
   F. Musil, H. Neugebauer, J. Pisarek, C. Plett, P. Pracht, F. Pultar,
   J. Seibert, P. Shushkov, S. Spicher, M. Stahn, M. Steiner, T. Strunk,
   J. Stückrath, T. Rose, and J. Unsleber
   
 * started run on 2025/04/15 at 20:11:32.250     
   ID    Z sym.   atoms
    1    6 C      1-4
    2    8 O      5
    3    1 H      6-13

           -------------------------------------------------
          |                Calculation Setup                |
           -------------------------------------------------

          program call               : /software/projects/pawsey0265/mwang1/xtb/bin/xtb xtb_rrho.coord --gfn2 --ohess vtight --chrg 0 --enso --norestart -I rrho-xcontrol-inp --parallel 1
          hostname                   : nid002793
          coordinate file            : xtb_rrho.coord
          omp threads                :                     1


           -------------------------------------------------
          |                 G F N 2 - x T B                 |
           -------------------------------------------------

        Reference                      10.1021/acs.jctc.8b01176
      * Hamiltonian:
        H0-scaling (s, p, d)           1.850000    2.230000    2.230000
        zeta-weighting                 0.500000
      * Dispersion:
        s8                             2.700000
        a1                             0.520000
        a2                             5.000000
        s9                             5.000000
      * Repulsion:
        kExp                           1.500000    1.000000
        rExp                           1.000000
      * Coulomb:
        alpha                          2.000000
        third order                    shell-resolved
        anisotropic                    true
        a3                             3.000000
        a5                             4.000000
        cn-shift                       1.200000
        cn-exp                         4.000000
        max-rad                        5.000000


          ...................................................
          :                      SETUP                      :
          :.................................................:
          :  # basis functions                  28          :
          :  # atomic orbitals                  28          :
          :  # shells                           18          :
          :  # electrons                        30          :
          :  max. iterations                   250          :
          :  Hamiltonian                  GFN2-xTB          :
          :  restarted?                      false          :
          :  GBSA solvation                  false          :
          :  PC potential                    false          :
          :  electronic temp.          300.0000000     K    :
          :  accuracy                    1.0000000          :
          :  -> integral cutoff          0.2500000E+02      :
          :  -> integral neglect         0.1000000E-07      :
          :  -> SCF convergence          0.1000000E-05 Eh   :
          :  -> wf. convergence          0.1000000E-03 e    :
          :  Broyden damping             0.4000000          :
          :  net charge                          0          :
          :  unpaired electrons                  0          :
          ...................................................

 iter      E             dE          RMSdq      gap      omega  full diag
   1    -16.8398608 -0.168399E+02  0.405E+00    4.49       0.0  T
   2    -16.8830362 -0.431754E-01  0.199E+00    3.54       1.0  T
   3    -16.8878446 -0.480835E-02  0.140E+00    3.93       1.0  T
   4    -16.8915404 -0.369581E-02  0.198E-01    3.67       1.0  T
   5    -16.8916635 -0.123078E-03  0.819E-02    3.72       1.0  T
   6    -16.8916795 -0.160385E-04  0.311E-02    3.72       1.0  T
   7    -16.8916801 -0.611875E-06  0.108E-02    3.72       2.6  T
   8    -16.8916804 -0.264913E-06  0.248E-03    3.72      11.2  T
   9    -16.8916804 -0.203459E-08  0.101E-03    3.72      27.5  T
  10    -16.8916804 -0.349615E-08  0.274E-04    3.72     101.2  T
  11    -16.8916804 -0.747384E-10  0.621E-05    3.72     446.7  T

   *** convergence criteria satisfied after 11 iterations ***

         #    Occupation            Energy/Eh            Energy/eV
      -------------------------------------------------------------
         1        2.0000           -0.7151652             -19.4606
       ...           ...                  ...                  ...
         9        2.0000           -0.5080839             -13.8257
        10        2.0000           -0.4865286             -13.2391
        11        2.0000           -0.4762122             -12.9584
        12        2.0000           -0.4699065             -12.7868
        13        2.0000           -0.4548643             -12.3775
        14        2.0000           -0.4473020             -12.1717
        15        2.0000           -0.4014685             -10.9245 (HOMO)
        16                         -0.2648393              -7.2066 (LUMO)
        17                          0.0572769               1.5586
        18                          0.0786897               2.1413
        19                          0.1100985               2.9959
        20                          0.1276647               3.4739
       ...                                ...                  ...
        28                          0.5861548              15.9501
      -------------------------------------------------------------
                  HL-Gap            0.1366291 Eh            3.7179 eV
             Fermi-level           -0.3331539 Eh           -9.0656 eV

 SCC (total)                   0 d,  0 h,  0 min,  0.035 sec
 SCC setup                      ...        0 min,  0.000 sec (  0.606%)
 Dispersion                     ...        0 min,  0.000 sec (  0.225%)
 classical contributions        ...        0 min,  0.000 sec (  0.096%)
 integral evaluation            ...        0 min,  0.001 sec (  2.342%)
 iterations                     ...        0 min,  0.031 sec ( 88.150%)
 molecular gradient             ...        0 min,  0.003 sec (  8.200%)
 printout                       ...        0 min,  0.000 sec (  0.322%)

         :::::::::::::::::::::::::::::::::::::::::::::::::::::
         ::                     SUMMARY                     ::
         :::::::::::::::::::::::::::::::::::::::::::::::::::::
         :: total energy             -16.685460718567 Eh    ::
         :: gradient norm              0.027555840233 Eh/a0 ::
         :: HOMO-LUMO gap              3.717868090734 eV    ::
         ::.................................................::
         :: SCC energy               -16.891672246668 Eh    ::
         :: -> isotropic ES            0.022952446613 Eh    ::
         :: -> anisotropic ES          0.003458060313 Eh    ::
         :: -> anisotropic XC          0.007903055048 Eh    ::
         :: -> dispersion             -0.006464772479 Eh    ::
         :: repulsion energy           0.206211528101 Eh    ::
         :: add. restraining           0.000000000000 Eh    ::
         :: total charge               0.000000000000 e     ::
         :::::::::::::::::::::::::::::::::::::::::::::::::::::

      ----------------------------------------------------------- 
     |                   =====================                   |
     |                        A N C O P T                        |
     |                   =====================                   |
     |               Approximate Normal Coordinate               |
     |                Rational Function Optimizer                |
      ----------------------------------------------------------- 
      ----------------------------------------------------------- 
     |                   =====================                   |
     |                        A N C O P T                        |
     |                   =====================                   |
     |               Approximate Normal Coordinate               |
     |                Rational Function Optimizer                |
      ----------------------------------------------------------- 

          ...................................................
          :                      SETUP                      :
          :.................................................:
          :   optimization level         verytight          :
          :   max. optcycles                   260          :
          :   ANC micro-cycles                  20          :
          :   degrees of freedom                33          :
          :.................................................:
          :   RF solver                   davidson          :
          :   write xtbopt.log                true          :
          :   linear?                        false          :
          :   energy convergence         0.1000000E-06 Eh   :
          :   grad. convergence          0.2000000E-03 Eh/α :
          :   maxmium RF displ.          1.0000000          :
          :   Hlow (freq-cutoff)         0.1000000E-01      :
          :   Hmax (freq-cutoff)         5.0000000          :
          :   S6 in model hess.         20.0000000          :
          ...................................................

generating ANC from exact Hessian ...
Using Lindh-Hessian (1995)
 Shifting diagonal of input Hessian by   2.100124649131148E-003
 Lowest  eigenvalues of input Hessian
    0.000000    0.000000    0.000000    0.000000    0.000000    0.000000
    0.010000    0.010921    0.012471    0.013605    0.014182    0.020129
    0.051864    0.053373    0.057332    0.059827    0.064701    0.072350
 Highest eigenvalues
    1.093561    1.110765    1.154738    1.217805    1.340515    2.144581
 

........................................................................
.............................. CYCLE    1 ..............................
........................................................................

 iter      E             dE          RMSdq      gap      omega  full diag
   1    -16.8916804 -0.168917E+02  0.200E-05    3.72       0.0  T
   2    -16.8916804 -0.144951E-11  0.937E-06    3.72    2960.1  T
   3    -16.8916804 -0.561329E-12  0.551E-06    3.72    5036.5  T
     SCC iter.                  ...        0 min,  0.001 sec
     gradient                   ...        0 min,  0.002 sec
 * total energy  :   -16.6854607 Eh     change       -0.3638334E-10 Eh
   gradient norm :     0.0275550 Eh/α   predicted     0.0000000E+00 (-100.00%)
   displ. norm   :     0.1009502 α      lambda       -0.1095096E-02
   maximum displ.:     0.0447886 α      in ANC's #4, #9, #6, ...

........................................................................
.............................. CYCLE    2 ..............................
........................................................................

 iter      E             dE          RMSdq      gap      omega  full diag
   1    -16.9009893 -0.169010E+02  0.130E-01    3.78       0.0  T
   2    -16.9010066 -0.173313E-04  0.720E-02    3.77       1.0  T
   3    -16.9010064  0.187062E-06  0.230E-02    3.77       1.2  T
   4    -16.9010073 -0.945305E-06  0.433E-03    3.76       6.4  T
   5    -16.9010075 -0.112643E-06  0.159E-03    3.77      17.5  T
   6    -16.9010075 -0.698555E-08  0.598E-04    3.77      46.4  T
   7    -16.9010075 -0.136366E-08  0.245E-04    3.77     113.1  T
     SCC iter.                  ...        0 min,  0.002 sec
     gradient                   ...        0 min,  0.003 sec
 * total energy  :   -16.6860559 Eh     change       -0.5951864E-03 Eh
   gradient norm :     0.0066287 Eh/α   predicted    -0.5531268E-03 (  -7.07%)
   displ. norm   :     0.0854769 α      lambda       -0.1649276E-03
   maximum displ.:     0.0676509 α      in ANC's #1, #3, #6, ...

........................................................................
.............................. CYCLE    3 ..............................
........................................................................

 iter      E             dE          RMSdq      gap      omega  full diag
   1    -16.9038421 -0.169038E+02  0.129E-01    3.79       0.0  T
   2    -16.9038444 -0.238800E-05  0.769E-02    3.78       1.0  T
   3    -16.9038444  0.118031E-07  0.759E-03    3.78       3.7  T
   4    -16.9038448 -0.352884E-06  0.249E-03    3.78      11.1  T
   5    -16.9038448 -0.675329E-08  0.129E-03    3.78      21.4  T
   6    -16.9038448 -0.918700E-09  0.315E-04    3.78      88.1  T
   7    -16.9038448 -0.118952E-09  0.880E-05    3.78     315.3  T
     SCC iter.                  ...        0 min,  0.001 sec
     gradient                   ...        0 min,  0.003 sec
 * total energy  :   -16.6860425 Eh     change        0.1339636E-04 Eh
   gradient norm :     0.0060340 Eh/α   predicted    -0.8306537E-04 (-720.06%)
   displ. norm   :     0.0371889 α      lambda       -0.1414843E-03
   maximum displ.:     0.0184221 α      in ANC's #1, #6, #7, ...

........................................................................
.............................. CYCLE    4 ..............................
........................................................................

 iter      E             dE          RMSdq      gap      omega  full diag
   1    -16.9034897 -0.169035E+02  0.620E-02    3.78       0.0  T
   2    -16.9034899 -0.193775E-06  0.374E-02    3.78       1.0  T
   3    -16.9034900 -0.482639E-07  0.218E-03    3.78      12.7  T
   4    -16.9034900 -0.156421E-07  0.118E-03    3.78      23.5  T
   5    -16.9034900 -0.154205E-08  0.510E-04    3.78      54.4  T
   6    -16.9034900 -0.741998E-09  0.172E-04    3.78     161.3  T
     SCC iter.                  ...        0 min,  0.001 sec
     gradient                   ...        0 min,  0.003 sec
 * total energy  :   -16.6861125 Eh     change       -0.7003192E-04 Eh
   gradient norm :     0.0012944 Eh/α   predicted    -0.7083970E-04 (   1.15%)
   displ. norm   :     0.0317915 α      lambda       -0.1117007E-04
   maximum displ.:     0.0177824 α      in ANC's #4, #1, #6, ...

........................................................................
.............................. CYCLE    5 ..............................
........................................................................

 iter      E             dE          RMSdq      gap      omega  full diag
   1    -16.9024880 -0.169025E+02  0.453E-02    3.77       0.0  T
   2    -16.9024881 -0.114339E-06  0.268E-02    3.77       1.0  T
   3    -16.9024881 -0.690140E-09  0.187E-03    3.77      14.9  T
   4    -16.9024881 -0.260507E-07  0.690E-04    3.77      40.2  T
   5    -16.9024881 -0.746891E-09  0.396E-04    3.77      70.1  T
     SCC iter.                  ...        0 min,  0.001 sec
     gradient                   ...        0 min,  0.003 sec
 * total energy  :   -16.6861210 Eh     change       -0.8446787E-05 Eh
   gradient norm :     0.0014233 Eh/α   predicted    -0.5587634E-05 ( -33.85%)
   displ. norm   :     0.0525287 α      lambda       -0.9134146E-05
   maximum displ.:     0.0333335 α      in ANC's #1, #4, #3, ...

........................................................................
.............................. CYCLE    6 ..............................
........................................................................

 iter      E             dE          RMSdq      gap      omega  full diag
   1    -16.9024633 -0.169025E+02  0.729E-02    3.78       0.0  T
   2    -16.9024634 -0.124664E-06  0.431E-02    3.78       1.0  T
   3    -16.9024635 -0.526273E-07  0.144E-03    3.78      19.2  T
   4    -16.9024635 -0.260246E-08  0.880E-04    3.78      31.5  T
   5    -16.9024635 -0.809287E-09  0.210E-04    3.78     131.8  T
     SCC iter.                  ...        0 min,  0.001 sec
     gradient                   ...        0 min,  0.003 sec
 * total energy  :   -16.6861322 Eh     change       -0.1117606E-04 Eh
   gradient norm :     0.0014723 Eh/α   predicted    -0.4572156E-05 ( -59.09%)
   displ. norm   :     0.1301121 α      lambda       -0.1778663E-04
   maximum displ.:     0.0712773 α      in ANC's #1, #4, #3, ...

........................................................................
.............................. CYCLE    7 ..............................
........................................................................

 iter      E             dE          RMSdq      gap      omega  full diag
   1    -16.9023526 -0.169024E+02  0.178E-01    3.77       0.0  T
   2    -16.9023536 -0.926177E-06  0.105E-01    3.77       1.0  T
   3    -16.9023538 -0.259501E-06  0.453E-03    3.77       6.1  T
   4    -16.9023539 -0.973362E-07  0.247E-03    3.77      11.2  T
   5    -16.9023539 -0.702595E-08  0.112E-03    3.77      24.8  T
   6    -16.9023539 -0.339766E-08  0.438E-04    3.77      63.3  T
   7    -16.9023539 -0.414499E-09  0.146E-04    3.77     190.3  T
     SCC iter.                  ...        0 min,  0.001 sec
     gradient                   ...        0 min,  0.003 sec
 * total energy  :   -16.6861476 Eh     change       -0.1544904E-04 Eh
   gradient norm :     0.0023110 Eh/α   predicted    -0.8962298E-05 ( -41.99%)
   displ. norm   :     0.0240566 α      lambda       -0.6862913E-05
   maximum displ.:     0.0124167 α      in ANC's #3, #5, #4, ...

........................................................................
.............................. CYCLE    8 ..............................
........................................................................

 iter      E             dE          RMSdq      gap      omega  full diag
   1    -16.9027399 -0.169027E+02  0.307E-02    3.78       0.0  T
   2    -16.9027399 -0.515093E-07  0.181E-02    3.78       1.5  T
   3    -16.9027400 -0.667022E-08  0.104E-03    3.78      26.6  T
   4    -16.9027400 -0.612129E-08  0.484E-04    3.78      57.3  T
   5    -16.9027400 -0.514348E-09  0.297E-04    3.78      93.5  T
     SCC iter.                  ...        0 min,  0.001 sec
     gradient                   ...        0 min,  0.003 sec
 * total energy  :   -16.6861527 Eh     change       -0.5040971E-05 Eh
   gradient norm :     0.0007738 Eh/α   predicted    -0.3433491E-05 ( -31.89%)
   displ. norm   :     0.0763949 α      lambda       -0.5602104E-05
   maximum displ.:     0.0444117 α      in ANC's #3, #4, #5, ...

........................................................................
.............................. CYCLE    9 ..............................
........................................................................

 iter      E             dE          RMSdq      gap      omega  full diag
   1    -16.9029292 -0.169029E+02  0.100E-01    3.78       0.0  T
   2    -16.9029296 -0.370710E-06  0.589E-02    3.78       1.0  T
   3    -16.9029297 -0.840290E-07  0.285E-03    3.78       9.7  T
   4    -16.9029297 -0.423469E-07  0.148E-03    3.78      18.7  T
   5    -16.9029297 -0.276442E-08  0.729E-04    3.78      38.1  T
   6    -16.9029297 -0.135768E-08  0.272E-04    3.78     102.0  T
     SCC iter.                  ...        0 min,  0.001 sec
     gradient                   ...        0 min,  0.003 sec
 * total energy  :   -16.6861575 Eh     change       -0.4832391E-05 Eh
   gradient norm :     0.0005144 Eh/α   predicted    -0.2809007E-05 ( -41.87%)
   displ. norm   :     0.0282763 α      lambda       -0.1393851E-05
   maximum displ.:     0.0230894 α      in ANC's #3, #5, #4, ...

........................................................................
.............................. CYCLE   10 ..............................
........................................................................

 iter      E             dE          RMSdq      gap      omega  full diag
   1    -16.9029617 -0.169030E+02  0.327E-02    3.78       0.0  T
   2    -16.9029618 -0.353234E-07  0.193E-02    3.78       1.4  T
   3    -16.9029618 -0.114562E-07  0.860E-04    3.78      32.2  T
   4    -16.9029618 -0.266456E-08  0.502E-04    3.78      55.2  T
     SCC iter.                  ...        0 min,  0.001 sec
     gradient                   ...        0 min,  0.003 sec
 * total energy  :   -16.6861590 Eh     change       -0.1536453E-05 Eh
   gradient norm :     0.0002885 Eh/α   predicted    -0.6958929E-06 ( -54.71%)
   displ. norm   :     0.0392620 α      lambda       -0.1426246E-05
   maximum displ.:     0.0313262 α      in ANC's #3, #5, #1, ...

........................................................................
.............................. CYCLE   11 ..............................
........................................................................

 iter      E             dE          RMSdq      gap      omega  full diag
   1    -16.9028706 -0.169029E+02  0.368E-02    3.78       0.0  T
   2    -16.9028706 -0.464277E-07  0.217E-02    3.78       1.3  T
   3    -16.9028706 -0.190090E-07  0.953E-04    3.78      29.1  T
   4    -16.9028706 -0.163841E-08  0.560E-04    3.78      49.5  T
     SCC iter.                  ...        0 min,  0.001 sec
     gradient                   ...        0 min,  0.003 sec
 * total energy  :   -16.6861602 Eh     change       -0.1139248E-05 Eh
   gradient norm :     0.0002207 Eh/α   predicted    -0.7126736E-06 ( -37.44%)
   displ. norm   :     0.0135764 α      lambda       -0.2986472E-06
   maximum displ.:     0.0098976 α      in ANC's #1, #4, #2, ...

........................................................................
.............................. CYCLE   12 ..............................
........................................................................

 iter      E             dE          RMSdq      gap      omega  full diag
   1    -16.9029940 -0.169030E+02  0.143E-02    3.78       0.0  T
   2    -16.9029940 -0.972869E-08  0.843E-03    3.78       3.3  T
   3    -16.9029940 -0.521190E-09  0.502E-04    3.78      55.2  T
   4    -16.9029940 -0.166523E-08  0.184E-04    3.78     151.0  T
     SCC iter.                  ...        0 min,  0.001 sec
     gradient                   ...        0 min,  0.003 sec
 * total energy  :   -16.6861603 Eh     change       -0.1164206E-06 Eh
   gradient norm :     0.0004534 Eh/α   predicted    -0.1499788E-06 (  28.82%)
   displ. norm   :     0.0035177 α      lambda       -0.1504023E-06
   maximum displ.:     0.0022322 α      in ANC's #3, #4, #6, ...

........................................................................
.............................. CYCLE   13 ..............................
........................................................................

 iter      E             dE          RMSdq      gap      omega  full diag
   1    -16.9029033 -0.169029E+02  0.502E-03    3.78       0.0  T
   2    -16.9029033 -0.531306E-08  0.296E-03    3.78       9.4  T
   3    -16.9029033  0.350681E-09  0.377E-04    3.78      73.6  T
   4    -16.9029033 -0.101799E-08  0.946E-05    3.78     293.2  T
     SCC iter.                  ...        0 min,  0.001 sec
     gradient                   ...        0 min,  0.003 sec
 * total energy  :   -16.6861604 Eh     change       -0.7954474E-07 Eh
   gradient norm :     0.0000910 Eh/α   predicted    -0.7428775E-07 (  -6.61%)
   displ. norm   :     0.0032334 α      lambda       -0.3759123E-07
   maximum displ.:     0.0026059 α      in ANC's #3, #6, #4, ...

   *** GEOMETRY OPTIMIZATION CONVERGED AFTER 13 ITERATIONS ***

------------------------------------------------------------------------
 total energy gain   :        -0.0006996 Eh       -0.4390 kcal/mol
 total RMSD          :         0.1145840 a0        0.0606 Å
 total power (kW/mol):        -0.1413001 (step)  -24.4666 (real)
------------------------------------------------------------------------

 ANCopt (total)                0 d,  0 h,  0 min,  0.075 sec
 optimizer setup                ...        0 min,  0.001 sec (  0.748%)
 model hessian                  ...        0 min,  0.004 sec (  5.801%)
 ANC generation                 ...        0 min,  0.000 sec (  0.394%)
 coordinate transformation      ...        0 min,  0.000 sec (  0.116%)
 single point calculation       ...        0 min,  0.065 sec ( 87.002%)
 optimization log               ...        0 min,  0.002 sec (  3.296%)
 hessian update                 ...        0 min,  0.000 sec (  0.105%)
 rational function              ...        0 min,  0.001 sec (  1.692%)

================
 final structure:
================
$coord
        2.51179950165032        2.33080405192045        0.39923837452082      C
        0.93420558330332        0.22098534828909       -0.79132865390047      C
        1.72250240491816       -2.38376326945267        0.15520136058452      C
       -1.83261162622799        0.70406377847390       -0.31980687133638      C
       -3.33727852733762       -0.80692068427244        0.43827728067924      O
        4.49952661603678        2.05976905815512       -0.04266527450446      H
        2.29354206332505        2.31556495322356        2.44305008869294      H
        1.93080727046366        4.17118122055064       -0.30862456466205      H
        1.17569197863554        0.30980600135011       -2.85124117337144      H
        1.52404074916182       -2.48157953823696        2.19802596395934      H
        3.67770544538886       -2.77242437075128       -0.34026183679328      H
        0.52312193262151       -3.83069372627385       -0.67325573498685      H
       -2.40939638587276        2.67216716668311       -0.76216736982425      H
$end
 
 Bond Distances (Angstroems)
 ---------------------------
C1-C2=1.5298         C1-H6=1.0870         C1-H7=1.0877         C1-H8=1.0878         C2-C1=1.5298         C2-C3=1.5247         
C2-C4=1.5071         C2-H9=1.0985         C3-C2=1.5247         C3-H10=1.0873        C3-H11=1.0870        C3-H12=1.0869        
C4-C2=1.5071         C4-O5=1.1976         C4-H13=1.1102        O5-C4=1.1976         H6-C1=1.0870         H7-C1=1.0877         
H8-C1=1.0878         H9-C2=1.0985         H10-C3=1.0873        H11-C3=1.0870        H12-C3=1.0869        H13-C4=1.1102        
 C  H  Rav=1.0916 sigma=0.0080  Rmin=1.0869  Rmax=1.1102     8
 C  C  Rav=1.5205 sigma=0.0097  Rmin=1.5071  Rmax=1.5298     3
 O  C  Rav=1.1976 sigma=0.0000  Rmin=1.1976  Rmax=1.1976     1
 
 selected bond angles (degree)
 --------------------
H6-C1-C2=110.07                H7-C1-C2=110.25                H7-C1-H6=108.40                H8-C1-C2=110.94                
H8-C1-H6=108.51                H8-C1-H7=108.60                C3-C2-C1=112.03                C4-C2-C1=109.77                
C4-C2-C3=111.39                H9-C2-C1=108.30                H9-C2-C3=109.44                H9-C2-C4=105.67                
H10-C3-C2=110.07               H11-C3-C2=110.62               H11-C3-H10=108.83              H12-C3-C2=110.16               
H12-C3-H10=108.12              H12-C3-H11=108.98              O5-C4-C2=126.02                H13-C4-C2=113.03               
H13-C4-O5=120.94               
 
 selected dihedral angles (degree)
 ---------------------------------
C3-C2-C1-H6= 59.49            C3-C2-C1-H7=299.95            C3-C2-C1-H8=179.60            C4-C2-C1-H6=183.79            
C4-C2-C1-H7= 64.25            C4-C2-C1-H8=303.90            H9-C2-C1-H6=298.69            H9-C2-C1-H7=179.15            
H9-C2-C1-H8= 58.80            H10-C3-C2-C1= 58.82           H10-C3-C2-C4=295.43           H10-C3-C2-H9=178.95           
H11-C3-C2-C1=298.51           H11-C3-C2-C4=175.12           H11-C3-C2-H9= 58.65           H12-C3-C2-C1=177.96           
H12-C3-C2-C4= 54.57           H12-C3-C2-H9=298.09           O5-C4-C2-C1=227.60            O5-C4-C2-C3=352.27            
O5-C4-C2-H9=111.03            H13-C4-C2-C1= 47.95           H13-C4-C2-C3=172.62           H13-C4-C2-H9=291.38           
           -------------------------------------------------
          |                Final Singlepoint                |
           -------------------------------------------------

          ...................................................
          :                      SETUP                      :
          :.................................................:
          :  # basis functions                  28          :
          :  # atomic orbitals                  28          :
          :  # shells                           18          :
          :  # electrons                        30          :
          :  max. iterations                   250          :
          :  Hamiltonian                  GFN2-xTB          :
          :  restarted?                      false          :
          :  GBSA solvation                  false          :
          :  PC potential                    false          :
          :  electronic temp.          300.0000000     K    :
          :  accuracy                    1.0000000          :
          :  -> integral cutoff          0.2500000E+02      :
          :  -> integral neglect         0.1000000E-07      :
          :  -> SCF convergence          0.1000000E-05 Eh   :
          :  -> wf. convergence          0.1000000E-03 e    :
          :  Broyden damping             0.4000000          :
          :  net charge                          0          :
          :  unpaired electrons                  0          :
          ...................................................

 iter      E             dE          RMSdq      gap      omega  full diag
   1    -16.9029033 -0.169029E+02  0.374E-05    3.78       0.0  T
   2    -16.9029033 -0.102318E-11  0.251E-05    3.78    1103.8  T
   3    -16.9029033 -0.323297E-12  0.758E-06    3.78    3656.9  T

   *** convergence criteria satisfied after 3 iterations ***

         #    Occupation            Energy/Eh            Energy/eV
      -------------------------------------------------------------
         1        2.0000           -0.7181542             -19.5420
       ...           ...                  ...                  ...
         9        2.0000           -0.5097868             -13.8720
        10        2.0000           -0.4867943             -13.2463
        11        2.0000           -0.4762103             -12.9583
        12        2.0000           -0.4705253             -12.8036
        13        2.0000           -0.4530276             -12.3275
        14        2.0000           -0.4488451             -12.2137
        15        2.0000           -0.4008706             -10.9082 (HOMO)
        16                         -0.2619235              -7.1273 (LUMO)
        17                          0.0686159               1.8671
        18                          0.0924523               2.5158
        19                          0.1088182               2.9611
        20                          0.1344845               3.6595
       ...                                ...                  ...
        28                          0.6223760              16.9357
      -------------------------------------------------------------
                  HL-Gap            0.1389470 Eh            3.7809 eV
             Fermi-level           -0.3313971 Eh           -9.0178 eV

 SCC (total)                   0 d,  0 h,  0 min,  0.005 sec
 SCC setup                      ...        0 min,  0.000 sec (  2.764%)
 Dispersion                     ...        0 min,  0.000 sec (  0.762%)
 classical contributions        ...        0 min,  0.000 sec (  0.271%)
 integral evaluation            ...        0 min,  0.001 sec ( 22.696%)
 iterations                     ...        0 min,  0.001 sec ( 14.132%)
 molecular gradient             ...        0 min,  0.003 sec ( 57.063%)
 printout                       ...        0 min,  0.000 sec (  1.874%)

         :::::::::::::::::::::::::::::::::::::::::::::::::::::
         ::                     SUMMARY                     ::
         :::::::::::::::::::::::::::::::::::::::::::::::::::::
         :: total energy             -16.686160357512 Eh    ::
         :: gradient norm              0.000090099408 Eh/a0 ::
         :: HOMO-LUMO gap              3.780941483244 eV    ::
         ::.................................................::
         :: SCC energy               -16.902895490914 Eh    ::
         :: -> isotropic ES            0.022633781135 Eh    ::
         :: -> anisotropic ES          0.003312699959 Eh    ::
         :: -> anisotropic XC          0.007571113045 Eh    ::
         :: -> dispersion             -0.006475017703 Eh    ::
         :: repulsion energy           0.216735133402 Eh    ::
         :: add. restraining           0.000000000000 Eh    ::
         :: total charge              -0.000000000000 e     ::
         :::::::::::::::::::::::::::::::::::::::::::::::::::::

           ------------------------------------------------- 
          |                Numerical Hessian                |
           ------------------------------------------------- 
step length          :   0.00500
SCC accuracy         :   0.30000
Hessian scale factor :   1.00000
frozen atoms in %    :   0.00000    0
RMS gradient         :   0.00009
estimated CPU  time      0.01 min
estimated wall time      0.01 min

writing file <hessian>.

 projected vibrational frequencies (cm⁻¹)
eigval :       -0.00    -0.00    -0.00     0.00     0.00     0.00
eigval :       70.95   171.50   210.41   249.73   340.15   403.08
eigval :      618.46   830.44   886.53   946.97   966.95   990.31
eigval :     1091.73  1154.14  1184.29  1265.71  1297.76  1384.51
eigval :     1404.46  1418.69  1486.53  1490.56  1499.58  1501.89
eigval :     1794.05  2733.85  2897.18  3033.82  3037.87  3042.35
eigval :     3044.52  3047.79  3053.45
           -------------------------------------------------
          |                Property Printout                |
           -------------------------------------------------

    * Orbital Energies and Occupations

         #    Occupation            Energy/Eh            Energy/eV
      -------------------------------------------------------------
         1        2.0000           -0.7181542             -19.5420
       ...           ...                  ...                  ...
         3        2.0000           -0.6112823             -16.6338
         4        2.0000           -0.6054542             -16.4752
         5        2.0000           -0.5750192             -15.6471
         6        2.0000           -0.5588438             -15.2069
         7        2.0000           -0.5423217             -14.7573
         8        2.0000           -0.5257339             -14.3059
         9        2.0000           -0.5097868             -13.8720
        10        2.0000           -0.4867943             -13.2463
        11        2.0000           -0.4762103             -12.9583
        12        2.0000           -0.4705253             -12.8036
        13        2.0000           -0.4530276             -12.3275
        14        2.0000           -0.4488451             -12.2137
        15        2.0000           -0.4008706             -10.9082 (HOMO)
        16                         -0.2619236              -7.1273 (LUMO)
        17                          0.0686159               1.8671
        18                          0.0924523               2.5158
        19                          0.1088181               2.9611
        20                          0.1344845               3.6595
        21                          0.1572694               4.2795
        22                          0.1865837               5.0772
        23                          0.2046421               5.5686
        24                          0.2219480               6.0395
        25                          0.2403584               6.5405
        26                          0.2604551               7.0873
       ...                                ...                  ...
        28                          0.6223759              16.9357
      -------------------------------------------------------------
                  HL-Gap            0.1389470 Eh            3.7809 eV
             Fermi-level           -0.3313971 Eh           -9.0178 eV

     #   Z          covCN         q      C6AA      α(0)
     1   6 C        3.756    -0.108    22.612     6.780
     2   6 C        3.850    -0.031    21.083     6.531
     3   6 C        3.756    -0.106    22.573     6.774
     4   6 C        2.762     0.213    23.497     7.938
     5   8 O        0.856    -0.319    20.126     6.015
     6   1 H        0.925     0.050     2.318     2.381
     7   1 H        0.925     0.045     2.377     2.411
     8   1 H        0.925     0.040     2.444     2.445
     9   1 H        0.923     0.058     2.220     2.330
    10   1 H        0.925     0.049     2.330     2.387
    11   1 H        0.925     0.040     2.449     2.447
    12   1 H        0.925     0.053     2.282     2.362
    13   1 H        0.922     0.013     2.836     2.634

 Mol. C6AA /au·bohr⁶  :       1277.854847
 Mol. C8AA /au·bohr⁸  :      27154.536829
 Mol. α(0) /au        :         53.434938


Wiberg/Mayer (AO) data.
largest (>0.10) Wiberg bond orders for each atom

 ---------------------------------------------------------------------------
     #   Z sym  total        # sym  WBO       # sym  WBO       # sym  WBO
 ---------------------------------------------------------------------------
     1   6 C    3.994 --     2 C    0.990     7 H    0.987     8 H    0.986
                             6 H    0.984
     2   6 C    3.996 --     3 C    1.008     4 C    0.995     1 C    0.990
                             9 H    0.933
     3   6 C    3.994 --     2 C    1.008    11 H    0.987    10 H    0.986
                            12 H    0.985
     4   6 C    3.912 --     5 O    1.933     2 C    0.995    13 H    0.929
     5   8 O    2.100 --     4 C    1.933
     6   1 H    0.997 --     1 C    0.984
     7   1 H    0.998 --     1 C    0.987
     8   1 H    0.998 --     1 C    0.986
     9   1 H    0.997 --     2 C    0.933
    10   1 H    0.998 --     3 C    0.986
    11   1 H    0.998 --     3 C    0.987
    12   1 H    0.997 --     3 C    0.985
    13   1 H    1.000 --     4 C    0.929
 ---------------------------------------------------------------------------

Topologies differ in total number of bonds
Writing topology from bond orders to xtbtopo.mol

molecular dipole:
                 x           y           z       tot (Debye)
 q only:        0.887       0.396      -0.264
   full:        0.972       0.575      -0.358       3.012
molecular quadrupole (traceless):
                xx          xy          yy          xz          yz          zz
 q only:       -2.776      -1.605       1.700       0.936       0.057       1.076
  q+dip:       -3.581      -2.735       1.651       0.987      -0.025       1.931
   full:       -3.925      -2.558       1.507       1.360       0.354       2.417

           -------------------------------------------------
          |                Geometry Summary                 |
           -------------------------------------------------

      molecular mass/u    :       72.1058745
   center of mass at/Å    :       -0.0000582       0.0002010      -0.0001025
  moments of inertia/u·Å² :        0.6558168E+02   0.1236292E+03   0.1700451E+03
rotational constants/cm⁻¹ :        0.2570479E+00   0.1363565E+00   0.9913623E-01

 * 10 selected distances

     #   Z          #   Z                                           value/Å
     1   6 C        2   6 C                                       1.5298246 (max)
     2   6 C        3   6 C                                       1.5247328
     4   6 C        5   8 O                                       1.1976005
     1   6 C        6   1 H                                       1.0870437
     1   6 C        7   1 H                                       1.0877180
     1   6 C        8   1 H                                       1.0877921
     2   6 C        9   1 H                                       1.0985297
     3   6 C       10   1 H                                       1.0873385
     3   6 C       11   1 H                                       1.0869873
     3   6 C       12   1 H                                       1.0868717 (min)

 * 3 distinct bonds (by element types)

   Z      Z             #   av. dist./Å        max./Å        min./Å
   1 H    6 C           7     1.0888973     1.0985297     1.0868717
   6 C    6 C           2     1.5272787     1.5298246     1.5247328
   6 C    8 O           1     1.1976005     1.1976005     1.1976005

           -------------------------------------------------
          |               Frequency Printout                |
           -------------------------------------------------
 projected vibrational frequencies (cm⁻¹)
eigval :       -0.00    -0.00    -0.00     0.00     0.00     0.00
eigval :       70.95   171.50   210.41   249.73   340.15   403.08
eigval :      618.46   830.44   886.53   946.97   966.95   990.31
eigval :     1091.73  1154.14  1184.29  1265.71  1297.76  1384.51
eigval :     1404.46  1418.69  1486.53  1490.56  1499.58  1501.89
eigval :     1794.05  2733.85  2897.18  3033.82  3037.87  3042.35
eigval :     3044.52  3047.79  3053.45
 reduced masses (amu)
   1:  8.64   2: 11.62   3: 11.62   4: 13.01   5: 11.03   6: 10.28   7:  9.54   8:  1.71
   9:  1.96  10: 10.72  11:  7.90  12:  7.45  13: 10.83  14:  8.58  15:  5.25  16:  2.85
  17:  6.13  18:  4.39  19:  4.78  20:  7.34  21:  6.09  22:  5.46  23:  6.44  24:  3.03
  25:  3.15  26:  3.07  27:  1.55  28:  1.59  29:  1.55  30:  1.58  31: 13.48  32:  1.68
  33:  1.74  34:  1.88  35:  1.89  36:  1.68  37:  1.80  38:  1.58  39:  1.49
 IR intensities (km·mol⁻¹)
   1:  0.47   2:  0.03   3:  0.08   4:  1.03   5:  3.03   6:  1.12   7:  4.88   8:  0.18
   9:  0.75  10:  6.30  11:  0.81  12:  3.47  13:  7.14  14: 12.07  15: 18.47  16:  5.84
  17: 23.33  18:  4.66  19:  1.42  20:  3.86  21:  2.56  22:  0.37  23:  4.06  24: 20.49
  25:  4.96  26:  4.35  27:  1.21  28:  0.92  29:  8.12  30:  4.44  31:291.85  32:152.52
  33: 24.14  34: 30.00  35: 12.93  36: 20.84  37: 31.02  38: 43.73  39: 17.15
 Raman intensities (Ä⁴*amu⁻¹)
   1:  0.00   2:  0.00   3:  0.00   4:  0.00   5:  0.00   6:  0.00   7:  0.00   8:  0.00
   9:  0.00  10:  0.00  11:  0.00  12:  0.00  13:  0.00  14:  0.00  15:  0.00  16:  0.00
  17:  0.00  18:  0.00  19:  0.00  20:  0.00  21:  0.00  22:  0.00  23:  0.00  24:  0.00
  25:  0.00  26:  0.00  27:  0.00  28:  0.00  29:  0.00  30:  0.00  31:  0.00  32:  0.00
  33:  0.00  34:  0.00  35:  0.00  36:  0.00  37:  0.00  38:  0.00  39:  0.00
 output can be read by thermo (or use thermo option).
 writing <g98.out> molden fake output.
 recommended (thermochemical) frequency scaling factor: 1.0
           -------------------------------------------------
          |             Thermodynamic Functions             |
           -------------------------------------------------

Molecule has no symmetry elements
It seems to be the C1 point group
c1  symmetry found (for desy threshold:  0.10E+00) used in thermo

          ...................................................
          :                      SETUP                      :
          :.................................................:
          :  # frequencies                          33      :
          :  # imaginary freq.                       0      :
          :  linear?                             false      :
          :  only rotor calc.                    false      :
          :  symmetry                               c1      :
          :  rotational number                       1      :
          :  scaling factor                  1.0000000      :
          :  rotor cutoff                    0.0000000 cm⁻¹ :
          :  imag. cutoff                 -100.0000000 cm⁻¹ :
          :.................................................:

    mode    ω/cm⁻¹     T·S(HO)/kcal·mol⁻¹    T·S(FR)/kcal·mol⁻¹   T·S(vib)
   ------------------------------------------------------------------------
       1     70.95    -1.23039 (100.00%)    -0.95228 (  0.00%)    -1.23039
       2    171.50    -0.72122 (100.00%)    -0.69117 (  0.00%)    -0.72122
       3    210.41    -0.60825 (100.00%)    -0.63064 (  0.00%)    -0.60825
       4    249.73    -0.51654 (100.00%)    -0.57992 (  0.00%)    -0.51654
   ------------------------------------------------------------------------

   temp. (K)  partition function   enthalpy   heat capacity  entropy
                                   cal/mol     cal/K/mol   cal/K/mol   J/K/mol
 298.15  VIB   22.7                 2285.728     15.550     13.874
         ROT  0.897E+05              888.752      2.981     25.644
         INT  0.204E+07             3174.480     18.531     39.518
         TR   0.592E+27             1481.254      4.968     38.726
         TOT                        4655.7341    23.4995    78.2439   327.3724

       T/K    H(0)-H(T)+PV         H(T)/Eh          T*S/Eh         G(T)/Eh
   ------------------------------------------------------------------------
    298.15    0.741938E-02    0.118025E+00    0.371762E-01    0.808487E-01
   ------------------------------------------------------------------------

         :::::::::::::::::::::::::::::::::::::::::::::::::::::
         ::                  THERMODYNAMIC                  ::
         :::::::::::::::::::::::::::::::::::::::::::::::::::::
         :: total free energy         -16.605311655046 Eh   ::
         ::.................................................::
         :: total energy              -16.686160357513 Eh   ::
         :: zero point energy           0.110605509516 Eh   ::
         :: G(RRHO) w/o ZPVE           -0.029756807049 Eh   ::
         :: G(RRHO) contrib.            0.080848702467 Eh   ::
         :::::::::::::::::::::::::::::::::::::::::::::::::::::

optimized geometry written to: xtbopt.coord


           -------------------------------------------------
          | TOTAL ENERGY              -16.686160357513 Eh   |
          | TOTAL ENTHALPY            -16.568135463398 Eh   |
          | TOTAL FREE ENERGY         -16.605311655046 Eh   |
          | GRADIENT NORM               0.000090145439 Eh/α |
          | HOMO-LUMO GAP               3.780939703800 eV   |
           -------------------------------------------------

------------------------------------------------------------------------
 * finished run on 2025/04/15 at 20:11:32.796     
------------------------------------------------------------------------
 total:
 * wall-time:     0 d,  0 h,  0 min,  0.546 sec
 *  cpu-time:     0 d,  0 h,  0 min,  0.508 sec
 * ratio c/w:     0.931 speedup
 SCF:
 * wall-time:     0 d,  0 h,  0 min,  0.035 sec
 *  cpu-time:     0 d,  0 h,  0 min,  0.016 sec
 * ratio c/w:     0.450 speedup
 ANC optimizer:
 * wall-time:     0 d,  0 h,  0 min,  0.083 sec
 *  cpu-time:     0 d,  0 h,  0 min,  0.080 sec
 * ratio c/w:     0.960 speedup
 analytical hessian:
 * wall-time:     0 d,  0 h,  0 min,  0.403 sec
 *  cpu-time:     0 d,  0 h,  0 min,  0.400 sec
 * ratio c/w:     0.991 speedup

