      -----------------------------------------------------------      
     |                   =====================                   |     
     |                           x T B                           |     
     |                   =====================                   |     
     |                         S. Grimme                         |     
     |          Mulliken Center for Theoretical Chemistry        |     
     |                    University of Bonn                     |     
      -----------------------------------------------------------      

   * xtb version 6.7.1 (edcfbbe) compiled by 'albert@albert-system' on 2024-07-22

   xtb is free software: you can redistribute it and/or modify it under
   the terms of the GNU Lesser General Public License as published by
   the Free Software Foundation, either version 3 of the License, or
   (at your option) any later version.
   
   xtb is distributed in the hope that it will be useful,
   but WITHOUT ANY WARRANTY; without even the implied warranty of
   MERCHANTABILITY or FITNESS FOR A PARTICULAR PURPOSE.  See the
   GNU Lesser General Public License for more details.
   
   Cite this work as:
   * C. Bannwarth, E. Caldeweyher, S. Ehlert, A. Hansen, P. Pracht,
     J. Seibert, S. Spicher, S. Grimme, WIREs Comput. Mol. Sci., 2020, 11,
     e01493. DOI: 10.1002/wcms.1493
   
   for GFN2-xTB:
   * C. Bannwarth, S. Ehlert and S. Grimme., J. Chem. Theory Comput., 2019,
     15, 1652-1671. DOI: 10.1021/acs.jctc.8b01176
   for GFN1-xTB:
   * S. Grimme, C. Bannwarth, P. Shushkov, J. Chem. Theory Comput., 2017,
     13, 1989-2009. DOI: 10.1021/acs.jctc.7b00118
   for GFN0-xTB:
   * P. Pracht, E. Caldeweyher, S. Ehlert, S. Grimme, ChemRxiv, 2019, preprint.
     DOI: 10.26434/chemrxiv.8326202.v1
   for GFN-FF:
   * S. Spicher and S. Grimme, Angew. Chem. Int. Ed., 2020, 59, 15665-15673.
     DOI: 10.1002/anie.202004239
   
   for ALPB and GBSA implicit solvation:
   * S. Ehlert, M. Stahn, S. Spicher, S. Grimme, J. Chem. Theory Comput.,
     2021, 17, 4250-4261. DOI: 10.1021/acs.jctc.1c00471
   
   for ddCOSMO and CPCM-X implicit solvation:
   * M. Stahn, S. Ehlert, S. Grimme, J. Phys. Chem. A,
     2023, XX, XXXX-XXXX. DOI: 10.1021/acs.jpca.3c04382
   
   for DFT-D4:
   * E. Caldeweyher, C. Bannwarth and S. Grimme, J. Chem. Phys., 2017,
     147, 034112. DOI: 10.1063/1.4993215
   * E. Caldeweyher, S. Ehlert, A. Hansen, H. Neugebauer, S. Spicher,
     C. Bannwarth and S. Grimme, J. Chem. Phys., 2019, 150, 154122.
     DOI: 10.1063/1.5090222
   * E. Caldeweyher, J.-M. Mewes, S. Ehlert and S. Grimme, Phys. Chem. Chem. Phys.
     2020, 22, 8499-8512. DOI: 10.1039/D0CP00502A
   
   for sTDA-xTB:
   * S. Grimme and C. Bannwarth, J. Chem. Phys., 2016, 145, 054103.
     DOI: 10.1063/1.4959605
   
   in the mass-spec context:
   * V. Asgeirsson, C. Bauer and S. Grimme, Chem. Sci., 2017, 8, 4879.
     DOI: 10.1039/c7sc00601b
   * J. Koopman and S. Grimme, ACS Omega 2019, 4, 12, 15120-15133.
     DOI: 10.1021/acsomega.9b02011
   
   for metadynamics refer to:
   * S. Grimme, J. Chem. Theory Comput., 2019, 155, 2847-2862
     DOI: 10.1021/acs.jctc.9b00143
   
   for SPH calculations refer to:
   * S. Spicher and S. Grimme, J. Chem. Theory Comput., 2021, 17, 1701-1714
     DOI: 10.1021/acs.jctc.0c01306
   
   for ONIOM refer to:
   * C. Plett, A. Katbashev, S. Ehlert, S. Grimme, M. Bursch,
     Phys. Chem. Chem. Phys., 2023, 25, 17860-17868. DOI: 10.1039/D3CP02178E
   
   for DIPRO refer to:
   * J. Kohn, N. Gildemeister, S. Grimme, D. Fazzi, A. Hansen,
     J. Chem. Phys., 2023, just accepted.
   
   for PTB refer to:
   * S. Grimme, M. Mueller, A. Hansen, J. Chem. Phys., 2023, 158, 124111.
     DOI: 10.1063/5.0137838
   
   with help from (in alphabetical order)
   P. Atkinson, C. Bannwarth, F. Bohle, G. Brandenburg, E. Caldeweyher
   M. Checinski, S. Dohm, S. Ehlert, S. Ehrlich, I. Gerasimov, C. Hölzer
   A. Katbashev, J. Kohn, J. Koopman, C. Lavigne, S. Lehtola, F. März, M. Müller,
   F. Musil, H. Neugebauer, J. Pisarek, C. Plett, P. Pracht, F. Pultar,
   J. Seibert, P. Shushkov, S. Spicher, M. Stahn, M. Steiner, T. Strunk,
   J. Stückrath, T. Rose, and J. Unsleber
   
 * started run on 2025/04/16 at 11:25:07.537     
   ID    Z sym.   atoms
    1    6 C      1, 2, 4, 6, 8, 10
    2    1 H      3, 5, 7, 9, 11, 18-24
    3    8 O      12-17

           -------------------------------------------------
          |                Calculation Setup                |
           -------------------------------------------------

          program call               : /software/projects/pawsey0265/mwang1/xtb/bin/xtb xtb_opt.coord --opt normal --orca -I xtb_opt-xcontrol-inp
          hostname                   : nid002811
          coordinate file            : xtb_opt.coord
          omp threads                :                   128

           -------------------------------------------------
          |                   Orca driver                   |
           -------------------------------------------------
orca executable           : /software/projects/pawsey0265/mwang1/orca_avx2/orca
orca input file           : xtb_opt.inp
orca input line           : 
orca parallel             : true
orca number of threads    : 128
                         * ORCA takes the control...
  ------------------------------------------------------------------------

                                 *****************
                                 * O   R   C   A *
                                 *****************

                                            #,                                       
                                            ###                                      
                                            ####                                     
                                            #####                                    
                                            ######                                   
                                           ########,                                 
                                     ,,################,,,,,                         
                               ,,#################################,,                 
                          ,,##########################################,,             
                       ,#########################################, ''#####,          
                    ,#############################################,,   '####,        
                  ,##################################################,,,,####,       
                ,###########''''           ''''###############################       
              ,#####''   ,,,,##########,,,,          '''####'''          '####       
            ,##' ,,,,###########################,,,                        '##       
           ' ,,###''''                  '''############,,,                           
         ,,##''                                '''############,,,,        ,,,,,,###''
      ,#''                                            '''#######################'''  
     '                                                          ''''####''''         
             ,#######,   #######,   ,#######,      ##                                
            ,#'     '#,  ##    ##  ,#'     '#,    #''#        ,####,   ,####,        
            ##       ##  ##   ,#'  ##            #'  '#       #'       #'  '#        
            ##       ##  #######   ##           ,######,      #####,   #    #        
            '#,     ,#'  ##    ##  '#,     ,#' ,#      #,     #,   #   #,  ,#        
             '#######'   ##     ##  '#######'  #'      '#     '####' # '####'        



                #########################################################
                #                        -***-                          #
                #          Department of theory and spectroscopy        #
                #                                                       #
                #                      Frank Neese                      #
                #                                                       #
                #     Directorship, Architecture, Infrastructure        #
                #                    SHARK, DRIVERS                     #
                #        Core code/Algorithms in most modules           #
                #                                                       #
                #        Max Planck Institute fuer Kohlenforschung      #
                #                Kaiser Wilhelm Platz 1                 #
                #                 D-45470 Muelheim/Ruhr                 #
                #                      Germany                          #
                #                                                       #
                #                  All rights reserved                  #
                #                        -***-                          #
                #########################################################


                         Program Version 6.0.1  -  RELEASE   -


 With contributions from (in alphabetic order):
[Max-Planck-Institut fuer Kohlenforschung]                               
  Daniel Aravena         : Magnetic Suceptibility                        
  Michael Atanasov       : Ab Initio Ligand Field Theory (pilot matlab implementation)
  Alexander A. Auer      : GIAO ZORA, VPT2 properties, NMR spectrum      
  Ute Becker             : All parallelization in ORCA, NUMFREQ, NUMCALC 
  Giovanni Bistoni       : ED, misc. LED, open-shell LED, HFLD           
  Martin Brehm           : Molecular dynamics                            
  Dmytro Bykov           : pre 5.0 version of the SCF Hessian            
  Marcos Casanova-Páez   : Triplet and SCS-CIS(D). UHF-(DLPNO)-IP/EA/STEOM-CCSD. UHF-CVS-IP/STEOM-CCSD   
  Vijay G. Chilkuri      : MRCI spin determinant printing, contributions to CSF-ICE 
  Pauline Colinet        : FMM embedding                                 
  Dipayan Datta          : RHF DLPNO-CCSD density                        
  Achintya Kumar Dutta   : EOM-CC, STEOM-CC                              
  Nicolas Foglia         : Exact transition moments, OPA infrastructure, MCD improvements    
  Dmitry Ganyushin       : Spin-Orbit,Spin-Spin,Magnetic field MRCI      
  Miquel Garcia-Rates    : C-PCM and meta-GGA Hessian, CCSD/C-PCM, Gaussian charge scheme 
  Tiago L. C. Gouveia    : GS-ROHF, GS-ROCIS                             
  Yang Guo               : DLPNO-NEVPT2, F12-NEVPT2, CIM, IAO-localization        
  Andreas Hansen         : Spin unrestricted coupled pair/coupled cluster methods 
  Ingolf Harden          : AUTO-CI MPn and infrastructure                
  Benjamin Helmich-Paris : MC-RPA, TRAH-(SCF,CASSCF), AVAS, COSX integrals, SCF dyn. polar. 
  Lee Huntington         : MR-EOM, pCC                                   
  Robert Izsak           : Overlap fitted RIJCOSX, COSX-SCS-MP3, EOM     
  Riya Kayal             : Wick's Theorem for AUTO-CI, AUTO-CI UHF-CCSDT 
  Emily Kempfer          : AUTO-CI, RHF CISDT and CCSDT                  
  Christian Kollmar      : KDIIS, OOCD, Brueckner-CCSD(T), CCSD density, CASPT2, CASPT2-K, improved NEVPT2 
  Axel Koslowski         : Symmetry handling                             
  Simone Kossmann        : meta-GGA functionals, TD-DFT gradient, OOMP2, (MP2 Hessian; deprecated post 5.0) 
  Lucas Lang             : DCDCAS                                        
  Marvin Lechner         : AUTO-CI (C++ implementation), FIC-MRCC        
  Spencer Leger          : CASSCF response                               
  Dagmar Lenk            : GEPOL surface, SMD, ORCA-2-JSON               
  Dimitrios Liakos       : Extrapolation schemes; Compound Job, initial MDCI parallelization 
  Dimitrios Manganas     : Further ROCIS development; embedding schemes. LFT, Crystal Embedding 
  Dimitrios Pantazis     : SARC Basis sets                               
  Anastasios Papadopoulos: AUTO-CI, single reference methods and gradients 
  Taras Petrenko         : pre 6.0 DFT Hessian and TD-DFT gradient, (ASA, deprecated), ECA, 1-Electron XAS/XES, NRVS 
  Peter Pinski           : DLPNO-MP2, DLPNO-MP2 Gradient                 
  Christoph Reimann      : Effective Core Potentials                     
  Marius Retegan         : Local ZFS, SOC                                
  Christoph Riplinger    : Optimizer, TS searches, QM/MM, DLPNO-CCSD(T), (RO)-DLPNO pert. Triples 
  Michael Roemelt        : Original ROCIS implementation                 
  Masaaki Saitow         : Open-shell DLPNO-CCSD energy and density      
  Barbara Sandhoefer     : DKH picture change effects                    
  Kantharuban Sivalingam : CASSCF convergence/infrastructure, NEVPT2 and variants, FIC-MRCI 
  Bernardo de Souza      : ESD, SOC TD-DFT                               
  Georgi L. Stoychev     : AutoAux, RI-MP2 NMR, DLPNO-MP2 response, X2C  
  Van Anh Tran           : RI-MP2 g-tensors                              
  Willem Van den Heuvel  : Paramagnetic NMR                              
  Zikuan Wang            : NOTCH, Electric field optimization            
  Frank Wennmohs         : Technical directorship and infrastructure     
  Hang Xu                : AUTO-CI-Response properties                   
                                                                         
[FACCTs GmbH]                                                            
  Markus Bursch, Miquel Garcia-Rates, Christoph Riplinger, Bernardo de Souza, Georgi L. Stoychev 
                                                                 
  APM, Basis sets (HGBS, AHGBS, def-TZVP (Ac-Lr), def2-XVPD (La-Lu)), CI-OPT, improved COSX, DLPNO-Multilevel,           
  DOCKER, DRACO, updates on ESD, GOAT, IRC, LR-CPCM, MBIS, meta-GGA TD-DFT gradient, ML-optimized integration grids, 
  MM, NACMEs, nearIR, NEB, NEB-TS, NL-DFT gradient (VV10), 2- and 3-layer-ONIOM, interface openCOSMO-RS, QMMM,   
  Crystal-QMMM, SF, symmetry and pop. for TD-DFT, r2SCAN hybrids, SOLVATOR                                   
                                                                         
[Other institutions]                                                     
  V. Asgeirsson          : NEB                                           
  Christoph Bannwarth    : sTDA-DFT, sTD-DFT, PBEh-3c, B97-3c, D3        
  Sebastian Ehlert       : rSCAN, r2SCAN, r2SCAN-3c, D4, dhf basis sets  
  Marvin Friede          : D4 for Fr, Ra, Ac-Lr                          
  Lars Goerigk           : TD-DFT with DH, B97 family of functionals     
  Stefan Grimme          : VdW corrections, initial TS optimization, DFT functionals, gCP, sTDA/sTD-DF 
  Waldemar Hujo          : DFT-NL                                        
  H. Jonsson             : NEB                                           
  Holger Kruse           : gCP                                           
  Marcel Mueller         : wB97X-3c, vDZP basis set                      
  Hagen Neugebauer       : wr2SCAN                                       
  Tobias Risthaus        : range-separated hybrid DFT                    
  Lukas Wittmann         : regularized MP2, r2SCAN double-hybrids, wr2SCAN        
                                                                         
We gratefully acknowledge several colleagues who have allowed us to      
interface, adapt or use parts of their codes:                            
  Ed Valeev, F. Pavosevic, A. Kumar             : LibInt (2-el integral package), F12 methods 
  Garnet Chan, S. Sharma, J. Yang, R. Olivares  : DMRG                   
  Ulf Ekstrom                                   : XCFun DFT Library      
  Mihaly Kallay                                 : mrcc  (arbitrary order and MRCC methods)
  Frank Weinhold                                : gennbo (NPA and NBO analysis)           
  Simon Mueller                                 : openCOSMO-RS                            
  Christopher J. Cramer and Donald G. Truhlar   : smd solvation model                     
  S Lehtola, MJT Oliveira, MAL Marques          : LibXC Library                           
  Liviu Ungur et al                             : ANISO software                          


 Your calculation uses the libint2 library for the computation of 2-el integrals
 For citations please refer to: http://libint.valeyev.net

 Your ORCA version has been built with support for libXC version: 6.2.2
 For citations please refer to: https://libxc.gitlab.io

 This ORCA versions uses:
   CBLAS   interface :  Fast vector & matrix operations
   LAPACKE interface :  Fast linear algebra routines
   SCALAPACK package :  Parallel linear algebra routines
   Shared memory     :  Shared parallel matrices
   BLAS/LAPACK       :  OpenBLAS 0.3.27  USE64BITINT DYNAMIC_ARCH NO_AFFINITY Zen SINGLE_THREADED
        Core in use  :  Zen
   Copyright (c) 2011-2014, The OpenBLAS Project




***************************************
The coordinates will be read from file: xtb_opt.xyz
***************************************


Your calculation utilizes the geometrical counterpoise correction gCP
Please cite in your paper:
H.Kruse, S. Grimme J.Chem.Phys., 136, (2012), 154101 
   

Your calculation utilizes the atom-pairwise dispersion correction
based on EEQ partial charges (D4)


================================================================================

----- Orbital basis set information -----
Your calculation utilizes the basis: def2-mTZVPP
   Stefan Grimme, Andreas Hansen, Sebastian Ehlert, and Jan-Michael Mewes 
   J. Chem. Phys. 154, 064103 (2021). DOI: 10.1063/5.0040021

----- AuxJ basis set information -----
Your calculation utilizes the auxiliary basis: def2/J
   F. Weigend, Phys. Chem. Chem. Phys. 8, 1057 (2006).

================================================================================
                                        WARNINGS
                       Please study these warnings very carefully!
================================================================================

WARNING: Old DensityContainer found on disk!
         Will remove this file - 
         If you want to keep old densities, please start your calculation with a different basename. 



WARNING: SCAN, rSCAN, or r2SCAN functional requested.
  ===> : libXC variant has now been activated.



================================================================================
                                       INPUT FILE
================================================================================
NAME = xtb_opt.inp
|  1> ! r2scan-3c def2/J RI DEFGRID2 scfconv7 ENGRAD tightSCF miniprint
|  2> * xyzfile 0 1 xtb_opt.xyz
|  3> 
|  4>                          ****END OF INPUT****
================================================================================

                     *******************************
                     * Energy+Gradient Calculation *
                     *******************************

---------------------------------
CARTESIAN COORDINATES (ANGSTROEM)
---------------------------------
  C     -2.140081   -0.917930   -0.273007
  C     -1.186631   -0.327461    0.762842
  H     -1.738465   -0.343548    1.710711
  C     -0.751924    1.132032    0.560906
  H     -1.610678    1.698802    0.179830
  C      0.407516    1.299274   -0.440477
  H      0.827320    2.298122   -0.271856
  C      1.538747    0.301045   -0.127460
  H      2.221421    0.265554   -0.986262
  C      1.058335   -1.125611    0.182280
  H      1.849860   -1.651988    0.737415
  O     -0.050350   -1.192713    1.034529
  O      0.850760   -1.816416   -1.062660
  O      2.194623    0.820213    1.042702
  O      0.009745    1.245727   -1.792898
  O     -0.417220    1.709614    1.821152
  O     -1.693199   -0.901276   -1.628760
  H     -3.065665   -0.331645   -0.247926
  H     -2.383839   -1.945113    0.036335
  H      0.789254   -2.757308   -0.853742
  H      2.935679    0.247540    1.270165
  H     -0.680495    0.561241   -1.892194
  H      0.472608    1.403580    2.049412
  H     -0.867605   -1.420427   -1.656882

----------------------------
CARTESIAN COORDINATES (A.U.)
----------------------------
  NO LB      ZA    FRAG     MASS         X           Y           Z
   0 C     6.0000    0    12.011   -4.044166   -1.734636   -0.515908
   1 C     6.0000    0    12.011   -2.242407   -0.618811    1.441562
   2 H     1.0000    0     1.008   -3.285223   -0.649212    3.232776
   3 C     6.0000    0    12.011   -1.420931    2.139231    1.059958
   4 H     1.0000    0     1.008   -3.043740    3.210270    0.339830
   5 C     6.0000    0    12.011    0.770093    2.455273   -0.832380
   6 H     1.0000    0     1.008    1.563408    4.342822   -0.513733
   7 C     6.0000    0    12.011    2.907811    0.568892   -0.240865
   8 H     1.0000    0     1.008    4.197877    0.501823   -1.863766
   9 C     6.0000    0    12.011    1.999963   -2.127096    0.344459
  10 H     1.0000    0     1.008    3.495729   -3.121804    1.393512
  11 O     8.0000    0    15.999   -0.095149   -2.253901    1.954977
  12 O     8.0000    0    15.999    1.607703   -3.432530   -2.008136
  13 O     8.0000    0    15.999    4.147237    1.549978    1.970422
  14 O     8.0000    0    15.999    0.018415    2.354083   -3.388086
  15 O     8.0000    0    15.999   -0.788432    3.230703    3.441478
  16 O     8.0000    0    15.999   -3.199682   -1.703166   -3.077911
  17 H     1.0000    0     1.008   -5.793267   -0.626718   -0.468513
  18 H     1.0000    0     1.008   -4.504803   -3.675730    0.068663
  19 H     1.0000    0     1.008    1.491473   -5.210557   -1.613338
  20 H     1.0000    0     1.008    5.547629    0.467784    2.400264
  21 H     1.0000    0     1.008   -1.285949    1.060591   -3.575729
  22 H     1.0000    0     1.008    0.893100    2.652381    3.872827
  23 H     1.0000    0     1.008   -1.639536   -2.684219   -3.131053

------------------------------------------------------------------------------
                   ___                                                        
                  /   \      - P O W E R E D   B Y -                         
                 /     \                                                     
                 |  |  |   _    _      __       _____    __    __             
                 |  |  |  | |  | |    /  \     |  _  \  |  |  /  |          
                  \  \/   | |  | |   /    \    | | | |  |  | /  /          
                 / \  \   | |__| |  /  /\  \   | |_| |  |  |/  /          
                |  |  |   |  __  | /  /__\  \  |    /   |      \           
                |  |  |   | |  | | |   __   |  |    \   |  |\   \          
                \     /   | |  | | |  |  |  |  | |\  \  |  | \   \       
                 \___/    |_|  |_| |__|  |__|  |_| \__\ |__|  \__/        
                                                                              
                      - O R C A' S   B I G   F R I E N D -                    
                                      &                                       
                       - I N T E G R A L  F E E D E R -                       
                                                                              
 v1 FN, 2020, v2 2021, v3 2022-2024                                           
------------------------------------------------------------------------------


----------------------
SHARK INTEGRAL PACKAGE
----------------------

Number of atoms                             ...     24
Number of basis functions                   ...    318
Number of shells                            ...    150
Maximum angular momentum                    ...      2
Integral batch strategy                     ... SHARK/LIBINT Hybrid
RI-J (if used) integral strategy            ... SPLIT-RIJ (Revised 2003 algorithm where possible)
Printlevel                                  ...      1
Contraction scheme used                     ... SEGMENTED contraction
Prescreening option                         ... SCHWARTZ
   Thresh                                   ... 3.000e-11
   Tcut                                     ... 1.000e-12
   Tpresel                                  ... 1.000e-12 
Coulomb Range Separation                    ... NOT USED
Exchange Range Separation                   ... NOT USED
Multipole approximations                    ... NOT USED
Finite Nucleus Model                        ... NOT USED
CABS basis                                  ... NOT available
Auxiliary Coulomb fitting basis             ... AVAILABLE
   # of basis functions in Aux-J            ...    720
   # of shells in Aux-J                     ...    240
   Maximum angular momentum in Aux-J        ...      4
Auxiliary J/K fitting basis                 ... NOT available
Auxiliary Correlation fitting basis         ... NOT available
Auxiliary 'external' fitting basis          ... NOT available

Checking pre-screening integrals            ... done (  0.0 sec) Dimension = 150
Check shell pair data                       ... done (  0.0 sec)
Shell pair information
Shell pair cut-off parameter TPreSel        ...   1.0e-12
Total number of shell pairs                 ...     11325
Shell pairs after pre-screening             ...     10178
Total number of primitive shell pairs       ...     40203
Primitive shell pairs kept                  ...     24943
          la=0 lb=0:   3079 shell pairs
          la=1 lb=0:   3617 shell pairs
          la=1 lb=1:   1097 shell pairs
          la=2 lb=0:   1394 shell pairs
          la=2 lb=1:    824 shell pairs
          la=2 lb=2:    167 shell pairs

Calculating one electron integrals          ... done (  0.1 sec)
Calculating RI/J V-Matrix + Cholesky decomp.... done (  0.0 sec)
Calculating Nuclear repulsion               ... done (  0.0 sec) ENN=    867.418585444454 Eh

Diagonalization of the overlap matrix:
Smallest eigenvalue                        ... 3.966e-05
Time for diagonalization                   ...    0.022 sec
Threshold for overlap eigenvalues          ... 1.000e-07
Number of eigenvalues below threshold      ... 0
Time for construction of square roots      ...    0.014 sec
Total time needed                          ...    0.037 sec

-------------------
DFT GRID GENERATION
-------------------

General Integration Accuracy     IntAcc      ... 4.388
Radial Grid Type                 RadialGrid  ... OptM3 with GC (2021)
Angular Grid (max. ang.)         AngularGrid ... 4 (Lebedev-302)
Angular grid pruning method      GridPruning ... 4 (adaptive)
Weight generation scheme         WeightScheme... mBecke (2022)
Basis function cutoff            BFCut       ... 1.0000e-11
Integration weight cutoff        WCut        ... 1.0000e-14
Partially contracted basis set               ... off
Rotationally invariant grid construction     ... off
Angular grids for H and He will be reduced by one unit
Diffuse basis detected: some atoms will have their outermost
                        angular grid increased by 1.

Total number of grid points                  ...   111794
Total number of batches                      ...     1758
Average number of points per batch           ...       63
Average number of grid points per atom       ...     4658
Initializing property integral containers    ... done (  0.0 sec)

SHARK setup successfully completed in   1.6 seconds

Maximum memory used throughout the entire STARTUP-calculation: 57.6 MB
Occupation numbers will be reassigned to an Aufbau configuration
             **** ENERGY FILE WAS UPDATED (xtb_opt.en.tmp) ****
Finished Guess after   0.1 sec
Maximum memory used throughout the entire GUESS-calculation: 28.3 MB
----------------------------------------D-I-I-S--------------------------------------------
Iteration    Energy (Eh)           Delta-E    RMSDP     MaxDP     DIISErr   Damp  Time(sec)
-------------------------------------------------------------------------------------------
               ***  Starting incremental Fock matrix formation  ***
                              *** Initializing SOSCF ***
---------------------------------------S-O-S-C-F--------------------------------------
Iteration    Energy (Eh)           Delta-E    RMSDP     MaxDP     MaxGrad    Time(sec)
--------------------------------------------------------------------------------------
    1    -687.0899711774509342     0.00e+00  4.45e-06  1.50e-04  8.84e-06     4.8
               *** Restarting incremental Fock matrix formation ***
    2    -687.0899711288122944     4.86e-08  7.75e-06  2.51e-04  3.41e-05     4.7
    3    -687.0899707117359867     4.17e-07  5.63e-06  1.55e-04  6.94e-05     3.1
    4    -687.0899712673863178    -5.56e-07  1.26e-06  8.70e-05  3.60e-06     3.1
                  *** Gradient check signals convergence ***

               *****************************************************
               *                     SUCCESS                       *
               *           SCF CONVERGED AFTER   4 CYCLES          *
               *****************************************************

             **** ENERGY FILE WAS UPDATED (xtb_opt.en.tmp) ****

----------------
TOTAL SCF ENERGY
----------------

Total Energy       :       -687.08997126738632 Eh          -18696.66864 eV

Components:
Nuclear Repulsion  :        867.41858544445427 Eh           23603.65970 eV
Electronic Energy  :      -1554.50855671184058 Eh          -42300.32834 eV
One Electron Energy:      -2664.79991786810524 Eh          -72512.89225 eV
Two Electron Energy:       1110.29136115626466 Eh           30212.56391 eV

Virial components:
Potential Energy   :      -1371.32819970266883 Eh          -37315.73741 eV
Kinetic Energy     :        684.23822843528262 Eh           18619.06877 eV
Virial Ratio       :          2.00416776308834

DFT components:
N(Alpha)           :       48.000182948595 electrons
N(Beta)            :       48.000182948595 electrons
N(Total)           :       96.000365897190 electrons
E(X)               :      -85.230204560604 Eh       
E(C)               :       -3.197704648439 Eh       
E(XC)              :      -88.427909209043 Eh       

---------------
SCF CONVERGENCE
---------------

  Last Energy change         ...    5.5565e-07  Tolerance :   1.0000e-07
  Last MAX-Density change    ...    8.6970e-05  Tolerance :   1.0000e-07
  Last RMS-Density change    ...    1.2568e-06  Tolerance :   5.0000e-09
  Last DIIS Error            ...    1.8415e-04  Tolerance :   1.0000e-07
  Last Orbital Gradient      ...    3.6047e-06  Tolerance :   1.0000e-04
  Last Orbital Rotation      ...    7.6898e-06  Tolerance :   1.0000e-04


----------------
ORBITAL ENERGIES
----------------

  NO   OCC          E(Eh)            E(eV) 
   0   2.0000     -18.995576      -516.8959 
   1   2.0000     -18.982970      -516.5529 
   2   2.0000     -18.981479      -516.5123 
   3   2.0000     -18.964995      -516.0638 
   4   2.0000     -18.944186      -515.4975 
   5   2.0000     -18.937457      -515.3144 
   6   2.0000     -10.160025      -276.4683 
   7   2.0000     -10.103203      -274.9221 
   8   2.0000     -10.098302      -274.7888 
   9   2.0000     -10.093924      -274.6696 
  10   2.0000     -10.091940      -274.6157 
  11   2.0000     -10.089586      -274.5516 
  12   2.0000      -1.058349       -28.7992 
  13   2.0000      -1.014363       -27.6022 
  14   2.0000      -1.001362       -27.2484 
  15   2.0000      -0.995794       -27.0969 
  16   2.0000      -0.981890       -26.7186 
  17   2.0000      -0.972277       -26.4570 
  18   2.0000      -0.755269       -20.5519 
  19   2.0000      -0.742789       -20.2123 
  20   2.0000      -0.669848       -18.2275 
  21   2.0000      -0.634192       -17.2572 
  22   2.0000      -0.612965       -16.6796 
  23   2.0000      -0.548891       -14.9361 
  24   2.0000      -0.520135       -14.1536 
  25   2.0000      -0.512816       -13.9544 
  26   2.0000      -0.499172       -13.5831 
  27   2.0000      -0.485830       -13.2201 
  28   2.0000      -0.473409       -12.8821 
  29   2.0000      -0.453955       -12.3527 
  30   2.0000      -0.443239       -12.0611 
  31   2.0000      -0.433379       -11.7928 
  32   2.0000      -0.413429       -11.2500 
  33   2.0000      -0.395547       -10.7634 
  34   2.0000      -0.389139       -10.5890 
  35   2.0000      -0.373538       -10.1645 
  36   2.0000      -0.369110       -10.0440 
  37   2.0000      -0.346841        -9.4380 
  38   2.0000      -0.338175        -9.2022 
  39   2.0000      -0.327791        -8.9196 
  40   2.0000      -0.306687        -8.3454 
  41   2.0000      -0.301033        -8.1915 
  42   2.0000      -0.290320        -7.9000 
  43   2.0000      -0.275559        -7.4983 
  44   2.0000      -0.267095        -7.2680 
  45   2.0000      -0.250821        -6.8252 
  46   2.0000      -0.239703        -6.5227 
  47   2.0000      -0.223731        -6.0880 
  48   0.0000       0.012326         0.3354 
  49   0.0000       0.032841         0.8937 
  50   0.0000       0.057810         1.5731 
  51   0.0000       0.070937         1.9303 
  52   0.0000       0.075185         2.0459 
  53   0.0000       0.091995         2.5033 
  54   0.0000       0.102024         2.7762 
  55   0.0000       0.113019         3.0754 
  56   0.0000       0.128606         3.4996 
  57   0.0000       0.133679         3.6376 
  58   0.0000       0.141729         3.8566 
*Only the first 10 virtual orbitals were printed.
Total SCF time: 0 days 0 hours 0 min 15 sec 
Finished LeanSCF after  16.8 sec

Maximum memory used throughout the entire LEANSCF-calculation: 41.4 MB


-------------------------------------------------------------------------------
                          DFT DISPERSION CORRECTION                            
                                                                               
                                DFTD4 V3.4.0                                   
-------------------------------------------------------------------------------
-------------------------   ----------------
Dispersion correction           -0.008803607
-------------------------   ----------------

------------------   -----------------
gCP correction             0.022146053
------------------   -----------------

-------------------------   --------------------
FINAL SINGLE POINT ENERGY      -687.076628821798
-------------------------   --------------------

------------------------------------------------------------------------------
                         ORCA SCF GRADIENT CALCULATION
------------------------------------------------------------------------------

Nuc. rep. gradient        (SHARK) ... done (  0.0 sec)
HCore & Overlap gradient  (SHARK) ... done (  0.7 sec)
Split-RIJ-J gradient      (SHARK) ... done (  3.7 sec)
XC gradient                       ... done ( 14.0 sec)
Dispersion correction             ... done (  0.0 sec)

-------------------
DISPERSION GRADIENT
-------------------

   1   C   :   -0.000124769   -0.000050959   -0.000003008
   2   C   :   -0.000062199   -0.000018923    0.000038640
   3   H   :   -0.000039828   -0.000007649    0.000044122
   4   C   :   -0.000037655    0.000067852    0.000030871
   5   H   :   -0.000030244    0.000046074    0.000012571
   6   C   :    0.000030836    0.000078320   -0.000014917
   7   H   :    0.000016640    0.000050341   -0.000011583
   8   C   :    0.000088262    0.000014570   -0.000001729
   9   H   :    0.000052320    0.000008997   -0.000019201
  10   C   :    0.000067565   -0.000059381    0.000009040
  11   H   :    0.000035986   -0.000037520    0.000008415
  12   O   :    0.000000381   -0.000072206    0.000058997
  13   O   :    0.000059510   -0.000123785   -0.000042450
  14   O   :    0.000125181    0.000025717    0.000047181
  15   O   :   -0.000015791    0.000066697   -0.000112556
  16   O   :   -0.000002560    0.000084531    0.000100338
  17   O   :   -0.000067437   -0.000060224   -0.000084518
  18   H   :   -0.000056559   -0.000015740   -0.000009084
  19   H   :   -0.000048999   -0.000031142   -0.000002792
  20   H   :    0.000024271   -0.000042290   -0.000021027
  21   H   :    0.000042012    0.000015206    0.000018897
  22   H   :    0.000006465    0.000038122   -0.000046628
  23   H   :   -0.000018601    0.000040624    0.000034163
  24   H   :   -0.000044787   -0.000017233   -0.000033745

Difference to translation invariance:
           :    0.0000000000    0.0000000000    0.0000000000

Difference to rotation invariance:
           :   -0.0000000000    0.0000000000   -0.0000000000

Norm of the Dispersion gradient    ...    0.0004361468
RMS gradient                       ...    0.0000514004
MAX gradient                       ...    0.0001251815
gCP correction                   ... done

------------------
CARTESIAN GRADIENT
------------------

   1   C   :    0.000033474   -0.000061161   -0.000373452
   2   C   :    0.000085189    0.000014274    0.000016099
   3   H   :   -0.000056546    0.000036019   -0.000046138
   4   C   :    0.000025916    0.000279039    0.000288650
   5   H   :   -0.000055168   -0.000003479    0.000025049
   6   C   :   -0.000125513    0.000094560   -0.000282189
   7   H   :   -0.000006019   -0.000034342    0.000026642
   8   C   :    0.000289223    0.000143985    0.000047472
   9   H   :   -0.000025004   -0.000030523   -0.000039372
  10   C   :   -0.000292222   -0.000167621    0.000177308
  11   H   :    0.000026864    0.000019486    0.000006588
  12   O   :    0.000158039    0.000048495   -0.000180780
  13   O   :    0.000011713   -0.000266499    0.000038011
  14   O   :    0.000022362   -0.000157212    0.000038386
  15   O   :    0.000018947   -0.000011325    0.000219291
  16   O   :    0.000082347   -0.000085293   -0.000112797
  17   O   :    0.000120978   -0.000024766    0.000229176
  18   H   :   -0.000056015   -0.000001992    0.000026241
  19   H   :   -0.000030825   -0.000023856    0.000061182
  20   H   :    0.000043880    0.000176156   -0.000090236
  21   H   :   -0.000051839    0.000095539   -0.000073285
  22   H   :   -0.000023569   -0.000079836   -0.000019828
  23   H   :   -0.000021386   -0.000025834    0.000055001
  24   H   :   -0.000174825    0.000066188   -0.000037021

Difference to translation invariance:
           :   -0.0000000000   -0.0000000000    0.0000000000

Difference to rotation invariance:
           :    0.0004572668    0.0004289706   -0.0004878743

Norm of the Cartesian gradient     ...    0.0010506505
RMS gradient                       ...    0.0001238204
MAX gradient                       ...    0.0003734519

-------
TIMINGS
-------

Total SCF gradient time     ....       18.425 sec

Densities                   ....       0.001 sec  (  0.0%)
One electron gradient       ....       0.681 sec  (  3.7%)
RI-J Coulomb gradient       ....       3.727 sec  ( 20.2%)
XC gradient                 ....      13.979 sec  ( 75.9%)

Maximum memory used throughout the entire SCFGRAD-calculation: 49.6 MB

------------------------------------------------------------------------------
                              ORCA PROPERTY CALCULATIONS
------------------------------------------------------------------------------

GBWName                                 ... xtb_opt.gbw
Number of atoms                         ...     24
Number of basis functions               ...    318
Max core memory                         ...   1024 MB

Electric properties:
Dipole moment                           ... YES
Quadrupole moment                       ...  NO
Static polarizability (Dipole/Dipole)   ...  NO
Static polarizability (Dipole/Quad.)    ...  NO
Static polarizability (Quad./Quad.)     ...  NO
Static polarizability (Velocity)        ...  NO

Atomic electric properties:
Dipole moment                           ...  NO
Quadrupole moment                       ...  NO
Static polarizability                   ...  NO

Choice of electric origin               ... Center of mass
Position of electric origin             ...     0.001552     0.002011    -0.013746

General magnetic properties:
Magnetizability                         ...  NO

EPR properties:
g-Tensor (aka g-matrix)                 ...  NO
Zero-Field splitting spin-orbit         ...  NO
Zero-field splitting spin-spin          ...  NO
Hyperfine couplings                     ...  NO (   0 nuclei)
Quadrupole couplings                    ...  NO (   0 nuclei)
Contact density                         ...  NO (   0 nuclei)

NMR properties:
Chemical shifts                         ...  NO (   0 nuclei)
Spin-rotation constants                 ...  NO (   0 nuclei)
Spin-spin couplings                     ...  NO (   0 nuclei,    0 pairs)

Choice of magnetic origin               ... GIAO
Position of magnetic origin             ...     0.000000     0.000000     0.000000

Properties with geometric perturbations:
SCF Hessian                             ...  NO
IR spectrum                             ...  NO
VCD spectrum                            ...  NO
X-ray spectroscopy properties:
SCF XES/XAS/RIXS spectra                ...  NO


-------------
DIPOLE MOMENT
-------------

Method             : SCF
Type of density    : Electron Density
Multiplicity       :   1
Irrep              :   0
Energy             :  -687.0899712673863178 Eh
Relativity type    : 
Basis              : AO
                                X                 Y                 Z
Electronic contribution:      1.834013978       0.288358385       0.334231916
Nuclear contribution   :     -1.169380961      -1.867145837       0.144238941
                        -----------------------------------------
Total Dipole Moment    :      0.664633018      -1.578787453       0.478470857
                        -----------------------------------------
Magnitude (a.u.)       :      1.778550317
Magnitude (Debye)      :      4.520715638



--------------------
Rotational spectrum 
--------------------
 
Rotational constants in cm-1:             0.039261             0.031040             0.027403 
Rotational constants in MHz :          1177.009635           930.546537           821.511558 

Dipole components along the rotational axes: 
x,y,z [a.u.] :    -0.188740     1.285692     1.214337 
x,y,z [Debye]:    -0.479738     3.267970     3.086599 

 

Dipole moment calculation done in   0.0 sec 

Maximum memory used throughout the entire PROP-calculation: 26.9 MB

--------------------------------
SUGGESTED CITATIONS FOR THIS RUN
--------------------------------

Below you find a list of papers that are relevant to this ORCA run
We neither can nor want to force you to cite these papers, but we appreciate if you do
You receive ORCA, which is the product of decades of hard work by many enthusiastic individuals, for free
The only thing we kindly ask in return is that you cite our papers,
We deeply appreciate it, if you show your appreciation for ORCA by not just citing the generic ORCA reference.

Please note that relegating all ORCA citations to the supporting information does *not* help us.
SI sections are not indexed - citations you put there will not count into any citation statistics
But we need these citations in order to attract the funding resources that allow us to do what we are doing

Therefore, if you are a happy ORCA user, please consider citing a few of the papers listed below in the main body of your paper

In addition to the list printed below, the program has created the file xtb_opt.bibtex that contains the list in bibtex format
You can import this file easily into all common literature databanks and citation aid programs


List of essential papers. We consider these as the minimum necessary citations

  1. Neese,F.
     Software update: the ORCA program system, version 5.0
     WIRES Comput. Molec. Sci., 2022 12(1)e1606
     doi.org/10.1002/wcms.1606
  2. Grimme,S.; Hansen,A.; Ehlert,S.; Mewes,J.
     r2SCAN-3c: A 'Swiss army knife' composite electronic-structure method
     J. Chem. Phys., 2021 154 064103
     doi.org/10.1063/5.0040021

List of papers to cite with high priority. The work reported in these papers was absolutely
necessary for this run to complete.
Our perspective: the developers of density functionals and basis sets usually get cited in chemistry papers
Good! But without the algorithms to do something with them, the functionals or basis sets would not do anything.
Hence, in our opinion, the algorithm design and method developments papers are equally worthy of getting cited

  1. Neese,F.
     An improvement of the resolution of the identity approximation for the formation of the Coulomb matrix
     J. Comp. Chem., 2003 24(14)1740-1747
     doi.org/10.1002/jcc.10318
  2. Neese,F.
     The SHARK Integral Generation and Digestion System
     J. Comp. Chem., 2022  1-16
     doi.org/10.1002/jcc.26942
  3. Lehtola,S.; Steigemann,C.; Oliveira,M.; Marques,M.
     Recent developments in Libxc - A comprehensive library of functionals for density functional theory
     Software X, 2018 7 
     doi.org/10.1016/j.softx.2017.11.002
  4. Caldeweyher,E.; Bannwarth,C.; Grimme,S.
     Extension of the D3 dispersion coefficient model
     J. Chem. Phys., 2017 147 034112
     doi.org/10.1063/1.4993215
  5. Caldeweyher,E.; Ehlert,S.; Hansen,A.; Neugebauer,H.; Spicher,S.; Bannwarth,C.; Grimme,S.
     A generally applicable atomic-charge dependent London dispersion correction
     J. Chem. Phys., 2019 150 154122
     doi.org/10.1063/1.5090222
  6. Caldeweyher,E.; Mewes,J.; Ehlert,S.; Grimme,S.
     Extension and evaluation of the D4 London-dispersion model for periodic systems
     Phys. Chem. Chem. Phys., 2020 22(16)8499-8512
     doi.org/10.1039/D0CP00502A
  7. Wittmann,L.; Gordiy,I.; Friede,M.; Helmich-Paris,B.; Grimme,S.; Hansen,A.; Bursch,M.
     Extension of the D3 and D4 London Dispersion Corrections to the full Actinides Series
     Phys. Chem. Chem. Phys., 2024 26(32)21379-21394
     doi.org/https://doi.org/10.1039/D4CP01514B 

List of suggested additional citations. These are papers that are important in the 'surrounding' of 
of this run, or papers that preceded the highly important papers. If you like your results we are grateful for a citation.

  1. Neese,F.
     The ORCA program system
     WIRES Comput. Molec. Sci., 2012 2(1)73-78
     doi.org/10.1002/wcms.81
  2. Neese,F.
     Software update: the ORCA program system, version 4.0
     WIRES Comput. Molec. Sci., 2018 8(1)1-6
     doi.org/10.1002/wcms.1327
  3. Neese,F.; Wennmohs,F.; Becker,U.; Riplinger,C.
     The ORCA quantum chemistry program package
     J. Chem. Phys., 2020 152 Art. No. L224108
     doi.org/10.1063/5.0004608

List of optional additional citations

  1. Neese,F.
     Approximate second-order SCF convergence for spin unrestricted wavefunctions
     Chem. Phys. Lett., 2000 325(1-3)93-98
     doi.org/10.1016/s0009-2614(00)00662-x

Timings for individual modules:

Sum of individual times          ...       37.192 sec (=   0.620 min)
Startup calculation              ...        1.615 sec (=   0.027 min)   4.3 %
SCF iterations                   ...       16.978 sec (=   0.283 min)  45.6 %
Property calculations            ...        0.087 sec (=   0.001 min)   0.2 %
SCF Gradient evaluation          ...       18.513 sec (=   0.309 min)  49.8 %
                             ****ORCA TERMINATED NORMALLY****
TOTAL RUN TIME: 0 days 0 hours 0 minutes 38 seconds 161 msec
  ------------------------------------------------------------------------
          * successful ORCA run, taking over control again...

         :::::::::::::::::::::::::::::::::::::::::::::::::::::
         ::                  ORCA SUMMARY                   ::
         :::::::::::::::::::::::::::::::::::::::::::::::::::::
         :: total energy            -687.076628821798 Eh    ::
         :: gradient norm              0.001050650515 Eh/a0 ::
         :: HOMO-LUMO gap              0.000000000000 eV    ::
         :::::::::::::::::::::::::::::::::::::::::::::::::::::

      ----------------------------------------------------------- 
     |                       L-ANC optimizer                     |
      ----------------------------------------------------------- 
          low memory version by Sebastian Ehlert

          ...................................................
          :                      SETUP                      :
          :.................................................:
          :   energy convergence        0.5000000E-05 Eh    :
          :   grad. convergence         0.1000000E-02 Eh/a0 :
          :   optimization log               true           :
          :   writing optlog all                1     steps :
          :   Hessian reset                     8     steps :
          :   maximium step len.        1.0000000     a0    :
          :   LBFGS images                      8           :
          ...................................................
 * calculating model hessian...
Using Lindh-Hessian (1995)
 Shifting diagonal of input Hessian by   1.000000000000000E-002
 Lowest  eigenvalues of input Hessian
    0.000000    0.000000    0.000000    0.000000    0.000000    0.000000
    0.014424    0.016199    0.020017    0.020479    0.023061    0.025404
    0.026420    0.027606    0.031260    0.032889    0.036216    0.042692
 Highest eigenvalues
    1.392795    1.409344    1.451184    1.453933    1.530089    1.594782
 

........................................................................
.............................. CYCLE    1 ..............................
........................................................................
                         * ORCA takes the control...
  ------------------------------------------------------------------------

                                 *****************
                                 * O   R   C   A *
                                 *****************

                                            #,                                       
                                            ###                                      
                                            ####                                     
                                            #####                                    
                                            ######                                   
                                           ########,                                 
                                     ,,################,,,,,                         
                               ,,#################################,,                 
                          ,,##########################################,,             
                       ,#########################################, ''#####,          
                    ,#############################################,,   '####,        
                  ,##################################################,,,,####,       
                ,###########''''           ''''###############################       
              ,#####''   ,,,,##########,,,,          '''####'''          '####       
            ,##' ,,,,###########################,,,                        '##       
           ' ,,###''''                  '''############,,,                           
         ,,##''                                '''############,,,,        ,,,,,,###''
      ,#''                                            '''#######################'''  
     '                                                          ''''####''''         
             ,#######,   #######,   ,#######,      ##                                
            ,#'     '#,  ##    ##  ,#'     '#,    #''#        ,####,   ,####,        
            ##       ##  ##   ,#'  ##            #'  '#       #'       #'  '#        
            ##       ##  #######   ##           ,######,      #####,   #    #        
            '#,     ,#'  ##    ##  '#,     ,#' ,#      #,     #,   #   #,  ,#        
             '#######'   ##     ##  '#######'  #'      '#     '####' # '####'        



                #########################################################
                #                        -***-                          #
                #          Department of theory and spectroscopy        #
                #                                                       #
                #                      Frank Neese                      #
                #                                                       #
                #     Directorship, Architecture, Infrastructure        #
                #                    SHARK, DRIVERS                     #
                #        Core code/Algorithms in most modules           #
                #                                                       #
                #        Max Planck Institute fuer Kohlenforschung      #
                #                Kaiser Wilhelm Platz 1                 #
                #                 D-45470 Muelheim/Ruhr                 #
                #                      Germany                          #
                #                                                       #
                #                  All rights reserved                  #
                #                        -***-                          #
                #########################################################


                         Program Version 6.0.1  -  RELEASE   -


 With contributions from (in alphabetic order):
[Max-Planck-Institut fuer Kohlenforschung]                               
  Daniel Aravena         : Magnetic Suceptibility                        
  Michael Atanasov       : Ab Initio Ligand Field Theory (pilot matlab implementation)
  Alexander A. Auer      : GIAO ZORA, VPT2 properties, NMR spectrum      
  Ute Becker             : All parallelization in ORCA, NUMFREQ, NUMCALC 
  Giovanni Bistoni       : ED, misc. LED, open-shell LED, HFLD           
  Martin Brehm           : Molecular dynamics                            
  Dmytro Bykov           : pre 5.0 version of the SCF Hessian            
  Marcos Casanova-Páez   : Triplet and SCS-CIS(D). UHF-(DLPNO)-IP/EA/STEOM-CCSD. UHF-CVS-IP/STEOM-CCSD   
  Vijay G. Chilkuri      : MRCI spin determinant printing, contributions to CSF-ICE 
  Pauline Colinet        : FMM embedding                                 
  Dipayan Datta          : RHF DLPNO-CCSD density                        
  Achintya Kumar Dutta   : EOM-CC, STEOM-CC                              
  Nicolas Foglia         : Exact transition moments, OPA infrastructure, MCD improvements    
  Dmitry Ganyushin       : Spin-Orbit,Spin-Spin,Magnetic field MRCI      
  Miquel Garcia-Rates    : C-PCM and meta-GGA Hessian, CCSD/C-PCM, Gaussian charge scheme 
  Tiago L. C. Gouveia    : GS-ROHF, GS-ROCIS                             
  Yang Guo               : DLPNO-NEVPT2, F12-NEVPT2, CIM, IAO-localization        
  Andreas Hansen         : Spin unrestricted coupled pair/coupled cluster methods 
  Ingolf Harden          : AUTO-CI MPn and infrastructure                
  Benjamin Helmich-Paris : MC-RPA, TRAH-(SCF,CASSCF), AVAS, COSX integrals, SCF dyn. polar. 
  Lee Huntington         : MR-EOM, pCC                                   
  Robert Izsak           : Overlap fitted RIJCOSX, COSX-SCS-MP3, EOM     
  Riya Kayal             : Wick's Theorem for AUTO-CI, AUTO-CI UHF-CCSDT 
  Emily Kempfer          : AUTO-CI, RHF CISDT and CCSDT                  
  Christian Kollmar      : KDIIS, OOCD, Brueckner-CCSD(T), CCSD density, CASPT2, CASPT2-K, improved NEVPT2 
  Axel Koslowski         : Symmetry handling                             
  Simone Kossmann        : meta-GGA functionals, TD-DFT gradient, OOMP2, (MP2 Hessian; deprecated post 5.0) 
  Lucas Lang             : DCDCAS                                        
  Marvin Lechner         : AUTO-CI (C++ implementation), FIC-MRCC        
  Spencer Leger          : CASSCF response                               
  Dagmar Lenk            : GEPOL surface, SMD, ORCA-2-JSON               
  Dimitrios Liakos       : Extrapolation schemes; Compound Job, initial MDCI parallelization 
  Dimitrios Manganas     : Further ROCIS development; embedding schemes. LFT, Crystal Embedding 
  Dimitrios Pantazis     : SARC Basis sets                               
  Anastasios Papadopoulos: AUTO-CI, single reference methods and gradients 
  Taras Petrenko         : pre 6.0 DFT Hessian and TD-DFT gradient, (ASA, deprecated), ECA, 1-Electron XAS/XES, NRVS 
  Peter Pinski           : DLPNO-MP2, DLPNO-MP2 Gradient                 
  Christoph Reimann      : Effective Core Potentials                     
  Marius Retegan         : Local ZFS, SOC                                
  Christoph Riplinger    : Optimizer, TS searches, QM/MM, DLPNO-CCSD(T), (RO)-DLPNO pert. Triples 
  Michael Roemelt        : Original ROCIS implementation                 
  Masaaki Saitow         : Open-shell DLPNO-CCSD energy and density      
  Barbara Sandhoefer     : DKH picture change effects                    
  Kantharuban Sivalingam : CASSCF convergence/infrastructure, NEVPT2 and variants, FIC-MRCI 
  Bernardo de Souza      : ESD, SOC TD-DFT                               
  Georgi L. Stoychev     : AutoAux, RI-MP2 NMR, DLPNO-MP2 response, X2C  
  Van Anh Tran           : RI-MP2 g-tensors                              
  Willem Van den Heuvel  : Paramagnetic NMR                              
  Zikuan Wang            : NOTCH, Electric field optimization            
  Frank Wennmohs         : Technical directorship and infrastructure     
  Hang Xu                : AUTO-CI-Response properties                   
                                                                         
[FACCTs GmbH]                                                            
  Markus Bursch, Miquel Garcia-Rates, Christoph Riplinger, Bernardo de Souza, Georgi L. Stoychev 
                                                                 
  APM, Basis sets (HGBS, AHGBS, def-TZVP (Ac-Lr), def2-XVPD (La-Lu)), CI-OPT, improved COSX, DLPNO-Multilevel,           
  DOCKER, DRACO, updates on ESD, GOAT, IRC, LR-CPCM, MBIS, meta-GGA TD-DFT gradient, ML-optimized integration grids, 
  MM, NACMEs, nearIR, NEB, NEB-TS, NL-DFT gradient (VV10), 2- and 3-layer-ONIOM, interface openCOSMO-RS, QMMM,   
  Crystal-QMMM, SF, symmetry and pop. for TD-DFT, r2SCAN hybrids, SOLVATOR                                   
                                                                         
[Other institutions]                                                     
  V. Asgeirsson          : NEB                                           
  Christoph Bannwarth    : sTDA-DFT, sTD-DFT, PBEh-3c, B97-3c, D3        
  Sebastian Ehlert       : rSCAN, r2SCAN, r2SCAN-3c, D4, dhf basis sets  
  Marvin Friede          : D4 for Fr, Ra, Ac-Lr                          
  Lars Goerigk           : TD-DFT with DH, B97 family of functionals     
  Stefan Grimme          : VdW corrections, initial TS optimization, DFT functionals, gCP, sTDA/sTD-DF 
  Waldemar Hujo          : DFT-NL                                        
  H. Jonsson             : NEB                                           
  Holger Kruse           : gCP                                           
  Marcel Mueller         : wB97X-3c, vDZP basis set                      
  Hagen Neugebauer       : wr2SCAN                                       
  Tobias Risthaus        : range-separated hybrid DFT                    
  Lukas Wittmann         : regularized MP2, r2SCAN double-hybrids, wr2SCAN        
                                                                         
We gratefully acknowledge several colleagues who have allowed us to      
interface, adapt or use parts of their codes:                            
  Ed Valeev, F. Pavosevic, A. Kumar             : LibInt (2-el integral package), F12 methods 
  Garnet Chan, S. Sharma, J. Yang, R. Olivares  : DMRG                   
  Ulf Ekstrom                                   : XCFun DFT Library      
  Mihaly Kallay                                 : mrcc  (arbitrary order and MRCC methods)
  Frank Weinhold                                : gennbo (NPA and NBO analysis)           
  Simon Mueller                                 : openCOSMO-RS                            
  Christopher J. Cramer and Donald G. Truhlar   : smd solvation model                     
  S Lehtola, MJT Oliveira, MAL Marques          : LibXC Library                           
  Liviu Ungur et al                             : ANISO software                          


 Your calculation uses the libint2 library for the computation of 2-el integrals
 For citations please refer to: http://libint.valeyev.net

 Your ORCA version has been built with support for libXC version: 6.2.2
 For citations please refer to: https://libxc.gitlab.io

 This ORCA versions uses:
   CBLAS   interface :  Fast vector & matrix operations
   LAPACKE interface :  Fast linear algebra routines
   SCALAPACK package :  Parallel linear algebra routines
   Shared memory     :  Shared parallel matrices
   BLAS/LAPACK       :  OpenBLAS 0.3.27  USE64BITINT DYNAMIC_ARCH NO_AFFINITY Zen SINGLE_THREADED
        Core in use  :  Zen
   Copyright (c) 2011-2014, The OpenBLAS Project




***************************************
The coordinates will be read from file: xtb_opt.xyz
***************************************


Your calculation utilizes the geometrical counterpoise correction gCP
Please cite in your paper:
H.Kruse, S. Grimme J.Chem.Phys., 136, (2012), 154101 
   

Your calculation utilizes the atom-pairwise dispersion correction
based on EEQ partial charges (D4)


================================================================================

----- Orbital basis set information -----
Your calculation utilizes the basis: def2-mTZVPP
   Stefan Grimme, Andreas Hansen, Sebastian Ehlert, and Jan-Michael Mewes 
   J. Chem. Phys. 154, 064103 (2021). DOI: 10.1063/5.0040021

----- AuxJ basis set information -----
Your calculation utilizes the auxiliary basis: def2/J
   F. Weigend, Phys. Chem. Chem. Phys. 8, 1057 (2006).

================================================================================
                                        WARNINGS
                       Please study these warnings very carefully!
================================================================================

WARNING: Old DensityContainer found on disk!
         Will remove this file - 
         If you want to keep old densities, please start your calculation with a different basename. 



WARNING: SCAN, rSCAN, or r2SCAN functional requested.
  ===> : libXC variant has now been activated.



================================================================================
                                       INPUT FILE
================================================================================
NAME = xtb_opt.inp
|  1> ! r2scan-3c def2/J RI DEFGRID2 scfconv7 ENGRAD tightSCF miniprint
|  2> * xyzfile 0 1 xtb_opt.xyz
|  3> 
|  4>                          ****END OF INPUT****
================================================================================

                     *******************************
                     * Energy+Gradient Calculation *
                     *******************************

---------------------------------
CARTESIAN COORDINATES (ANGSTROEM)
---------------------------------
  C     -2.139997   -0.918037   -0.272227
  C     -1.186386   -0.328274    0.763504
  H     -1.737489   -0.344311    1.711812
  C     -0.751975    1.130937    0.560054
  H     -1.610475    1.697539    0.178323
  C      0.407864    1.299102   -0.440526
  H      0.827510    2.298034   -0.271634
  C      1.538641    0.300897   -0.127354
  H      2.221646    0.265636   -0.985875
  C      1.058677   -1.125567    0.182236
  H      1.850192   -1.652534    0.736754
  O     -0.049885   -1.193247    1.035065
  O      0.850169   -1.815672   -1.062837
  O      2.194659    0.820453    1.042659
  O      0.010532    1.246230   -1.793357
  O     -0.418281    1.709744    1.820204
  O     -1.693427   -0.900981   -1.628423
  H     -3.065293   -0.331434   -0.247043
  H     -2.383785   -1.945364    0.036260
  H      0.787816   -2.756763   -0.853868
  H      2.934756    0.246753    1.271313
  H     -0.680567    0.562672   -1.892670
  H      0.472104    1.405140    2.048357
  H     -0.867293   -1.419643   -1.656571

----------------------------
CARTESIAN COORDINATES (A.U.)
----------------------------
  NO LB      ZA    FRAG     MASS         X           Y           Z
   0 C     6.0000    0    12.011   -4.044008   -1.734839   -0.514434
   1 C     6.0000    0    12.011   -2.241944   -0.620349    1.442814
   2 H     1.0000    0     1.008   -3.283379   -0.650653    3.234856
   3 C     6.0000    0    12.011   -1.421027    2.137162    1.058348
   4 H     1.0000    0     1.008   -3.043356    3.207885    0.336981
   5 C     6.0000    0    12.011    0.770751    2.454946   -0.832474
   6 H     1.0000    0     1.008    1.563768    4.342654   -0.513315
   7 C     6.0000    0    12.011    2.907609    0.568612   -0.240664
   8 H     1.0000    0     1.008    4.198303    0.501979   -1.863034
   9 C     6.0000    0    12.011    2.000610   -2.127013    0.344376
  10 H     1.0000    0     1.008    3.496356   -3.122837    1.392264
  11 O     8.0000    0    15.999   -0.094268   -2.254911    1.955990
  12 O     8.0000    0    15.999    1.606588   -3.431122   -2.008471
  13 O     8.0000    0    15.999    4.147305    1.550431    1.970339
  14 O     8.0000    0    15.999    0.019902    2.355033   -3.388954
  15 O     8.0000    0    15.999   -0.790437    3.230949    3.439687
  16 O     8.0000    0    15.999   -3.200113   -1.702608   -3.077273
  17 H     1.0000    0     1.008   -5.792565   -0.626319   -0.466844
  18 H     1.0000    0     1.008   -4.504701   -3.676206    0.068522
  19 H     1.0000    0     1.008    1.488756   -5.209527   -1.613576
  20 H     1.0000    0     1.008    5.545885    0.466295    2.402433
  21 H     1.0000    0     1.008   -1.286084    1.063296   -3.576628
  22 H     1.0000    0     1.008    0.892147    2.655330    3.870834
  23 H     1.0000    0     1.008   -1.638946   -2.682737   -3.130466

------------------------------------------------------------------------------
                   ___                                                        
                  /   \      - P O W E R E D   B Y -                         
                 /     \                                                     
                 |  |  |   _    _      __       _____    __    __             
                 |  |  |  | |  | |    /  \     |  _  \  |  |  /  |          
                  \  \/   | |  | |   /    \    | | | |  |  | /  /          
                 / \  \   | |__| |  /  /\  \   | |_| |  |  |/  /          
                |  |  |   |  __  | /  /__\  \  |    /   |      \           
                |  |  |   | |  | | |   __   |  |    \   |  |\   \          
                \     /   | |  | | |  |  |  |  | |\  \  |  | \   \       
                 \___/    |_|  |_| |__|  |__|  |_| \__\ |__|  \__/        
                                                                              
                      - O R C A' S   B I G   F R I E N D -                    
                                      &                                       
                       - I N T E G R A L  F E E D E R -                       
                                                                              
 v1 FN, 2020, v2 2021, v3 2022-2024                                           
------------------------------------------------------------------------------


----------------------
SHARK INTEGRAL PACKAGE
----------------------

Number of atoms                             ...     24
Number of basis functions                   ...    318
Number of shells                            ...    150
Maximum angular momentum                    ...      2
Integral batch strategy                     ... SHARK/LIBINT Hybrid
RI-J (if used) integral strategy            ... SPLIT-RIJ (Revised 2003 algorithm where possible)
Printlevel                                  ...      1
Contraction scheme used                     ... SEGMENTED contraction
Prescreening option                         ... SCHWARTZ
   Thresh                                   ... 3.000e-11
   Tcut                                     ... 1.000e-12
   Tpresel                                  ... 1.000e-12 
Coulomb Range Separation                    ... NOT USED
Exchange Range Separation                   ... NOT USED
Multipole approximations                    ... NOT USED
Finite Nucleus Model                        ... NOT USED
CABS basis                                  ... NOT available
Auxiliary Coulomb fitting basis             ... AVAILABLE
   # of basis functions in Aux-J            ...    720
   # of shells in Aux-J                     ...    240
   Maximum angular momentum in Aux-J        ...      4
Auxiliary J/K fitting basis                 ... NOT available
Auxiliary Correlation fitting basis         ... NOT available
Auxiliary 'external' fitting basis          ... NOT available

Checking pre-screening integrals            ... done (  0.0 sec) Dimension = 150
Check shell pair data                       ... done (  0.0 sec)
Shell pair information
Shell pair cut-off parameter TPreSel        ...   1.0e-12
Total number of shell pairs                 ...     11325
Shell pairs after pre-screening             ...     10181
Total number of primitive shell pairs       ...     40203
Primitive shell pairs kept                  ...     24951
          la=0 lb=0:   3080 shell pairs
          la=1 lb=0:   3619 shell pairs
          la=1 lb=1:   1097 shell pairs
          la=2 lb=0:   1394 shell pairs
          la=2 lb=1:    824 shell pairs
          la=2 lb=2:    167 shell pairs

Calculating one electron integrals          ... done (  0.0 sec)
Calculating RI/J V-Matrix + Cholesky decomp.... done (  0.0 sec)
Calculating Nuclear repulsion               ... done (  0.0 sec) ENN=    867.431933856389 Eh

Diagonalization of the overlap matrix:
Smallest eigenvalue                        ... 3.960e-05
Time for diagonalization                   ...    0.010 sec
Threshold for overlap eigenvalues          ... 1.000e-07
Number of eigenvalues below threshold      ... 0
Time for construction of square roots      ...    0.007 sec
Total time needed                          ...    0.018 sec

-------------------
DFT GRID GENERATION
-------------------

General Integration Accuracy     IntAcc      ... 4.388
Radial Grid Type                 RadialGrid  ... OptM3 with GC (2021)
Angular Grid (max. ang.)         AngularGrid ... 4 (Lebedev-302)
Angular grid pruning method      GridPruning ... 4 (adaptive)
Weight generation scheme         WeightScheme... mBecke (2022)
Basis function cutoff            BFCut       ... 1.0000e-11
Integration weight cutoff        WCut        ... 1.0000e-14
Partially contracted basis set               ... off
Rotationally invariant grid construction     ... off
Angular grids for H and He will be reduced by one unit
Diffuse basis detected: some atoms will have their outermost
                        angular grid increased by 1.

Total number of grid points                  ...   111792
Total number of batches                      ...     1759
Average number of points per batch           ...       63
Average number of grid points per atom       ...     4658
Initializing property integral containers    ... done (  0.0 sec)

SHARK setup successfully completed in   1.4 seconds

Maximum memory used throughout the entire STARTUP-calculation: 57.6 MB
Occupation numbers will be reassigned to an Aufbau configuration
             **** ENERGY FILE WAS UPDATED (xtb_opt.en.tmp) ****
Finished Guess after   0.1 sec
Maximum memory used throughout the entire GUESS-calculation: 28.3 MB
----------------------------------------D-I-I-S--------------------------------------------
Iteration    Energy (Eh)           Delta-E    RMSDP     MaxDP     DIISErr   Damp  Time(sec)
-------------------------------------------------------------------------------------------
               ***  Starting incremental Fock matrix formation  ***
                              *** Initializing SOSCF ***
---------------------------------------S-O-S-C-F--------------------------------------
Iteration    Energy (Eh)           Delta-E    RMSDP     MaxDP     MaxGrad    Time(sec)
--------------------------------------------------------------------------------------
    1    -687.0899737818587028     0.00e+00  3.05e-05  9.56e-04  2.89e-05     4.6
               *** Restarting incremental Fock matrix formation ***
    2    -687.0899768668720071    -3.09e-06  9.08e-06  2.61e-04  3.28e-05     4.5
    3    -687.0899769288117795    -6.19e-08  5.68e-06  3.09e-04  4.20e-05     3.1
                 **** Energy Check signals convergence ****

               *****************************************************
               *                     SUCCESS                       *
               *           SCF CONVERGED AFTER   3 CYCLES          *
               *****************************************************

             **** ENERGY FILE WAS UPDATED (xtb_opt.en.tmp) ****

----------------
TOTAL SCF ENERGY
----------------

Total Energy       :       -687.08997692881178 Eh          -18696.66879 eV

Components:
Nuclear Repulsion  :        867.43193385638904 Eh           23604.02293 eV
Electronic Energy  :      -1554.52191078520082 Eh          -42300.69172 eV
One Electron Energy:      -2664.82641950875541 Eh          -72513.61340 eV
Two Electron Energy:       1110.30450872355459 Eh           30212.92168 eV

Virial components:
Potential Energy   :      -1371.32790715377632 Eh          -37315.72945 eV
Kinetic Energy     :        684.23793022496466 Eh           18619.06066 eV
Virial Ratio       :          2.00416820900722

DFT components:
N(Alpha)           :       48.000182257509 electrons
N(Beta)            :       48.000182257509 electrons
N(Total)           :       96.000364515018 electrons
E(X)               :      -85.230445602237 Eh       
E(C)               :       -3.197696772368 Eh       
E(XC)              :      -88.428142374605 Eh       

---------------
SCF CONVERGENCE
---------------

  Last Energy change         ...    6.1940e-08  Tolerance :   1.0000e-07
  Last MAX-Density change    ...    3.0873e-04  Tolerance :   1.0000e-07
  Last RMS-Density change    ...    5.6839e-06  Tolerance :   5.0000e-09
  Last DIIS Error            ...    4.3202e-04  Tolerance :   1.0000e-07
  Last Orbital Gradient      ...    4.2017e-05  Tolerance :   1.0000e-04
  Last Orbital Rotation      ...    3.8723e-05  Tolerance :   1.0000e-04


----------------
ORBITAL ENERGIES
----------------

  NO   OCC          E(Eh)            E(eV) 
   0   2.0000     -18.995750      -516.9006 
   1   2.0000     -18.982874      -516.5503 
   2   2.0000     -18.981531      -516.5137 
   3   2.0000     -18.964648      -516.0543 
   4   2.0000     -18.943704      -515.4844 
   5   2.0000     -18.937408      -515.3131 
   6   2.0000     -10.160113      -276.4707 
   7   2.0000     -10.103316      -274.9252 
   8   2.0000     -10.098480      -274.7936 
   9   2.0000     -10.093949      -274.6703 
  10   2.0000     -10.092057      -274.6188 
  11   2.0000     -10.089744      -274.5559 
  12   2.0000      -1.058391       -28.8003 
  13   2.0000      -1.014370       -27.6024 
  14   2.0000      -1.001182       -27.2435 
  15   2.0000      -0.995717       -27.0948 
  16   2.0000      -0.981782       -26.7156 
  17   2.0000      -0.972184       -26.4545 
  18   2.0000      -0.755339       -20.5538 
  19   2.0000      -0.742951       -20.2167 
  20   2.0000      -0.669907       -18.2291 
  21   2.0000      -0.634262       -17.2591 
  22   2.0000      -0.612993       -16.6804 
  23   2.0000      -0.548898       -14.9363 
  24   2.0000      -0.520184       -14.1549 
  25   2.0000      -0.512762       -13.9530 
  26   2.0000      -0.499114       -13.5816 
  27   2.0000      -0.485848       -13.2206 
  28   2.0000      -0.473491       -12.8843 
  29   2.0000      -0.453986       -12.3536 
  30   2.0000      -0.443226       -12.0608 
  31   2.0000      -0.433419       -11.7939 
  32   2.0000      -0.413352       -11.2479 
  33   2.0000      -0.395593       -10.7646 
  34   2.0000      -0.389157       -10.5895 
  35   2.0000      -0.373519       -10.1640 
  36   2.0000      -0.369135       -10.0447 
  37   2.0000      -0.346799        -9.4369 
  38   2.0000      -0.338224        -9.2035 
  39   2.0000      -0.327862        -8.9216 
  40   2.0000      -0.306757        -8.3473 
  41   2.0000      -0.300995        -8.1905 
  42   2.0000      -0.290307        -7.8997 
  43   2.0000      -0.275533        -7.4976 
  44   2.0000      -0.267056        -7.2670 
  45   2.0000      -0.250850        -6.8260 
  46   2.0000      -0.239702        -6.5226 
  47   2.0000      -0.223691        -6.0869 
  48   0.0000       0.012221         0.3325 
  49   0.0000       0.032777         0.8919 
  50   0.0000       0.057651         1.5688 
  51   0.0000       0.070852         1.9280 
  52   0.0000       0.075146         2.0448 
  53   0.0000       0.091991         2.5032 
  54   0.0000       0.101909         2.7731 
  55   0.0000       0.113001         3.0749 
  56   0.0000       0.128567         3.4985 
  57   0.0000       0.133618         3.6359 
  58   0.0000       0.141679         3.8553 
*Only the first 10 virtual orbitals were printed.
Total SCF time: 0 days 0 hours 0 min 12 sec 
Finished LeanSCF after  12.6 sec

Maximum memory used throughout the entire LEANSCF-calculation: 41.4 MB


-------------------------------------------------------------------------------
                          DFT DISPERSION CORRECTION                            
                                                                               
                                DFTD4 V3.4.0                                   
-------------------------------------------------------------------------------
-------------------------   ----------------
Dispersion correction           -0.008804042
-------------------------   ----------------

------------------   -----------------
gCP correction             0.022150153
------------------   -----------------

-------------------------   --------------------
FINAL SINGLE POINT ENERGY      -687.076630817096
-------------------------   --------------------

------------------------------------------------------------------------------
                         ORCA SCF GRADIENT CALCULATION
------------------------------------------------------------------------------

Nuc. rep. gradient        (SHARK) ... done (  0.0 sec)
HCore & Overlap gradient  (SHARK) ... done (  0.7 sec)
Split-RIJ-J gradient      (SHARK) ... done (  3.7 sec)
XC gradient                       ... done ( 12.9 sec)
Dispersion correction             ... done (  0.0 sec)

-------------------
DISPERSION GRADIENT
-------------------

   1   C   :   -0.000124754   -0.000050954   -0.000003011
   2   C   :   -0.000062192   -0.000018982    0.000038699
   3   H   :   -0.000039811   -0.000007661    0.000044142
   4   C   :   -0.000037655    0.000067788    0.000030831
   5   H   :   -0.000030262    0.000046055    0.000012534
   6   C   :    0.000030854    0.000078340   -0.000014956
   7   H   :    0.000016645    0.000050337   -0.000011580
   8   C   :    0.000088282    0.000014608   -0.000001718
   9   H   :    0.000052325    0.000009000   -0.000019193
  10   C   :    0.000067517   -0.000059426    0.000009088
  11   H   :    0.000035997   -0.000037525    0.000008414
  12   O   :    0.000000440   -0.000072244    0.000059001
  13   O   :    0.000059457   -0.000123800   -0.000042485
  14   O   :    0.000125180    0.000025708    0.000047196
  15   O   :   -0.000015778    0.000066760   -0.000112553
  16   O   :   -0.000002585    0.000084601    0.000100290
[...]
  19   2.0000      -0.742912       -20.2157 
  20   2.0000      -0.669886       -18.2285 
  21   2.0000      -0.634238       -17.2585 
  22   2.0000      -0.612973       -16.6798 
  23   2.0000      -0.548883       -14.9359 
  24   2.0000      -0.520168       -14.1545 
  25   2.0000      -0.512769       -13.9532 
  26   2.0000      -0.499111       -13.5815 
  27   2.0000      -0.485841       -13.2204 
  28   2.0000      -0.473466       -12.8837 
  29   2.0000      -0.453974       -12.3533 
  30   2.0000      -0.443214       -12.0605 
  31   2.0000      -0.433411       -11.7937 
  32   2.0000      -0.413347       -11.2477 
  33   2.0000      -0.395587       -10.7645 
  34   2.0000      -0.389157       -10.5895 
  35   2.0000      -0.373511       -10.1638 
  36   2.0000      -0.369118       -10.0442 
  37   2.0000      -0.346832        -9.4378 
  38   2.0000      -0.338225        -9.2036 
  39   2.0000      -0.327873        -8.9219 
  40   2.0000      -0.306752        -8.3471 
  41   2.0000      -0.301016        -8.1911 
  42   2.0000      -0.290327        -7.9002 
  43   2.0000      -0.275548        -7.4980 
  44   2.0000      -0.267064        -7.2672 
  45   2.0000      -0.250877        -6.8267 
  46   2.0000      -0.239712        -6.5229 
  47   2.0000      -0.223735        -6.0881 
  48   0.0000       0.012234         0.3329 
  49   0.0000       0.032785         0.8921 
  50   0.0000       0.057672         1.5693 
  51   0.0000       0.070860         1.9282 
  52   0.0000       0.075156         2.0451 
  53   0.0000       0.092001         2.5035 
  54   0.0000       0.101925         2.7735 
  55   0.0000       0.113019         3.0754 
  56   0.0000       0.128572         3.4986 
  57   0.0000       0.133638         3.6365 
  58   0.0000       0.141694         3.8557 
*Only the first 10 virtual orbitals were printed.
Total SCF time: 0 days 0 hours 0 min 11 sec 
Finished LeanSCF after  11.4 sec

Maximum memory used throughout the entire LEANSCF-calculation: 41.4 MB


-------------------------------------------------------------------------------
                          DFT DISPERSION CORRECTION                            
                                                                               
                                DFTD4 V3.4.0                                   
-------------------------------------------------------------------------------
-------------------------   ----------------
Dispersion correction           -0.008804042
-------------------------   ----------------

------------------   -----------------
gCP correction             0.022150153
------------------   -----------------

-------------------------   --------------------
FINAL SINGLE POINT ENERGY      -687.076630962044
-------------------------   --------------------

------------------------------------------------------------------------------
                         ORCA SCF GRADIENT CALCULATION
------------------------------------------------------------------------------

Nuc. rep. gradient        (SHARK) ... done (  0.0 sec)
HCore & Overlap gradient  (SHARK) ... done (  0.7 sec)
Split-RIJ-J gradient      (SHARK) ... done (  3.7 sec)
XC gradient                       ... done ( 12.7 sec)
Dispersion correction             ... done (  0.0 sec)

-------------------
DISPERSION GRADIENT
-------------------

   1   C   :   -0.000124754   -0.000050954   -0.000003011
   2   C   :   -0.000062192   -0.000018982    0.000038699
   3   H   :   -0.000039811   -0.000007661    0.000044142
   4   C   :   -0.000037655    0.000067788    0.000030831
   5   H   :   -0.000030262    0.000046055    0.000012534
   6   C   :    0.000030854    0.000078340   -0.000014956
   7   H   :    0.000016645    0.000050337   -0.000011580
   8   C   :    0.000088282    0.000014608   -0.000001718
   9   H   :    0.000052325    0.000009000   -0.000019193
  10   C   :    0.000067517   -0.000059426    0.000009088
  11   H   :    0.000035997   -0.000037525    0.000008414
  12   O   :    0.000000440   -0.000072244    0.000059001
  13   O   :    0.000059457   -0.000123800   -0.000042485
  14   O   :    0.000125180    0.000025708    0.000047196
  15   O   :   -0.000015778    0.000066760   -0.000112553
  16   O   :   -0.000002585    0.000084601    0.000100290
  17   O   :   -0.000067434   -0.000060214   -0.000084463
  18   H   :   -0.000056576   -0.000015731   -0.000009064
  19   H   :   -0.000048998   -0.000031151   -0.000002784
  20   H   :    0.000024269   -0.000042266   -0.000021045
  21   H   :    0.000042011    0.000015226    0.000018897
  22   H   :    0.000006511    0.000038135   -0.000046657
  23   H   :   -0.000018633    0.000040615    0.000034160
  24   H   :   -0.000044812   -0.000017221   -0.000033740

Difference to translation invariance:
           :    0.0000000000    0.0000000000    0.0000000000

Difference to rotation invariance:
           :   -0.0000000000    0.0000000000   -0.0000000000

Norm of the Dispersion gradient    ...    0.0004361622
RMS gradient                       ...    0.0000514022
MAX gradient                       ...    0.0001251797
gCP correction                   ... done

------------------
CARTESIAN GRADIENT
------------------

   1   C   :    0.000016755    0.000089933   -0.000125550
   2   C   :   -0.000056804   -0.000026392    0.000122322
   3   H   :   -0.000011782   -0.000029924    0.000015981
   4   C   :    0.000049280   -0.000039480    0.000002340
   5   H   :    0.000022113    0.000037766    0.000048282
   6   C   :    0.000016995    0.000149908   -0.000117448
   7   H   :    0.000032705    0.000017109   -0.000025896
   8   C   :    0.000002975    0.000041405    0.000059297
   9   H   :   -0.000016289    0.000007596    0.000002643
  10   C   :   -0.000040926   -0.000049546    0.000072792
  11   H   :   -0.000011414   -0.000009273    0.000001437
  12   O   :    0.000036938    0.000025233   -0.000057861
  13   O   :   -0.000022289    0.000040327   -0.000002713
  14   O   :   -0.000046251   -0.000048411   -0.000033026
  15   O   :   -0.000017306    0.000018802    0.000125669
  16   O   :   -0.000008147   -0.000070956   -0.000104419
  17   O   :   -0.000001126   -0.000011562    0.000066590
  18   H   :   -0.000014145    0.000001904   -0.000015544
  19   H   :    0.000020376    0.000013867    0.000014720
  20   H   :    0.000024371   -0.000052624   -0.000007802
  21   H   :    0.000064881    0.000001577   -0.000033760
  22   H   :   -0.000020591   -0.000039585   -0.000001517
  23   H   :    0.000011503   -0.000037286    0.000024365
  24   H   :   -0.000031822   -0.000030388   -0.000030899

Difference to translation invariance:
           :    0.0000000000   -0.0000000000   -0.0000000000

Difference to rotation invariance:
           :    0.0004425939    0.0004327651   -0.0005002507

Norm of the Cartesian gradient     ...    0.0004164953
RMS gradient                       ...    0.0000490844
MAX gradient                       ...    0.0001499080

-------
TIMINGS
-------

Total SCF gradient time     ....       17.063 sec

Densities                   ....       0.001 sec  (  0.0%)
One electron gradient       ....       0.665 sec  (  3.9%)
RI-J Coulomb gradient       ....       3.701 sec  ( 21.7%)
XC gradient                 ....      12.659 sec  ( 74.2%)

Maximum memory used throughout the entire SCFGRAD-calculation: 49.4 MB

------------------------------------------------------------------------------
                              ORCA PROPERTY CALCULATIONS
------------------------------------------------------------------------------

GBWName                                 ... xtb_opt.gbw
Number of atoms                         ...     24
Number of basis functions               ...    318
Max core memory                         ...   1024 MB

Electric properties:
Dipole moment                           ... YES
Quadrupole moment                       ...  NO
Static polarizability (Dipole/Dipole)   ...  NO
Static polarizability (Dipole/Quad.)    ...  NO
Static polarizability (Quad./Quad.)     ...  NO
Static polarizability (Velocity)        ...  NO

Atomic electric properties:
Dipole moment                           ...  NO
Quadrupole moment                       ...  NO
Static polarizability                   ...  NO

Choice of electric origin               ... Center of mass
Position of electric origin             ...     0.001559     0.001963    -0.013795

General magnetic properties:
Magnetizability                         ...  NO

EPR properties:
g-Tensor (aka g-matrix)                 ...  NO
Zero-Field splitting spin-orbit         ...  NO
Zero-field splitting spin-spin          ...  NO
Hyperfine couplings                     ...  NO (   0 nuclei)
Quadrupole couplings                    ...  NO (   0 nuclei)
Contact density                         ...  NO (   0 nuclei)

NMR properties:
Chemical shifts                         ...  NO (   0 nuclei)
Spin-rotation constants                 ...  NO (   0 nuclei)
Spin-spin couplings                     ...  NO (   0 nuclei,    0 pairs)

Choice of magnetic origin               ... GIAO
Position of magnetic origin             ...     0.000000     0.000000     0.000000

Properties with geometric perturbations:
SCF Hessian                             ...  NO
IR spectrum                             ...  NO
VCD spectrum                            ...  NO
X-ray spectroscopy properties:
SCF XES/XAS/RIXS spectra                ...  NO


-------------
DIPOLE MOMENT
-------------

Method             : SCF
Type of density    : Electron Density
Multiplicity       :   1
Irrep              :   0
Energy             :  -687.0899770737593144 Eh
Relativity type    : 
Basis              : AO
                                X                 Y                 Z
Electronic contribution:      1.834597869       0.287047351       0.334905563
Nuclear contribution   :     -1.169684440      -1.865977570       0.144664175
                        -----------------------------------------
Total Dipole Moment    :      0.664913429      -1.578930219       0.479569738
                        -----------------------------------------
Magnitude (a.u.)       :      1.779077750
Magnitude (Debye)      :      4.522056266



--------------------
Rotational spectrum 
--------------------
 
Rotational constants in cm-1:             0.039257             0.031039             0.027410 
Rotational constants in MHz :          1176.896320           930.539201           821.727964 

Dipole components along the rotational axes: 
x,y,z [a.u.] :    -0.187778     1.285575     1.215382 
x,y,z [Debye]:    -0.477294     3.267672     3.089257 

 

Dipole moment calculation done in   0.0 sec 

Maximum memory used throughout the entire PROP-calculation: 26.9 MB

--------------------------------
SUGGESTED CITATIONS FOR THIS RUN
--------------------------------

Below you find a list of papers that are relevant to this ORCA run
We neither can nor want to force you to cite these papers, but we appreciate if you do
You receive ORCA, which is the product of decades of hard work by many enthusiastic individuals, for free
The only thing we kindly ask in return is that you cite our papers,
We deeply appreciate it, if you show your appreciation for ORCA by not just citing the generic ORCA reference.

Please note that relegating all ORCA citations to the supporting information does *not* help us.
SI sections are not indexed - citations you put there will not count into any citation statistics
But we need these citations in order to attract the funding resources that allow us to do what we are doing

Therefore, if you are a happy ORCA user, please consider citing a few of the papers listed below in the main body of your paper

In addition to the list printed below, the program has created the file xtb_opt.bibtex that contains the list in bibtex format
You can import this file easily into all common literature databanks and citation aid programs


List of essential papers. We consider these as the minimum necessary citations

  1. Neese,F.
     Software update: the ORCA program system, version 5.0
     WIRES Comput. Molec. Sci., 2022 12(1)e1606
     doi.org/10.1002/wcms.1606
  2. Grimme,S.; Hansen,A.; Ehlert,S.; Mewes,J.
     r2SCAN-3c: A 'Swiss army knife' composite electronic-structure method
     J. Chem. Phys., 2021 154 064103
     doi.org/10.1063/5.0040021

List of papers to cite with high priority. The work reported in these papers was absolutely
necessary for this run to complete.
Our perspective: the developers of density functionals and basis sets usually get cited in chemistry papers
Good! But without the algorithms to do something with them, the functionals or basis sets would not do anything.
Hence, in our opinion, the algorithm design and method developments papers are equally worthy of getting cited

  1. Neese,F.
     An improvement of the resolution of the identity approximation for the formation of the Coulomb matrix
     J. Comp. Chem., 2003 24(14)1740-1747
     doi.org/10.1002/jcc.10318
  2. Neese,F.
     The SHARK Integral Generation and Digestion System
     J. Comp. Chem., 2022  1-16
     doi.org/10.1002/jcc.26942
  3. Lehtola,S.; Steigemann,C.; Oliveira,M.; Marques,M.
     Recent developments in Libxc - A comprehensive library of functionals for density functional theory
     Software X, 2018 7 
     doi.org/10.1016/j.softx.2017.11.002
  4. Caldeweyher,E.; Bannwarth,C.; Grimme,S.
     Extension of the D3 dispersion coefficient model
     J. Chem. Phys., 2017 147 034112
     doi.org/10.1063/1.4993215
  5. Caldeweyher,E.; Ehlert,S.; Hansen,A.; Neugebauer,H.; Spicher,S.; Bannwarth,C.; Grimme,S.
     A generally applicable atomic-charge dependent London dispersion correction
     J. Chem. Phys., 2019 150 154122
     doi.org/10.1063/1.5090222
  6. Caldeweyher,E.; Mewes,J.; Ehlert,S.; Grimme,S.
     Extension and evaluation of the D4 London-dispersion model for periodic systems
     Phys. Chem. Chem. Phys., 2020 22(16)8499-8512
     doi.org/10.1039/D0CP00502A
  7. Wittmann,L.; Gordiy,I.; Friede,M.; Helmich-Paris,B.; Grimme,S.; Hansen,A.; Bursch,M.
     Extension of the D3 and D4 London Dispersion Corrections to the full Actinides Series
     Phys. Chem. Chem. Phys., 2024 26(32)21379-21394
     doi.org/https://doi.org/10.1039/D4CP01514B 

List of suggested additional citations. These are papers that are important in the 'surrounding' of 
of this run, or papers that preceded the highly important papers. If you like your results we are grateful for a citation.

  1. Neese,F.
     The ORCA program system
     WIRES Comput. Molec. Sci., 2012 2(1)73-78
     doi.org/10.1002/wcms.81
  2. Neese,F.
     Software update: the ORCA program system, version 4.0
     WIRES Comput. Molec. Sci., 2018 8(1)1-6
     doi.org/10.1002/wcms.1327
  3. Neese,F.; Wennmohs,F.; Becker,U.; Riplinger,C.
     The ORCA quantum chemistry program package
     J. Chem. Phys., 2020 152 Art. No. L224108
     doi.org/10.1063/5.0004608

List of optional additional citations

  1. Neese,F.
     Approximate second-order SCF convergence for spin unrestricted wavefunctions
     Chem. Phys. Lett., 2000 325(1-3)93-98
     doi.org/10.1016/s0009-2614(00)00662-x

Timings for individual modules:

Sum of individual times          ...       30.425 sec (=   0.507 min)
Startup calculation              ...        1.587 sec (=   0.026 min)   5.2 %
SCF iterations                   ...       11.605 sec (=   0.193 min)  38.1 %
Property calculations            ...        0.084 sec (=   0.001 min)   0.3 %
SCF Gradient evaluation          ...       17.148 sec (=   0.286 min)  56.4 %
                             ****ORCA TERMINATED NORMALLY****
TOTAL RUN TIME: 0 days 0 hours 0 minutes 30 seconds 726 msec
  ------------------------------------------------------------------------
          * successful ORCA run, taking over control again...

         :::::::::::::::::::::::::::::::::::::::::::::::::::::
         ::                  ORCA SUMMARY                   ::
         :::::::::::::::::::::::::::::::::::::::::::::::::::::
         :: total energy            -687.076630962044 Eh    ::
         :: gradient norm              0.000416495299 Eh/a0 ::
         :: HOMO-LUMO gap              0.000000000000 eV    ::
         :::::::::::::::::::::::::::::::::::::::::::::::::::::

           -------------------------------------------------
          |                Property Printout                |
           -------------------------------------------------
           -------------------------------------------------
          |                Geometry Summary                 |
           -------------------------------------------------

      molecular mass/u    :      180.1561339
   center of mass at/Å    :        0.0008288       0.0010385      -0.0073022
  moments of inertia/u·Å² :        0.4294184E+03   0.5431075E+03   0.6150227E+03
rotational constants/cm⁻¹ :        0.3925689E-01   0.3103922E-01   0.2740977E-01

 * 21 selected distances

     #   Z          #   Z                                           value/Å
     1   6 C        2   6 C                                       1.5264123
     2   6 C        3   1 H                                       1.0969319
     2   6 C        4   6 C                                       1.5360350
     4   6 C        5   1 H                                       1.0971681
     6   6 C        7   1 H                                       1.0965825
     8   6 C        9   1 H                                       1.0976336
     8   6 C       10   6 C                                       1.5365576 (max)
    10   6 C       11   1 H                                       1.1007638
    10   6 C       12   8 O                                       1.4002888
    10   6 C       13   8 O                                       1.4387237
     8   6 C       14   8 O                                       1.4384813
     6   6 C       15   8 O                                       1.4109643
     4   6 C       16   8 O                                       1.4263058
     1   6 C       17   8 O                                       1.4279299
     1   6 C       18   1 H                                       1.0958611
     1   6 C       19   1 H                                       1.0999991
    13   8 O       20   1 H                                       0.9660278
    14   8 O       21   1 H                                       0.9639281 (min)
    15   8 O       22   1 H                                       0.9771036
    16   8 O       23   1 H                                       0.9683097
    17   8 O       24   1 H                                       0.9758584

 * 4 distinct bonds (by element types)

   Z      Z             #   av. dist./Å        max./Å        min./Å
   1 H    6 C           7     1.0978486     1.1007638     1.0958611
   6 C    6 C           3     1.5330017     1.5365576     1.5264123
   1 H    8 O           5     0.9702455     0.9771036     0.9639281
   6 C    8 O           6     1.4237823     1.4387237     1.4002888


optimized geometry written to: xtbopt.coord


           -------------------------------------------------
          | TOTAL ENERGY             -687.076630962044 Eh   |
          | GRADIENT NORM               0.000416495299 Eh/α |
           -------------------------------------------------

------------------------------------------------------------------------
 * finished run on 2025/04/16 at 11:26:50.554     
------------------------------------------------------------------------
 total:
 * wall-time:     0 d,  0 h,  1 min, 43.016 sec
 *  cpu-time:     0 d,  0 h,  0 min, 20.388 sec
 * ratio c/w:     0.198 speedup
 SCF:
 * wall-time:     0 d,  0 h,  0 min, 38.193 sec
 *  cpu-time:     0 d,  0 h,  0 min,  0.362 sec
 * ratio c/w:     0.009 speedup
 ANC optimizer:
 * wall-time:     0 d,  0 h,  1 min,  3.368 sec
 *  cpu-time:     0 d,  0 h,  0 min, 12.204 sec
 * ratio c/w:     0.193 speedup

