 Entering Gaussian System
 *********************************************
 Gaussian 98:
 frequency output generated by the xtb code
 *********************************************
                         Standard orientation:
 --------------------------------------------------------------------
  Center     Atomic     Atomic              Coordinates (Angstroms)
  Number     Number      Type              X           Y           Z
 --------------------------------------------------------------------
    1          6             0       -2.713912    0.742010   -0.258798
    2          8             0       -1.291235    0.716863   -0.389740
    3          6             0       -0.646650   -0.208843    0.283720
    4          8             0       -1.103212   -1.040291    1.008443
    5          6             0        0.880093   -0.064469    0.002248
    6          9             0        1.324167    1.147303    0.355136
    7          9             0        1.589009   -0.967066    0.673290
    8          9             0        1.146469   -0.222604   -1.299583
    9          1             0       -3.000788    0.533142    0.772665
   10          1             0       -3.154643   -0.008640   -0.916238
   11          1             0       -3.026960    1.738766   -0.557758
 --------------------------------------------------------------------
     1 basis functions        1 primitive gaussians
     1 alpha electrons        1 beta electrons
 
 Harmonic frequencies (cm**-1), IR intensities (km*mol⁻¹),
 Raman scattering activities (A**4/amu), Raman depolarization ratios,
 reduced masses (AMU), force constants (mDyne/A) and normal coordinates:
                      1                      2                      3
                        a                      a                      a 
 Frequencies --    22.1785                26.4343               131.6570
 Red. masses --     2.2977                15.9484                13.5000
 Frc consts  --     0.0000                 0.0000                 0.0000
 IR Inten    --     0.2318                 2.1119                 0.0178
 Raman Activ --     0.0000                 0.0000                 0.0000
 Depolar     --     0.0000                 0.0000                 0.0000
 Atom AN      X      Y      Z        X      Y      Z        X      Y      Z
   1   6     0.00  -0.08   0.03     0.02   0.14   0.22     0.04   0.30   0.33
   2   8    -0.01   0.00  -0.06     0.03   0.23   0.27    -0.03  -0.29  -0.35
   3   6     0.00   0.03  -0.01    -0.01  -0.05  -0.09    -0.02  -0.16  -0.18
   4   8    -0.03   0.07   0.00    -0.07  -0.37  -0.49     0.01   0.08   0.12
   5   6     0.01   0.00  -0.00     0.00   0.00  -0.00    -0.01  -0.08  -0.10
   6   9     0.05  -0.05   0.13    -0.11   0.12  -0.28    -0.41  -0.00   0.08
   7   9    -0.03  -0.09  -0.09     0.02   0.23   0.28     0.02   0.03   0.03
   8   9     0.01   0.13  -0.02     0.11  -0.32   0.06     0.39   0.04  -0.04
   9   1     0.04   0.51   0.13     0.01   0.14   0.09     0.13   0.12   0.14
  10   1     0.02  -0.40   0.43     0.02  -0.04   0.15    -0.16   0.14   0.16
  11   1    -0.06  -0.20  -0.51    -0.01   0.00  -0.04     0.09   0.12   0.13
                      4                      5                      6
                        a                      a                      a 
 Frequencies --   146.4252               266.4870               282.5564
 Red. masses --    15.0042                16.2690                13.6071
 Frc consts  --     0.0000                 0.0000                 0.0000
 IR Inten    --     0.8203                 8.6037                13.4212
 Raman Activ --     0.0000                 0.0000                 0.0000
 Depolar     --     0.0000                 0.0000                 0.0000
 Atom AN      X      Y      Z        X      Y      Z        X      Y      Z
   1   6     0.22   0.26  -0.25     0.01   0.12   0.13    -0.12   0.32  -0.25
   2   8     0.26  -0.09   0.09    -0.05  -0.34  -0.40    -0.11  -0.17   0.18
   3   6    -0.00  -0.18   0.16    -0.00  -0.03  -0.04    -0.01  -0.11   0.09
   4   8    -0.18  -0.17   0.12    -0.01  -0.18  -0.21     0.50  -0.33   0.19
   5   6    -0.03  -0.08   0.08     0.02   0.13   0.16    -0.04   0.07  -0.06
   6   9    -0.34   0.04   0.02     0.48   0.04   0.04     0.08   0.06  -0.11
   7   9     0.45   0.12  -0.14     0.02   0.14   0.16    -0.36  -0.04   0.06
   8   9    -0.37   0.02   0.01    -0.46   0.08   0.11     0.09   0.11  -0.05
   9   1    -0.02   0.16  -0.08     0.10   0.06   0.07    -0.16   0.20  -0.08
  10   1     0.06   0.07  -0.06    -0.14   0.08   0.09    -0.06   0.10  -0.07
  11   1     0.15   0.08  -0.16     0.06   0.06   0.07     0.10   0.11  -0.17
                      7                      8                      9
                        a                      a                      a 
 Frequencies --   346.4627               392.7532               458.6508
 Red. masses --    15.3907                17.3839                18.0059
 Frc consts  --     0.0000                 0.0000                 0.0000
 IR Inten    --    13.0327                 7.8429                24.0710
 Raman Activ --     0.0000                 0.0000                 0.0000
 Depolar     --     0.0000                 0.0000                 0.0000
 Atom AN      X      Y      Z        X      Y      Z        X      Y      Z
   1   6     0.41  -0.16   0.09    -0.11   0.06  -0.04     0.00   0.01   0.02
   2   8     0.40   0.05  -0.09    -0.11   0.15  -0.11    -0.01  -0.08  -0.10
   3   6     0.18   0.01  -0.03     0.08   0.18  -0.16     0.02   0.12   0.14
   4   8     0.22   0.01  -0.03     0.51   0.06  -0.11    -0.01  -0.06  -0.08
   5   6    -0.07   0.02  -0.01     0.00   0.03  -0.03     0.03   0.18   0.23
   6   9    -0.28   0.11  -0.06    -0.19  -0.04   0.49    -0.07   0.47  -0.13
   7   9    -0.49  -0.12   0.16     0.11   0.09  -0.09    -0.05  -0.38  -0.45
   8   9    -0.29   0.11  -0.06    -0.24  -0.47  -0.02     0.10  -0.22   0.43
   9   1     0.18  -0.08   0.03    -0.02   0.02  -0.01     0.02   0.01   0.01
  10   1     0.13  -0.06   0.04    -0.03   0.01  -0.00    -0.03   0.01   0.02
  11   1     0.05  -0.06   0.06    -0.05   0.01  -0.01     0.01   0.01   0.02
                     10                     11                     12
                        a                      a                      a 
 Frequencies --   528.6129               657.7243               712.6686
 Red. masses --    17.1636                16.5989                13.2366
 Frc consts  --     0.0000                 0.0000                 0.0000
 IR Inten    --     3.3681                40.9544                29.7215
 Raman Activ --     0.0000                 0.0000                 0.0000
 Depolar     --     0.0000                 0.0000                 0.0000
 Atom AN      X      Y      Z        X      Y      Z        X      Y      Z
   1   6    -0.19   0.05  -0.02     0.13  -0.01  -0.00     0.00  -0.00   0.00
   2   8    -0.14   0.14  -0.10     0.06   0.18  -0.15     0.01   0.14   0.17
   3   6     0.06   0.14  -0.12    -0.19   0.03  -0.02    -0.08  -0.55  -0.68
   4   8     0.27   0.09  -0.11     0.20  -0.12   0.08     0.02   0.16   0.19
   5   6     0.10  -0.24   0.19    -0.42  -0.05   0.09     0.01   0.05   0.06
   6   9    -0.22  -0.11  -0.33     0.04  -0.43  -0.18     0.14   0.20   0.01
   7   9     0.31  -0.39   0.30    -0.02   0.33  -0.27     0.00  -0.05  -0.04
   8   9    -0.16   0.33   0.19     0.10   0.09   0.45    -0.12  -0.02   0.20
   9   1    -0.04   0.01  -0.00     0.10  -0.03   0.01    -0.03  -0.00  -0.01
  10   1    -0.05   0.01  -0.00     0.05  -0.03   0.02     0.04  -0.01  -0.02
  11   1    -0.07   0.01  -0.00    -0.06  -0.03   0.03    -0.01  -0.01  -0.02
                     13                     14                     15
                        a                      a                      a 
 Frequencies --   812.5704               983.9333              1075.2821
 Red. masses --    13.9044                12.2996                13.6596
 Frc consts  --     0.0000                 0.0000                 0.0000
 IR Inten    --    37.9812                23.4782               279.1443
 Raman Activ --     0.0000                 0.0000                 0.0000
 Depolar     --     0.0000                 0.0000                 0.0000
 Atom AN      X      Y      Z        X      Y      Z        X      Y      Z
   1   6     0.04   0.04  -0.04     0.61  -0.11   0.02    -0.01  -0.03  -0.04
   2   8     0.04   0.37  -0.31    -0.49  -0.12   0.15     0.01   0.03   0.03
   3   6    -0.49  -0.04   0.09    -0.32   0.19  -0.11    -0.00  -0.07  -0.07
   4   8     0.05  -0.35   0.28     0.08   0.08  -0.08     0.00   0.01   0.02
   5   6     0.03  -0.01   0.00    -0.15   0.01   0.01     0.07   0.53   0.65
   6   9     0.08   0.24   0.07     0.03   0.06   0.01    -0.12  -0.31  -0.11
   7   9     0.13  -0.17   0.13     0.13  -0.11   0.08    -0.01  -0.02  -0.04
   8   9     0.05  -0.03  -0.25     0.03  -0.01  -0.07     0.08  -0.06  -0.35
   9   1     0.19  -0.07   0.03    -0.02   0.04  -0.03     0.06   0.02   0.01
  10   1     0.05  -0.07   0.05     0.07   0.05  -0.03    -0.09   0.02   0.03
  11   1    -0.23  -0.04   0.07     0.31   0.01  -0.05     0.04   0.01   0.02
                     16                     17                     18
                        a                      a                      a 
 Frequencies --  1097.0578              1111.6430              1130.1605
 Red. masses --    12.0555                 4.4455                11.5831
 Frc consts  --     0.0000                 0.0000                 0.0000
 IR Inten    --   164.0076                29.8222               253.3095
 Raman Activ --     0.0000                 0.0000                 0.0000
 Depolar     --     0.0000                 0.0000                 0.0000
 Atom AN      X      Y      Z        X      Y      Z        X      Y      Z
   1   6    -0.19  -0.09   0.19    -0.05  -0.27  -0.31    -0.20  -0.20   0.12
   2   8     0.29  -0.06  -0.04     0.02   0.16   0.15     0.33   0.04  -0.04
   3   6    -0.12   0.10  -0.07     0.02  -0.00   0.01    -0.15   0.03  -0.00
   4   8     0.09   0.06  -0.06     0.01   0.00   0.01     0.02   0.01  -0.01
   5   6    -0.35  -0.44   0.42    -0.03  -0.22   0.03    -0.32   0.47  -0.36
   6   9     0.11   0.24   0.04     0.04   0.09   0.02    -0.00  -0.07   0.00
   7   9    -0.01   0.07  -0.06    -0.03   0.05  -0.03     0.20  -0.25   0.18
   8   9     0.08  -0.01  -0.27     0.01   0.01  -0.02     0.01  -0.01   0.07
   9   1    -0.28   0.04  -0.01     0.38   0.14   0.08    -0.18   0.10   0.02
  10   1     0.06   0.04  -0.10    -0.63   0.10   0.16    -0.13   0.09  -0.06
  11   1     0.18   0.01  -0.09     0.27   0.10   0.18     0.31   0.04  -0.05
                     19                     20                     21
                        a                      a                      a 
 Frequencies --  1154.8237              1227.2786              1379.2658
 Red. masses --    10.0206                13.0974                 2.5588
 Frc consts  --     0.0000                 0.0000                 0.0000
 IR Inten    --    82.0713               101.1909                12.4941
 Raman Activ --     0.0000                 0.0000                 0.0000
 Depolar     --     0.0000                 0.0000                 0.0000
 Atom AN      X      Y      Z        X      Y      Z        X      Y      Z
   1   6    -0.03   0.23  -0.20     0.13  -0.05   0.06     0.31  -0.07  -0.03
   2   8     0.04  -0.27   0.23    -0.34   0.35  -0.26     0.13  -0.05   0.02
   3   6     0.13   0.00  -0.02     0.59  -0.26   0.15    -0.07   0.01  -0.00
   4   8     0.04   0.14  -0.12    -0.10  -0.12   0.10     0.02   0.04  -0.03
   5   6    -0.57   0.08  -0.00    -0.36   0.00   0.03     0.01   0.00  -0.00
   6   9     0.08   0.10   0.03     0.05   0.08   0.02    -0.00  -0.00  -0.00
   7   9     0.17  -0.16   0.11     0.05  -0.06   0.04    -0.00   0.00  -0.00
   8   9     0.06  -0.02  -0.11     0.04  -0.01  -0.08    -0.00   0.00   0.00
   9   1     0.32  -0.11   0.01    -0.16   0.05  -0.03    -0.53   0.21  -0.12
  10   1     0.04  -0.12   0.12    -0.03   0.07  -0.05    -0.41   0.16   0.10
  11   1    -0.38  -0.02   0.10     0.05  -0.01  -0.04    -0.52  -0.13   0.20
                     22                     23                     24
                        a                      a                      a 
 Frequencies --  1429.8020              1444.0406              1822.8182
 Red. masses --     1.5718                 1.5588                13.4582
 Frc consts  --     0.0000                 0.0000                 0.0000
 IR Inten    --    16.3260                10.0841               490.3220
 Raman Activ --     0.0000                 0.0000                 0.0000
 Depolar     --     0.0000                 0.0000                 0.0000
 Atom AN      X      Y      Z        X      Y      Z        X      Y      Z
   1   6     0.07   0.13   0.16    -0.02  -0.17   0.13    -0.00   0.00   0.01
   2   8     0.04   0.02   0.03    -0.02  -0.04   0.04    -0.04   0.08  -0.06
   3   6    -0.01   0.01  -0.01    -0.01  -0.00   0.01    -0.26  -0.57   0.49
   4   8    -0.00  -0.00   0.00     0.00   0.02  -0.02     0.23   0.41  -0.36
   5   6     0.00  -0.00  -0.01     0.00  -0.00   0.00     0.04  -0.01   0.00
   6   9    -0.00  -0.00   0.00    -0.00  -0.00  -0.00     0.00   0.00  -0.00
   7   9     0.00  -0.00   0.00    -0.00   0.00  -0.00    -0.02   0.01  -0.01
   8   9    -0.00   0.00   0.00     0.00   0.00  -0.00     0.00   0.00  -0.00
   9   1     0.08  -0.54  -0.07     0.34   0.41   0.19     0.01  -0.02   0.00
  10   1    -0.40   0.22   0.04     0.07   0.43  -0.54     0.01  -0.01   0.00
  11   1    -0.05  -0.20  -0.63    -0.28  -0.16  -0.19     0.03   0.00  -0.01
                     25                     26                     27
                        a                      a                      a 
 Frequencies --  2996.5163              3001.9798              3051.4597
 Red. masses --     1.9217                 1.4339                 1.8088
 Frc consts  --     0.0000                 0.0000                 0.0000
 IR Inten    --     4.5454                 4.9641                 0.6978
 Raman Activ --     0.0000                 0.0000                 0.0000
 Depolar     --     0.0000                 0.0000                 0.0000
 Atom AN      X      Y      Z        X      Y      Z        X      Y      Z
   1   6     0.06   0.14   0.24    -0.11  -0.09   0.14    -0.06   0.25  -0.09
   2   8     0.01   0.00   0.00    -0.01  -0.00   0.00    -0.01   0.00  -0.00
   3   6    -0.00   0.00  -0.00     0.00  -0.00   0.00     0.00   0.00  -0.00
   4   8    -0.00   0.00   0.00     0.00   0.00   0.00    -0.00  -0.00   0.00
   5   6    -0.00   0.00   0.00     0.00  -0.00   0.00     0.00   0.00   0.00
   6   9     0.00  -0.00  -0.00     0.00   0.00  -0.00    -0.00  -0.00   0.00
   7   9    -0.00  -0.00  -0.00     0.00   0.00  -0.00     0.00  -0.00   0.00
   8   9    -0.00  -0.00  -0.00     0.00   0.00  -0.00     0.00  -0.00  -0.00
   9   1     0.12   0.10  -0.38     0.22   0.15  -0.83    -0.03   0.01   0.10
  10   1    -0.34  -0.60  -0.51     0.16   0.29   0.28    -0.02   0.01  -0.04
  11   1     0.01   0.00   0.04     0.03  -0.12   0.05     0.27  -0.88   0.26
