      -----------------------------------------------------------      
     |                   =====================                   |     
     |                           x T B                           |     
     |                   =====================                   |     
     |                         S. Grimme                         |     
     |          Mulliken Center for Theoretical Chemistry        |     
     |                    University of Bonn                     |     
      -----------------------------------------------------------      

   * xtb version 6.7.1 (edcfbbe) compiled by 'albert@albert-system' on 2024-07-22

   xtb is free software: you can redistribute it and/or modify it under
   the terms of the GNU Lesser General Public License as published by
   the Free Software Foundation, either version 3 of the License, or
   (at your option) any later version.
   
   xtb is distributed in the hope that it will be useful,
   but WITHOUT ANY WARRANTY; without even the implied warranty of
   MERCHANTABILITY or FITNESS FOR A PARTICULAR PURPOSE.  See the
   GNU Lesser General Public License for more details.
   
   Cite this work as:
   * C. Bannwarth, E. Caldeweyher, S. Ehlert, A. Hansen, P. Pracht,
     J. Seibert, S. Spicher, S. Grimme, WIREs Comput. Mol. Sci., 2020, 11,
     e01493. DOI: 10.1002/wcms.1493
   
   for GFN2-xTB:
   * C. Bannwarth, S. Ehlert and S. Grimme., J. Chem. Theory Comput., 2019,
     15, 1652-1671. DOI: 10.1021/acs.jctc.8b01176
   for GFN1-xTB:
   * S. Grimme, C. Bannwarth, P. Shushkov, J. Chem. Theory Comput., 2017,
     13, 1989-2009. DOI: 10.1021/acs.jctc.7b00118
   for GFN0-xTB:
   * P. Pracht, E. Caldeweyher, S. Ehlert, S. Grimme, ChemRxiv, 2019, preprint.
     DOI: 10.26434/chemrxiv.8326202.v1
   for GFN-FF:
   * S. Spicher and S. Grimme, Angew. Chem. Int. Ed., 2020, 59, 15665-15673.
     DOI: 10.1002/anie.202004239
   
   for ALPB and GBSA implicit solvation:
   * S. Ehlert, M. Stahn, S. Spicher, S. Grimme, J. Chem. Theory Comput.,
     2021, 17, 4250-4261. DOI: 10.1021/acs.jctc.1c00471
   
   for ddCOSMO and CPCM-X implicit solvation:
   * M. Stahn, S. Ehlert, S. Grimme, J. Phys. Chem. A,
     2023, XX, XXXX-XXXX. DOI: 10.1021/acs.jpca.3c04382
   
   for DFT-D4:
   * E. Caldeweyher, C. Bannwarth and S. Grimme, J. Chem. Phys., 2017,
     147, 034112. DOI: 10.1063/1.4993215
   * E. Caldeweyher, S. Ehlert, A. Hansen, H. Neugebauer, S. Spicher,
     C. Bannwarth and S. Grimme, J. Chem. Phys., 2019, 150, 154122.
     DOI: 10.1063/1.5090222
   * E. Caldeweyher, J.-M. Mewes, S. Ehlert and S. Grimme, Phys. Chem. Chem. Phys.
     2020, 22, 8499-8512. DOI: 10.1039/D0CP00502A
   
   for sTDA-xTB:
   * S. Grimme and C. Bannwarth, J. Chem. Phys., 2016, 145, 054103.
     DOI: 10.1063/1.4959605
   
   in the mass-spec context:
   * V. Asgeirsson, C. Bauer and S. Grimme, Chem. Sci., 2017, 8, 4879.
     DOI: 10.1039/c7sc00601b
   * J. Koopman and S. Grimme, ACS Omega 2019, 4, 12, 15120-15133.
     DOI: 10.1021/acsomega.9b02011
   
   for metadynamics refer to:
   * S. Grimme, J. Chem. Theory Comput., 2019, 155, 2847-2862
     DOI: 10.1021/acs.jctc.9b00143
   
   for SPH calculations refer to:
   * S. Spicher and S. Grimme, J. Chem. Theory Comput., 2021, 17, 1701-1714
     DOI: 10.1021/acs.jctc.0c01306
   
   for ONIOM refer to:
   * C. Plett, A. Katbashev, S. Ehlert, S. Grimme, M. Bursch,
     Phys. Chem. Chem. Phys., 2023, 25, 17860-17868. DOI: 10.1039/D3CP02178E
   
   for DIPRO refer to:
   * J. Kohn, N. Gildemeister, S. Grimme, D. Fazzi, A. Hansen,
     J. Chem. Phys., 2023, just accepted.
   
   for PTB refer to:
   * S. Grimme, M. Mueller, A. Hansen, J. Chem. Phys., 2023, 158, 124111.
     DOI: 10.1063/5.0137838
   
   with help from (in alphabetical order)
   P. Atkinson, C. Bannwarth, F. Bohle, G. Brandenburg, E. Caldeweyher
   M. Checinski, S. Dohm, S. Ehlert, S. Ehrlich, I. Gerasimov, C. Hölzer
   A. Katbashev, J. Kohn, J. Koopman, C. Lavigne, S. Lehtola, F. März, M. Müller,
   F. Musil, H. Neugebauer, J. Pisarek, C. Plett, P. Pracht, F. Pultar,
   J. Seibert, P. Shushkov, S. Spicher, M. Stahn, M. Steiner, T. Strunk,
   J. Stückrath, T. Rose, and J. Unsleber
   
 * started run on 2025/04/15 at 19:41:29.559     
   ID    Z sym.   atoms
    1    6 C      1-7
    2    8 O      8, 9
    3    1 H      10-15

           -------------------------------------------------
          |                Calculation Setup                |
           -------------------------------------------------

          program call               : /software/projects/pawsey0265/mwang1/xtb/bin/xtb xtb_rrho.coord --gfn2 --ohess vtight --chrg 0 --enso --norestart -I rrho-xcontrol-inp --parallel 1
          hostname                   : nid002793
          coordinate file            : xtb_rrho.coord
          omp threads                :                     1


           -------------------------------------------------
          |                 G F N 2 - x T B                 |
           -------------------------------------------------

        Reference                      10.1021/acs.jctc.8b01176
      * Hamiltonian:
        H0-scaling (s, p, d)           1.850000    2.230000    2.230000
        zeta-weighting                 0.500000
      * Dispersion:
        s8                             2.700000
        a1                             0.520000
        a2                             5.000000
        s9                             5.000000
      * Repulsion:
        kExp                           1.500000    1.000000
        rExp                           1.000000
      * Coulomb:
        alpha                          2.000000
        third order                    shell-resolved
        anisotropic                    true
        a3                             3.000000
        a5                             4.000000
        cn-shift                       1.200000
        cn-exp                         4.000000
        max-rad                        5.000000


          ...................................................
          :                      SETUP                      :
          :.................................................:
          :  # basis functions                  42          :
          :  # atomic orbitals                  42          :
          :  # shells                           24          :
          :  # electrons                        46          :
          :  max. iterations                   250          :
          :  Hamiltonian                  GFN2-xTB          :
          :  restarted?                      false          :
          :  GBSA solvation                  false          :
          :  PC potential                    false          :
          :  electronic temp.          300.0000000     K    :
          :  accuracy                    1.0000000          :
          :  -> integral cutoff          0.2500000E+02      :
          :  -> integral neglect         0.1000000E-07      :
          :  -> SCF convergence          0.1000000E-05 Eh   :
          :  -> wf. convergence          0.1000000E-03 e    :
          :  Broyden damping             0.4000000          :
          :  net charge                          0          :
          :  unpaired electrons                  0          :
          ...................................................

 iter      E             dE          RMSdq      gap      omega  full diag
   1    -26.4746138 -0.264746E+02  0.548E+00    3.08       0.0  T
   2    -26.5043557 -0.297418E-01  0.303E+00    2.66       1.0  T
   3    -26.5010832  0.327248E-02  0.166E+00    2.87       1.0  T
   4    -26.5103356 -0.925241E-02  0.264E-01    2.68       1.0  T
   5    -26.5107792 -0.443660E-03  0.111E-01    2.72       1.0  T
   6    -26.5108788 -0.995984E-04  0.415E-02    2.72       1.0  T
   7    -26.5108815 -0.265837E-05  0.204E-02    2.72       1.3  T
   8    -26.5108834 -0.187935E-05  0.719E-03    2.72       3.6  T
   9    -26.5108837 -0.272176E-06  0.284E-03    2.72       9.1  T
  10    -26.5108837 -0.456847E-07  0.122E-03    2.72      21.2  T
  11    -26.5108837 -0.295078E-08  0.521E-04    2.72      49.6  T
  12    -26.5108837 -0.142217E-08  0.151E-04    2.72     171.4  T

   *** convergence criteria satisfied after 12 iterations ***

         #    Occupation            Energy/Eh            Energy/eV
      -------------------------------------------------------------
         1        2.0000           -0.7238982             -19.6983
       ...           ...                  ...                  ...
        17        2.0000           -0.4925097             -13.4019
        18        2.0000           -0.4786391             -13.0244
        19        2.0000           -0.4629783             -12.5983
        20        2.0000           -0.4496107             -12.2345
        21        2.0000           -0.4294918             -11.6871
        22        2.0000           -0.4080695             -11.1041
        23        2.0000           -0.4023122             -10.9475 (HOMO)
        24                         -0.3024195              -8.2293 (LUMO)
        25                         -0.2369784              -6.4485
        26                         -0.2116863              -5.7603
        27                         -0.1040794              -2.8321
        28                          0.0752423               2.0474
       ...                                ...                  ...
        42                          0.6329462              17.2233
      -------------------------------------------------------------
                  HL-Gap            0.0998926 Eh            2.7182 eV
             Fermi-level           -0.3523658 Eh           -9.5884 eV

 SCC (total)                   0 d,  0 h,  0 min,  0.032 sec
 SCC setup                      ...        0 min,  0.000 sec (  0.611%)
 Dispersion                     ...        0 min,  0.000 sec (  0.336%)
 classical contributions        ...        0 min,  0.000 sec (  0.100%)
 integral evaluation            ...        0 min,  0.001 sec (  4.600%)
 iterations                     ...        0 min,  0.027 sec ( 83.776%)
 molecular gradient             ...        0 min,  0.003 sec ( 10.200%)
 printout                       ...        0 min,  0.000 sec (  0.312%)

         :::::::::::::::::::::::::::::::::::::::::::::::::::::
         ::                     SUMMARY                     ::
         :::::::::::::::::::::::::::::::::::::::::::::::::::::
         :: total energy             -26.155363956266 Eh    ::
         :: gradient norm              0.027409557050 Eh/a0 ::
         :: HOMO-LUMO gap              2.718216763272 eV    ::
         ::.................................................::
         :: SCC energy               -26.510858913654 Eh    ::
         :: -> isotropic ES            0.042245810182 Eh    ::
         :: -> anisotropic ES         -0.000765119385 Eh    ::
         :: -> anisotropic XC          0.008544046121 Eh    ::
         :: -> dispersion             -0.012034312994 Eh    ::
         :: repulsion energy           0.355494957388 Eh    ::
         :: add. restraining           0.000000000000 Eh    ::
         :: total charge              -0.000000000000 e     ::
         :::::::::::::::::::::::::::::::::::::::::::::::::::::

      ----------------------------------------------------------- 
     |                   =====================                   |
     |                        A N C O P T                        |
     |                   =====================                   |
     |               Approximate Normal Coordinate               |
     |                Rational Function Optimizer                |
      ----------------------------------------------------------- 
      ----------------------------------------------------------- 
     |                   =====================                   |
     |                        A N C O P T                        |
     |                   =====================                   |
     |               Approximate Normal Coordinate               |
     |                Rational Function Optimizer                |
      ----------------------------------------------------------- 

          ...................................................
          :                      SETUP                      :
          :.................................................:
          :   optimization level         verytight          :
          :   max. optcycles                   300          :
          :   ANC micro-cycles                  20          :
          :   degrees of freedom                39          :
          :.................................................:
          :   RF solver                   davidson          :
          :   write xtbopt.log                true          :
          :   linear?                        false          :
          :   energy convergence         0.1000000E-06 Eh   :
          :   grad. convergence          0.2000000E-03 Eh/α :
          :   maxmium RF displ.          1.0000000          :
          :   Hlow (freq-cutoff)         0.1000000E-01      :
          :   Hmax (freq-cutoff)         5.0000000          :
          :   S6 in model hess.         20.0000000          :
          ...................................................

generating ANC from exact Hessian ...
Using Lindh-Hessian (1995)
 Shifting diagonal of input Hessian by   5.231058628874806E-003
 Lowest  eigenvalues of input Hessian
    0.000000    0.000000    0.000000    0.000000    0.000000    0.000000
    0.010000    0.015375    0.016491    0.025205    0.025592    0.038387
    0.046211    0.055123    0.063212    0.081623    0.084611    0.092913
 Highest eigenvalues
    1.577453    1.748468    1.860026    1.973409    2.037188    2.180010
 

........................................................................
.............................. CYCLE    1 ..............................
........................................................................

 iter      E             dE          RMSdq      gap      omega  full diag
   1    -26.5108837 -0.265109E+02  0.912E-05    2.72       0.0  T
   2    -26.5108837 -0.752998E-10  0.534E-05    2.72     483.1  T
   3    -26.5108837 -0.351328E-10  0.158E-05    2.72    1633.6  T
     SCC iter.                  ...        0 min,  0.001 sec
     gradient                   ...        0 min,  0.003 sec
 * total energy  :   -26.1553640 Eh     change       -0.6649614E-10 Eh
   gradient norm :     0.0274102 Eh/α   predicted     0.0000000E+00 (-100.00%)
   displ. norm   :     0.0605156 α      lambda       -0.9960162E-03
   maximum displ.:     0.0394382 α      in ANC's #21, #24, #17, ...

........................................................................
.............................. CYCLE    2 ..............................
........................................................................

 iter      E             dE          RMSdq      gap      omega  full diag
   1    -26.5231772 -0.265232E+02  0.965E-02    2.78       0.0  T
   2    -26.5231927 -0.154431E-04  0.538E-02    2.76       1.0  T
   3    -26.5231916  0.109203E-05  0.236E-02    2.77       1.1  T
   4    -26.5231939 -0.236341E-05  0.490E-03    2.76       5.3  T
   5    -26.5231943 -0.326202E-06  0.178E-03    2.76      14.5  T
   6    -26.5231943 -0.251718E-07  0.829E-04    2.76      31.2  T
   7    -26.5231943 -0.286115E-08  0.332E-04    2.76      77.7  T
     SCC iter.                  ...        0 min,  0.002 sec
     gradient                   ...        0 min,  0.003 sec
 * total energy  :   -26.1559795 Eh     change       -0.6155393E-03 Eh
   gradient norm :     0.0089138 Eh/α   predicted    -0.4998314E-03 ( -18.80%)
   displ. norm   :     0.0333781 α      lambda       -0.1360428E-03
   maximum displ.:     0.0173009 α      in ANC's #9, #17, #20, ...

........................................................................
.............................. CYCLE    3 ..............................
........................................................................

 iter      E             dE          RMSdq      gap      omega  full diag
   1    -26.5265476 -0.265265E+02  0.476E-02    2.79       0.0  T
   2    -26.5265510 -0.340728E-05  0.271E-02    2.78       1.0  T
   3    -26.5265504  0.576899E-06  0.133E-02    2.78       1.9  T
   4    -26.5265515 -0.111123E-05  0.289E-03    2.78       8.9  T
   5    -26.5265517 -0.108980E-06  0.921E-04    2.78      28.0  T
   6    -26.5265517 -0.389232E-08  0.458E-04    2.78      56.4  T
     SCC iter.                  ...        0 min,  0.002 sec
     gradient                   ...        0 min,  0.003 sec
 * total energy  :   -26.1560488 Eh     change       -0.6931533E-04 Eh
   gradient norm :     0.0032579 Eh/α   predicted    -0.6809581E-04 (  -1.76%)
   displ. norm   :     0.0327491 α      lambda       -0.5959958E-04
   maximum displ.:     0.0158899 α      in ANC's #9, #1, #3, ...

........................................................................
.............................. CYCLE    4 ..............................
........................................................................

 iter      E             dE          RMSdq      gap      omega  full diag
   1    -26.5272724 -0.265273E+02  0.428E-02    2.79       0.0  T
   2    -26.5272735 -0.104922E-05  0.257E-02    2.79       1.0  T
   3    -26.5272725  0.920269E-06  0.994E-03    2.79       2.6  T
   4    -26.5272737 -0.119235E-05  0.178E-03    2.79      14.5  T
   5    -26.5272738 -0.345706E-07  0.733E-04    2.79      35.2  T
   6    -26.5272738 -0.142803E-08  0.372E-04    2.79      69.4  T
     SCC iter.                  ...        0 min,  0.002 sec
     gradient                   ...        0 min,  0.003 sec
 * total energy  :   -26.1560622 Eh     change       -0.1336514E-04 Eh
   gradient norm :     0.0034219 Eh/α   predicted    -0.2983146E-04 ( 123.20%)
   displ. norm   :     0.0131482 α      lambda       -0.2681322E-04
   maximum displ.:     0.0057229 α      in ANC's #3, #1, #12, ...

........................................................................
.............................. CYCLE    5 ..............................
........................................................................

 iter      E             dE          RMSdq      gap      omega  full diag
   1    -26.5262957 -0.265263E+02  0.196E-02    2.79       0.0  T
   2    -26.5262958 -0.111575E-06  0.117E-02    2.79       2.2  T
   3    -26.5262958  0.301135E-07  0.226E-03    2.79      11.4  T
   4    -26.5262958 -0.428582E-07  0.515E-04    2.79      50.1  T
   5    -26.5262958 -0.209684E-08  0.245E-04    2.79     105.2  T
     SCC iter.                  ...        0 min,  0.001 sec
     gradient                   ...        0 min,  0.003 sec
 * total energy  :   -26.1560786 Eh     change       -0.1645161E-04 Eh
   gradient norm :     0.0013791 Eh/α   predicted    -0.1340931E-04 ( -18.49%)
   displ. norm   :     0.0121276 α      lambda       -0.4464816E-05
   maximum displ.:     0.0081520 α      in ANC's #9, #6, #10, ...

........................................................................
.............................. CYCLE    6 ..............................
........................................................................

 iter      E             dE          RMSdq      gap      omega  full diag
   1    -26.5258518 -0.265259E+02  0.989E-03    2.79       0.0  T
   2    -26.5258518 -0.351156E-07  0.589E-03    2.79       4.4  T
   3    -26.5258518  0.382428E-07  0.267E-03    2.79       9.7  T
   4    -26.5258518 -0.560234E-07  0.363E-04    2.79      71.1  T
   5    -26.5258518 -0.363944E-09  0.219E-04    2.79     118.0  T
     SCC iter.                  ...        0 min,  0.001 sec
     gradient                   ...        0 min,  0.003 sec
 * total energy  :   -26.1560817 Eh     change       -0.3105370E-05 Eh
   gradient norm :     0.0006821 Eh/α   predicted    -0.2233728E-05 ( -28.07%)
   displ. norm   :     0.0030490 α      lambda       -0.6669081E-06
   maximum displ.:     0.0014503 α      in ANC's #9, #6, #1, ...

........................................................................
.............................. CYCLE    7 ..............................
........................................................................

 iter      E             dE          RMSdq      gap      omega  full diag
   1    -26.5261181 -0.265261E+02  0.363E-03    2.79       0.0  T
   2    -26.5261182 -0.181892E-07  0.217E-03    2.79      11.9  T
   3    -26.5261182  0.120858E-08  0.124E-03    2.79      20.7  T
   4    -26.5261182 -0.921233E-08  0.164E-04    2.79     157.8  T
   5    -26.5261182 -0.106425E-09  0.732E-05    2.79     352.8  T
     SCC iter.                  ...        0 min,  0.001 sec
     gradient                   ...        0 min,  0.003 sec
 * total energy  :   -26.1560823 Eh     change       -0.5635873E-06 Eh
   gradient norm :     0.0001902 Eh/α   predicted    -0.3327468E-06 ( -40.96%)
   displ. norm   :     0.0006567 α      lambda       -0.3803800E-07
   maximum displ.:     0.0003565 α      in ANC's #6, #10, #17, ...

........................................................................
.............................. CYCLE    8 ..............................
........................................................................

 iter      E             dE          RMSdq      gap      omega  full diag
   1    -26.5261694 -0.265262E+02  0.935E-04    2.79       0.0  T
   2    -26.5261694 -0.488574E-08  0.592E-04    2.79      43.6  T
   3    -26.5261694 -0.233745E-08  0.294E-04    2.79      87.7  T
     SCC iter.                  ...        0 min,  0.001 sec
     gradient                   ...        0 min,  0.003 sec
 * total energy  :   -26.1560823 Eh     change       -0.2985227E-07 Eh
   gradient norm :     0.0000352 Eh/α   predicted    -0.2020627E-07 ( -32.31%)
   displ. norm   :     0.0002180 α      lambda       -0.1087310E-09
   maximum displ.:     0.0001205 α      in ANC's #6, #7, #1, ...

   *** GEOMETRY OPTIMIZATION CONVERGED AFTER 8 ITERATIONS ***

------------------------------------------------------------------------
 total energy gain   :        -0.0007184 Eh       -0.4508 kcal/mol
 total RMSD          :         0.0270969 a0        0.0143 Å
 total power (kW/mol):        -0.2357601 (step)  -36.1047 (real)
------------------------------------------------------------------------

 ANCopt (total)                0 d,  0 h,  0 min,  0.052 sec
 optimizer setup                ...        0 min,  0.000 sec (  0.836%)
 model hessian                  ...        0 min,  0.001 sec (  2.542%)
 ANC generation                 ...        0 min,  0.000 sec (  0.480%)
 coordinate transformation      ...        0 min,  0.000 sec (  0.095%)
 single point calculation       ...        0 min,  0.048 sec ( 91.653%)
 optimization log               ...        0 min,  0.001 sec (  2.300%)
 hessian update                 ...        0 min,  0.000 sec (  0.086%)
 rational function              ...        0 min,  0.001 sec (  1.399%)

================
 final structure:
================
$coord
        3.92103418073796       -1.92896470221703       -0.00000110730035      C
        4.40082786567238        0.66140731881923        0.00001202389495      C
        2.44877439036971        2.38037895546327        0.00004723197932      C
       -0.06085733332200        1.55241012562373        0.00007804816942      C
       -0.55747486265438       -1.07262278616168        0.00006248217438      C
        1.46739454918104       -2.77851801345436        0.00002012771998      C
       -3.13774806669332       -1.97612088849935        0.00009268425326      C
       -5.01169186795856       -0.63524767013905        0.00017020057153      O
       -1.90907313215617        3.26150726884512        0.00010148361123      O
        5.47156410333650       -3.25265110546641        0.00000243414177      H
        6.32884017025383        1.32945178483595       -0.00003599194109      H
        2.79852801065221        4.38817529643058        0.00001268121645      H
        1.05943779133176       -4.77937062341464        0.00007631248012      H
       -3.33530885920798       -4.05401666733151        0.00011527151297      H
       -3.54434538854561        2.36538027529411        0.00006819673246      H
$end
 
 Bond Distances (Angstroems)
 ---------------------------
C1-C2=1.3941         C1-C6=1.3740         C1-H10=1.0788        C2-C1=1.3941         C2-C3=1.3764         C2-H11=1.0798        
C3-C2=1.3764         C3-C4=1.3984         C3-H12=1.0785        C4-C3=1.3984         C4-C5=1.4137         C4-O9=1.3321         
C5-C4=1.4137         C5-C6=1.4011         C5-C7=1.4467         C6-C1=1.3740         C6-C5=1.4011         C6-H13=1.0806        
C7-C5=1.4467         C7-O8=1.2194         C7-H14=1.1045        O8-C7=1.2194         O9-C4=1.3321         O9-H15=0.9868        
H10-C1=1.0788        H11-C2=1.0798        H12-C3=1.0785        H13-C6=1.0806        H14-C7=1.1045        H15-O9=0.9868        
 C  H  Rav=1.0844 sigma=0.0101  Rmin=1.0785  Rmax=1.1045     5
 C  C  Rav=1.4006 sigma=0.0228  Rmin=1.3740  Rmax=1.4467     7
 O  H  Rav=0.9868 sigma=0.0000  Rmin=0.9868  Rmax=0.9868     1
 O  C  Rav=1.2757 sigma=0.0564  Rmin=1.2194  Rmax=1.3321     2
 
 selected bond angles (degree)
 --------------------
C6-C1-C2=119.59                H10-C1-C2=119.99               H10-C1-C6=120.41               C3-C2-C1=120.87                
H11-C2-C1=119.60               H11-C2-C3=119.52               C4-C3-C2=120.37                H12-C3-C2=121.49               
H12-C3-C4=118.14               C5-C4-C3=118.97                O9-C4-C3=118.98                O9-C4-C5=122.05                
C6-C5-C4=119.40                C7-C5-C4=120.01                C7-C5-C6=120.59                C5-C6-C1=120.79                
H13-C6-C1=120.62               H13-C6-C5=118.59               O8-C7-C5=125.12                H14-C7-C5=114.73               
H14-C7-O8=120.15               H15-O9-C4=108.52               
 
 selected dihedral angles (degree)
 ---------------------------------
C3-C2-C1-C6=  0.00            C3-C2-C1-H10=180.00           H11-C2-C1-C6=180.00           H11-C2-C1-H10=  0.00          
C4-C3-C2-C1=  0.00            C4-C3-C2-H11=180.00           H12-C3-C2-C1=180.00           H12-C3-C2-H11=  0.00          
C5-C4-C3-C2=  0.00            C5-C4-C3-H12=180.00           O9-C4-C3-C2=180.00            O9-C4-C3-H12=  0.00           
C6-C5-C4-C3=  0.00            C6-C5-C4-O9=180.00            C7-C5-C4-C3=180.00            C7-C5-C4-O9=  0.00            
C5-C6-C1-C2=  0.00            C5-C6-C1-H10=180.00           H13-C6-C1-C2=180.00           H13-C6-C1-H10=  0.00          
C1-C6-C5-C4=  0.00            C1-C6-C5-C7=180.00            H13-C6-C5-C4=180.00           H13-C6-C5-C7=  0.00           
O8-C7-C5-C4=  0.00            O8-C7-C5-C6=180.00            H14-C7-C5-C4=180.00           H14-C7-C5-C6=  0.00           
H15-O9-C4-C3=180.00           H15-O9-C4-C5=  0.00           
           -------------------------------------------------
          |                Final Singlepoint                |
           -------------------------------------------------

          ...................................................
          :                      SETUP                      :
          :.................................................:
          :  # basis functions                  42          :
          :  # atomic orbitals                  42          :
          :  # shells                           24          :
          :  # electrons                        46          :
          :  max. iterations                   250          :
          :  Hamiltonian                  GFN2-xTB          :
          :  restarted?                      false          :
          :  GBSA solvation                  false          :
          :  PC potential                    false          :
          :  electronic temp.          300.0000000     K    :
          :  accuracy                    1.0000000          :
          :  -> integral cutoff          0.2500000E+02      :
          :  -> integral neglect         0.1000000E-07      :
          :  -> SCF convergence          0.1000000E-05 Eh   :
          :  -> wf. convergence          0.1000000E-03 e    :
          :  Broyden damping             0.4000000          :
          :  net charge                          0          :
          :  unpaired electrons                  0          :
          ...................................................

 iter      E             dE          RMSdq      gap      omega  full diag
   1    -26.5261694 -0.265262E+02  0.885E-05    2.79       0.0  T
   2    -26.5261694 -0.184386E-10  0.502E-05    2.79     514.8  T
   3    -26.5261694 -0.988365E-11  0.343E-05    2.79     752.0  T

   *** convergence criteria satisfied after 3 iterations ***

         #    Occupation            Energy/Eh            Energy/eV
      -------------------------------------------------------------
         1        2.0000           -0.7256059             -19.7447
       ...           ...                  ...                  ...
        17        2.0000           -0.4919144             -13.3857
        18        2.0000           -0.4794827             -13.0474
        19        2.0000           -0.4624265             -12.5833
        20        2.0000           -0.4482387             -12.1972
        21        2.0000           -0.4294131             -11.6849
        22        2.0000           -0.4065932             -11.0640
        23        2.0000           -0.4017976             -10.9335 (HOMO)
        24                         -0.2991957              -8.1415 (LUMO)
        25                         -0.2349886              -6.3944
        26                         -0.2080252              -5.6607
        27                         -0.0999140              -2.7188
        28                          0.0831284               2.2620
       ...                                ...                  ...
        42                          0.6553302              17.8324
      -------------------------------------------------------------
                  HL-Gap            0.1026019 Eh            2.7919 eV
             Fermi-level           -0.3504966 Eh           -9.5375 eV

 SCC (total)                   0 d,  0 h,  0 min,  0.006 sec
 SCC setup                      ...        0 min,  0.000 sec (  1.693%)
 Dispersion                     ...        0 min,  0.000 sec (  0.680%)
 classical contributions        ...        0 min,  0.000 sec (  0.230%)
 integral evaluation            ...        0 min,  0.001 sec ( 24.080%)
 iterations                     ...        0 min,  0.001 sec ( 15.838%)
 molecular gradient             ...        0 min,  0.003 sec ( 55.884%)
 printout                       ...        0 min,  0.000 sec (  1.301%)

         :::::::::::::::::::::::::::::::::::::::::::::::::::::
         ::                     SUMMARY                     ::
         :::::::::::::::::::::::::::::::::::::::::::::::::::::
         :: total energy             -26.156082326667 Eh    ::
         :: gradient norm              0.000033934187 Eh/a0 ::
         :: HOMO-LUMO gap              2.791941094705 eV    ::
         ::.................................................::
         :: SCC energy               -26.526144754349 Eh    ::
         :: -> isotropic ES            0.041491972439 Eh    ::
         :: -> anisotropic ES         -0.000604719510 Eh    ::
         :: -> anisotropic XC          0.007908793472 Eh    ::
         :: -> dispersion             -0.012067488904 Eh    ::
         :: repulsion energy           0.370062427682 Eh    ::
         :: add. restraining           0.000000000000 Eh    ::
         :: total charge              -0.000000000000 e     ::
         :::::::::::::::::::::::::::::::::::::::::::::::::::::

           ------------------------------------------------- 
          |                Numerical Hessian                |
           ------------------------------------------------- 
step length          :   0.00500
SCC accuracy         :   0.30000
Hessian scale factor :   1.00000
frozen atoms in %    :   0.00000    0
RMS gradient         :   0.00003
estimated CPU  time      0.01 min
estimated wall time      0.01 min

writing file <hessian>.

 projected vibrational frequencies (cm⁻¹)
eigval :       -0.00    -0.00     0.00     0.00     0.00     0.00
eigval :      127.62   187.35   272.73   272.79   403.15   403.93
eigval :      439.90   500.85   540.90   647.41   683.12   745.34
eigval :      774.11   793.94   850.99   877.67   907.68   926.55
eigval :      931.28  1076.00  1123.83  1173.72  1185.20  1234.81
eigval :     1275.02  1280.52  1356.34  1374.58  1449.54  1455.90
eigval :     1554.74  1604.89  1685.81  2800.69  3076.18  3080.70
eigval :     3087.43  3101.91  3111.74
           -------------------------------------------------
          |                Property Printout                |
           -------------------------------------------------

    * Orbital Energies and Occupations

         #    Occupation            Energy/Eh            Energy/eV
      -------------------------------------------------------------
         1        2.0000           -0.7256060             -19.7447
       ...           ...                  ...                  ...
        11        2.0000           -0.5510339             -14.9944
        12        2.0000           -0.5452012             -14.8357
        13        2.0000           -0.5324565             -14.4889
        14        2.0000           -0.5305671             -14.4375
        15        2.0000           -0.5138655             -13.9830
        16        2.0000           -0.5027301             -13.6800
        17        2.0000           -0.4919145             -13.3857
        18        2.0000           -0.4794826             -13.0474
        19        2.0000           -0.4624265             -12.5833
        20        2.0000           -0.4482388             -12.1972
        21        2.0000           -0.4294131             -11.6849
        22        2.0000           -0.4065933             -11.0640
        23        2.0000           -0.4017977             -10.9335 (HOMO)
        24                         -0.2991957              -8.1415 (LUMO)
        25                         -0.2349887              -6.3944
        26                         -0.2080252              -5.6607
        27                         -0.0999140              -2.7188
        28                          0.0831283               2.2620
        29                          0.0909032               2.4736
        30                          0.1177769               3.2049
        31                          0.1505557               4.0968
        32                          0.1627906               4.4298
        33                          0.1678548               4.5676
        34                          0.1996373               5.4324
       ...                                ...                  ...
        42                          0.6553301              17.8324
      -------------------------------------------------------------
                  HL-Gap            0.1026020 Eh            2.7919 eV
             Fermi-level           -0.3504967 Eh           -9.5375 eV

     #   Z          covCN         q      C6AA      α(0)
     1   6 C        2.915    -0.039    28.966     8.825
     2   6 C        2.920    -0.018    28.451     8.747
     3   6 C        2.915    -0.054    29.346     8.883
     4   6 C        2.846     0.171    24.321     8.083
     5   6 C        2.967    -0.056    29.378     8.891
     6   6 C        2.921    -0.026    28.644     8.777
     7   6 C        2.769     0.204    23.665     7.967
     8   8 O        0.856    -0.378    21.244     6.180
     9   8 O        1.658    -0.372    20.320     6.085
    10   1 H        0.926     0.044     2.397     2.421
    11   1 H        0.926     0.049     2.330     2.387
    12   1 H        0.926     0.061     2.187     2.313
    13   1 H        0.926     0.044     2.398     2.422
    14   1 H        0.923     0.019     2.750     2.593
    15   1 H        0.802     0.350     0.588     1.204

 Mol. C6AA /au·bohr⁶  :       2939.816343
 Mol. C8AA /au·bohr⁸  :      71513.408570
 Mol. α(0) /au        :         85.776959


Wiberg/Mayer (AO) data.
largest (>0.10) Wiberg bond orders for each atom

 ---------------------------------------------------------------------------
     #   Z sym  total        # sym  WBO       # sym  WBO       # sym  WBO
 ---------------------------------------------------------------------------
     1   6 C    3.992 --     6 C    1.499     2 C    1.376    10 H    0.970
     2   6 C    3.990 --     3 C    1.490     1 C    1.376    11 H    0.970
     3   6 C    3.988 --     2 C    1.490     4 C    1.332    12 H    0.966
                             6 C    0.107
     4   6 C    3.947 --     3 C    1.332     5 C    1.273     9 O    1.169
     5   6 C    3.984 --     6 C    1.334     4 C    1.273     7 C    1.131
     6   6 C    3.991 --     1 C    1.499     5 C    1.334    13 H    0.967
                             3 C    0.107
     7   6 C    3.929 --     8 O    1.773     5 C    1.131    14 H    0.936
     8   8 O    2.085 --     7 C    1.773
     9   8 O    2.201 --     4 C    1.169    15 H    0.804
    10   1 H    0.998 --     1 C    0.970
    11   1 H    0.997 --     2 C    0.970
    12   1 H    0.996 --     3 C    0.966
    13   1 H    0.998 --     6 C    0.967
    14   1 H    0.999 --     7 C    0.936
    15   1 H    0.877 --     9 O    0.804
 ---------------------------------------------------------------------------

Topologies differ in total number of bonds
Writing topology from bond orders to xtbtopo.mol

molecular dipole:
                 x           y           z       tot (Debye)
 q only:        1.048      -0.315      -0.000
   full:        1.058      -0.622      -0.000       3.119
molecular quadrupole (traceless):
                xx          xy          yy          xz          yz          zz
 q only:       -2.437      -0.242       2.249       0.000      -0.000       0.188
  q+dip:       -2.024       1.654       4.277       0.000      -0.000      -2.253
   full:       -3.389       1.279       2.456       0.000      -0.000       0.933

           -------------------------------------------------
          |                Geometry Summary                 |
           -------------------------------------------------

      molecular mass/u    :      122.1216056
   center of mass at/Å    :       -0.0000226       0.0000237       0.0000361
  moments of inertia/u·Å² :        0.1551705E+03   0.3362595E+03   0.4914300E+03
rotational constants/cm⁻¹ :        0.1086394E+00   0.5013281E-01   0.3430322E-01

 * 13 selected distances

     #   Z          #   Z                                           value/Å
     1   6 C        2   6 C                                       1.3940812
     2   6 C        3   6 C                                       1.3764079
     3   6 C        4   6 C                                       1.3984488
     4   6 C        5   6 C                                       1.4137480 (max)
     1   6 C        6   6 C                                       1.3740369
     5   6 C        6   6 C                                       1.4010886
     7   6 C        8   8 O                                       1.2193611
     4   6 C        9   8 O                                       1.3321100
     1   6 C       10   1 H                                       1.0788325
     2   6 C       11   1 H                                       1.0797699
     3   6 C       12   1 H                                       1.0784801
     6   6 C       13   1 H                                       1.0805898
     9   8 O       15   1 H                                       0.9867643 (min)

 * 4 distinct bonds (by element types)

   Z      Z             #   av. dist./Å        max./Å        min./Å
   1 H    6 C           4     1.0794181     1.0805898     1.0784801
   6 C    6 C           6     1.3929686     1.4137480     1.3740369
   1 H    8 O           1     0.9867643     0.9867643     0.9867643
   6 C    8 O           2     1.2757356     1.3321100     1.2193611

           -------------------------------------------------
          |               Frequency Printout                |
           -------------------------------------------------
 projected vibrational frequencies (cm⁻¹)
eigval :       -0.00    -0.00     0.00     0.00     0.00     0.00
eigval :      127.62   187.35   272.73   272.79   403.15   403.93
eigval :      439.90   500.85   540.90   647.41   683.12   745.34
eigval :      774.11   793.94   850.99   877.67   907.68   926.55
eigval :      931.28  1076.00  1123.83  1173.72  1185.20  1234.81
eigval :     1275.02  1280.52  1356.34  1374.58  1449.54  1455.90
eigval :     1554.74  1604.89  1685.81  2800.69  3076.18  3080.70
eigval :     3087.43  3101.91  3111.74
 reduced masses (amu)
   1: 11.38   2: 12.39   3: 12.81   4: 12.00   5: 11.71   6: 13.91   7: 13.15   8:  9.96
   9: 13.93  10:  9.69  11: 12.50  12:  9.39  13: 12.94  14:  9.46  15: 12.07  16: 11.83
  17: 10.52  18:  2.38  19:  3.72  20: 11.33  21: 11.33  22:  3.57  23:  4.33  24:  4.50
  25:  4.58  26:  6.29  27:  5.85  28:  1.82  29:  2.84  30:  7.27  31:  6.67  32:  8.76
  33: 10.82  34:  4.43  35:  9.85  36:  9.44  37: 11.30  38: 11.51  39: 13.15  40:  1.71
  41:  1.81  42:  1.90  43:  1.79  44:  1.88  45:  1.87
 IR intensities (km·mol⁻¹)
   1:  0.30   2:  0.22   3:  0.26   4:  0.15   5:  0.22   6:  1.21   7:  0.71   8:  4.34
   9:  9.10  10:  2.04  11:  2.85  12:  0.20  13:  8.19  14:  0.22  15:  1.83  16: 20.87
  17:  0.76  18:201.26  19: 40.01  20: 22.47  21: 15.24  22:  2.07  23:  1.13  24:  0.51
  25:  0.15  26:  3.72  27: 14.84  28: 13.72  29:110.06  30: 64.92  31:178.17  32: 47.02
  33: 26.96  34: 37.61  35: 37.09  36:148.08  37: 82.43  38: 81.70  39:481.94  40:110.39
  41:  6.56  42:212.03  43:  8.02  44: 34.96  45:  6.87
 Raman intensities (Ä⁴*amu⁻¹)
   1:  0.00   2:  0.00   3:  0.00   4:  0.00   5:  0.00   6:  0.00   7:  0.00   8:  0.00
   9:  0.00  10:  0.00  11:  0.00  12:  0.00  13:  0.00  14:  0.00  15:  0.00  16:  0.00
  17:  0.00  18:  0.00  19:  0.00  20:  0.00  21:  0.00  22:  0.00  23:  0.00  24:  0.00
  25:  0.00  26:  0.00  27:  0.00  28:  0.00  29:  0.00  30:  0.00  31:  0.00  32:  0.00
  33:  0.00  34:  0.00  35:  0.00  36:  0.00  37:  0.00  38:  0.00  39:  0.00  40:  0.00
  41:  0.00  42:  0.00  43:  0.00  44:  0.00  45:  0.00
 output can be read by thermo (or use thermo option).
 writing <g98.out> molden fake output.
 recommended (thermochemical) frequency scaling factor: 1.0
           -------------------------------------------------
          |             Thermodynamic Functions             |
           -------------------------------------------------

Molecule has the following symmetry elements: (sigma) 
It seems to be the Cs point group
cs  symmetry found (for desy threshold:  0.10E+00) used in thermo

          ...................................................
          :                      SETUP                      :
          :.................................................:
          :  # frequencies                          39      :
          :  # imaginary freq.                       0      :
          :  linear?                             false      :
          :  only rotor calc.                    false      :
          :  symmetry                               cs      :
          :  rotational number                       1      :
          :  scaling factor                  1.0000000      :
          :  rotor cutoff                    0.0000000 cm⁻¹ :
          :  imag. cutoff                 -100.0000000 cm⁻¹ :
          :.................................................:

    mode    ω/cm⁻¹     T·S(HO)/kcal·mol⁻¹    T·S(FR)/kcal·mol⁻¹   T·S(vib)
   ------------------------------------------------------------------------
       1    127.62    -0.88898 (100.00%)    -0.77885 (  0.00%)    -0.88898
       2    187.35    -0.67201 (100.00%)    -0.66515 (  0.00%)    -0.67201
       3    272.73    -0.47073 (100.00%)    -0.55393 (  0.00%)    -0.47073
       4    272.79    -0.47061 (100.00%)    -0.55386 (  0.00%)    -0.47061
   ------------------------------------------------------------------------

   temp. (K)  partition function   enthalpy   heat capacity  entropy
                                   cal/mol     cal/K/mol   cal/K/mol   J/K/mol
 298.15  VIB   16.1                 2781.398     22.425     14.849
         ROT  0.387E+06              888.752      2.981     28.548
         INT  0.622E+07             3670.151     25.406     43.398
         TR   0.131E+28             1481.254      4.968     40.295
         TOT                        5151.4047    30.3737    83.6931   350.1717

       T/K    H(0)-H(T)+PV         H(T)/Eh          T*S/Eh         G(T)/Eh
   ------------------------------------------------------------------------
    298.15    0.820929E-02    0.118420E+00    0.397653E-01    0.786546E-01
   ------------------------------------------------------------------------

         :::::::::::::::::::::::::::::::::::::::::::::::::::::
         ::                  THERMODYNAMIC                  ::
         :::::::::::::::::::::::::::::::::::::::::::::::::::::
         :: total free energy         -26.077427731409 Eh   ::
         ::.................................................::
         :: total energy              -26.156082326673 Eh   ::
         :: zero point energy           0.110210580377 Eh   ::
         :: G(RRHO) w/o ZPVE           -0.031555985113 Eh   ::
         :: G(RRHO) contrib.            0.078654595264 Eh   ::
         :::::::::::::::::::::::::::::::::::::::::::::::::::::

optimized geometry written to: xtbopt.coord


           -------------------------------------------------
          | TOTAL ENERGY              -26.156082326673 Eh   |
          | TOTAL ENTHALPY            -26.037662460376 Eh   |
          | TOTAL FREE ENERGY         -26.077427731409 Eh   |
          | GRADIENT NORM               0.000034001315 Eh/α |
          | HOMO-LUMO GAP               2.791943168603 eV   |
           -------------------------------------------------

------------------------------------------------------------------------
 * finished run on 2025/04/15 at 19:41:30.229     
------------------------------------------------------------------------
 total:
 * wall-time:     0 d,  0 h,  0 min,  0.669 sec
 *  cpu-time:     0 d,  0 h,  0 min,  0.636 sec
 * ratio c/w:     0.951 speedup
 SCF:
 * wall-time:     0 d,  0 h,  0 min,  0.032 sec
 *  cpu-time:     0 d,  0 h,  0 min,  0.015 sec
 * ratio c/w:     0.480 speedup
 ANC optimizer:
 * wall-time:     0 d,  0 h,  0 min,  0.061 sec
 *  cpu-time:     0 d,  0 h,  0 min,  0.058 sec
 * ratio c/w:     0.954 speedup
 analytical hessian:
 * wall-time:     0 d,  0 h,  0 min,  0.552 sec
 *  cpu-time:     0 d,  0 h,  0 min,  0.550 sec
 * ratio c/w:     0.997 speedup

