      -----------------------------------------------------------      
     |                   =====================                   |     
     |                           x T B                           |     
     |                   =====================                   |     
     |                         S. Grimme                         |     
     |          Mulliken Center for Theoretical Chemistry        |     
     |                    University of Bonn                     |     
      -----------------------------------------------------------      

   * xtb version 6.7.1 (edcfbbe) compiled by 'albert@albert-system' on 2024-07-22

   xtb is free software: you can redistribute it and/or modify it under
   the terms of the GNU Lesser General Public License as published by
   the Free Software Foundation, either version 3 of the License, or
   (at your option) any later version.
   
   xtb is distributed in the hope that it will be useful,
   but WITHOUT ANY WARRANTY; without even the implied warranty of
   MERCHANTABILITY or FITNESS FOR A PARTICULAR PURPOSE.  See the
   GNU Lesser General Public License for more details.
   
   Cite this work as:
   * C. Bannwarth, E. Caldeweyher, S. Ehlert, A. Hansen, P. Pracht,
     J. Seibert, S. Spicher, S. Grimme, WIREs Comput. Mol. Sci., 2020, 11,
     e01493. DOI: 10.1002/wcms.1493
   
   for GFN2-xTB:
   * C. Bannwarth, S. Ehlert and S. Grimme., J. Chem. Theory Comput., 2019,
     15, 1652-1671. DOI: 10.1021/acs.jctc.8b01176
   for GFN1-xTB:
   * S. Grimme, C. Bannwarth, P. Shushkov, J. Chem. Theory Comput., 2017,
     13, 1989-2009. DOI: 10.1021/acs.jctc.7b00118
   for GFN0-xTB:
   * P. Pracht, E. Caldeweyher, S. Ehlert, S. Grimme, ChemRxiv, 2019, preprint.
     DOI: 10.26434/chemrxiv.8326202.v1
   for GFN-FF:
   * S. Spicher and S. Grimme, Angew. Chem. Int. Ed., 2020, 59, 15665-15673.
     DOI: 10.1002/anie.202004239
   
   for ALPB and GBSA implicit solvation:
   * S. Ehlert, M. Stahn, S. Spicher, S. Grimme, J. Chem. Theory Comput.,
     2021, 17, 4250-4261. DOI: 10.1021/acs.jctc.1c00471
   
   for ddCOSMO and CPCM-X implicit solvation:
   * M. Stahn, S. Ehlert, S. Grimme, J. Phys. Chem. A,
     2023, XX, XXXX-XXXX. DOI: 10.1021/acs.jpca.3c04382
   
   for DFT-D4:
   * E. Caldeweyher, C. Bannwarth and S. Grimme, J. Chem. Phys., 2017,
     147, 034112. DOI: 10.1063/1.4993215
   * E. Caldeweyher, S. Ehlert, A. Hansen, H. Neugebauer, S. Spicher,
     C. Bannwarth and S. Grimme, J. Chem. Phys., 2019, 150, 154122.
     DOI: 10.1063/1.5090222
   * E. Caldeweyher, J.-M. Mewes, S. Ehlert and S. Grimme, Phys. Chem. Chem. Phys.
     2020, 22, 8499-8512. DOI: 10.1039/D0CP00502A
   
   for sTDA-xTB:
   * S. Grimme and C. Bannwarth, J. Chem. Phys., 2016, 145, 054103.
     DOI: 10.1063/1.4959605
   
   in the mass-spec context:
   * V. Asgeirsson, C. Bauer and S. Grimme, Chem. Sci., 2017, 8, 4879.
     DOI: 10.1039/c7sc00601b
   * J. Koopman and S. Grimme, ACS Omega 2019, 4, 12, 15120-15133.
     DOI: 10.1021/acsomega.9b02011
   
   for metadynamics refer to:
   * S. Grimme, J. Chem. Theory Comput., 2019, 155, 2847-2862
     DOI: 10.1021/acs.jctc.9b00143
   
   for SPH calculations refer to:
   * S. Spicher and S. Grimme, J. Chem. Theory Comput., 2021, 17, 1701-1714
     DOI: 10.1021/acs.jctc.0c01306
   
   for ONIOM refer to:
   * C. Plett, A. Katbashev, S. Ehlert, S. Grimme, M. Bursch,
     Phys. Chem. Chem. Phys., 2023, 25, 17860-17868. DOI: 10.1039/D3CP02178E
   
   for DIPRO refer to:
   * J. Kohn, N. Gildemeister, S. Grimme, D. Fazzi, A. Hansen,
     J. Chem. Phys., 2023, just accepted.
   
   for PTB refer to:
   * S. Grimme, M. Mueller, A. Hansen, J. Chem. Phys., 2023, 158, 124111.
     DOI: 10.1063/5.0137838
   
   with help from (in alphabetical order)
   P. Atkinson, C. Bannwarth, F. Bohle, G. Brandenburg, E. Caldeweyher
   M. Checinski, S. Dohm, S. Ehlert, S. Ehrlich, I. Gerasimov, C. Hölzer
   A. Katbashev, J. Kohn, J. Koopman, C. Lavigne, S. Lehtola, F. März, M. Müller,
   F. Musil, H. Neugebauer, J. Pisarek, C. Plett, P. Pracht, F. Pultar,
   J. Seibert, P. Shushkov, S. Spicher, M. Stahn, M. Steiner, T. Strunk,
   J. Stückrath, T. Rose, and J. Unsleber
   
 * started run on 2025/04/16 at 11:24:58.284     
   ID    Z sym.   atoms
    1    6 C      1, 2, 4, 6, 8, 10
    2    1 H      3, 5, 7, 9, 11, 18-24
    3    8 O      12-17

           -------------------------------------------------
          |                Calculation Setup                |
           -------------------------------------------------

          program call               : /software/projects/pawsey0265/mwang1/xtb/bin/xtb xtb_rrho.coord --gfn2 --bhess vtight --chrg 0 --enso --norestart -I rrho-xcontrol-inp --parallel 1
          hostname                   : nid002811
          coordinate file            : xtb_rrho.coord
          omp threads                :                     1


           -------------------------------------------------
          |                 G F N 2 - x T B                 |
           -------------------------------------------------

        Reference                      10.1021/acs.jctc.8b01176
      * Hamiltonian:
        H0-scaling (s, p, d)           1.850000    2.230000    2.230000
        zeta-weighting                 0.500000
      * Dispersion:
        s8                             2.700000
        a1                             0.520000
        a2                             5.000000
        s9                             5.000000
      * Repulsion:
        kExp                           1.500000    1.000000
        rExp                           1.000000
      * Coulomb:
        alpha                          2.000000
        third order                    shell-resolved
        anisotropic                    true
        a3                             3.000000
        a5                             4.000000
        cn-shift                       1.200000
        cn-exp                         4.000000
        max-rad                        5.000000


          ...................................................
          :                      SETUP                      :
          :.................................................:
          :  # basis functions                  60          :
          :  # atomic orbitals                  60          :
          :  # shells                           36          :
          :  # electrons                        72          :
          :  max. iterations                   250          :
          :  Hamiltonian                  GFN2-xTB          :
          :  restarted?                      false          :
          :  GBSA solvation                  false          :
          :  PC potential                    false          :
          :  electronic temp.          300.0000000     K    :
          :  accuracy                    1.0000000          :
          :  -> integral cutoff          0.2500000E+02      :
          :  -> integral neglect         0.1000000E-07      :
          :  -> SCF convergence          0.1000000E-05 Eh   :
          :  -> wf. convergence          0.1000000E-03 e    :
          :  Broyden damping             0.4000000          :
          :  net charge                          0          :
          :  unpaired electrons                  0          :
          ...................................................

 iter      E             dE          RMSdq      gap      omega  full diag
   1    -43.6115515 -0.436116E+02  0.475E+00   10.07       0.0  T
   2    -43.6533169 -0.417654E-01  0.257E+00    9.85       1.0  T
   3    -43.6545140 -0.119705E-02  0.777E-01    9.90       1.0  T
   4    -43.6555812 -0.106727E-02  0.152E-01    9.84       1.0  T
   5    -43.6556504 -0.691301E-04  0.652E-02    9.88       1.0  T
   6    -43.6556609 -0.105453E-04  0.199E-02    9.88       1.0  T
   7    -43.6556618 -0.878701E-06  0.651E-03    9.88       3.1  T
   8    -43.6556621 -0.286535E-06  0.193E-03    9.88      10.6  T
   9    -43.6556621 -0.610586E-08  0.677E-04    9.88      30.2  T
  10    -43.6556621 -0.256256E-08  0.258E-04    9.88      79.2  T

   *** convergence criteria satisfied after 10 iterations ***

         #    Occupation            Energy/Eh            Energy/eV
      -------------------------------------------------------------
         1        2.0000           -0.7291479             -19.8411
       ...           ...                  ...                  ...
        30        2.0000           -0.4680907             -12.7374
        31        2.0000           -0.4577765             -12.4567
        32        2.0000           -0.4507287             -12.2650
        33        2.0000           -0.4460430             -12.1374
        34        2.0000           -0.4277795             -11.6405
        35        2.0000           -0.4212265             -11.4622
        36        2.0000           -0.4165686             -11.3354 (HOMO)
        37                         -0.0534753              -1.4551 (LUMO)
        38                         -0.0258995              -0.7048
        39                         -0.0102609              -0.2792
        40                          0.0218752               0.5953
        41                          0.0454794               1.2376
       ...                                ...                  ...
        60                          0.2667629               7.2590
      -------------------------------------------------------------
                  HL-Gap            0.3630933 Eh            9.8803 eV
             Fermi-level           -0.2350219 Eh           -6.3953 eV

 SCC (total)                   0 d,  0 h,  0 min,  0.041 sec
 SCC setup                      ...        0 min,  0.000 sec (  0.668%)
 Dispersion                     ...        0 min,  0.000 sec (  0.389%)
 classical contributions        ...        0 min,  0.000 sec (  0.112%)
 integral evaluation            ...        0 min,  0.003 sec (  6.749%)
 iterations                     ...        0 min,  0.028 sec ( 66.949%)
 molecular gradient             ...        0 min,  0.010 sec ( 24.540%)
 printout                       ...        0 min,  0.000 sec (  0.528%)

         :::::::::::::::::::::::::::::::::::::::::::::::::::::
         ::                     SUMMARY                     ::
         :::::::::::::::::::::::::::::::::::::::::::::::::::::
         :: total energy             -43.353965948684 Eh    ::
         :: gradient norm              0.048462372631 Eh/a0 ::
         :: HOMO-LUMO gap              9.880271981184 eV    ::
         ::.................................................::
         :: SCC energy               -43.655497466524 Eh    ::
         :: -> isotropic ES            0.136648251897 Eh    ::
         :: -> anisotropic ES         -0.002052232648 Eh    ::
         :: -> anisotropic XC         -0.009018025508 Eh    ::
         :: -> dispersion             -0.018953504107 Eh    ::
         :: repulsion energy           0.301531517840 Eh    ::
         :: add. restraining           0.000000000000 Eh    ::
         :: total charge               0.000000000000 e     ::
         :::::::::::::::::::::::::::::::::::::::::::::::::::::

metadynamics with 1 initial structures loaded
           -------------------------------------------------
          |           Optimal kpush determination           |
           -------------------------------------------------
      ----------------------------------------------------------- 
     |                   =====================                   |
     |                        A N C O P T                        |
     |                   =====================                   |
     |               Approximate Normal Coordinate               |
     |                Rational Function Optimizer                |
      ----------------------------------------------------------- 
target rmsd / Å         0.100000
unbiased initial rmsd   0.067389
 
iter. min.        max.        rmsd       kpush
final kpush:  0.000000
           -------------------------------------------------
          |            Biased Numerical Hessian             |
           -------------------------------------------------
kpush                :   0.00000
alpha                :   1.00000
step length          :   0.00500
SCC accuracy         :   0.30000
Hessian scale factor :   1.00000
frozen atoms in %    :   0.00000    0
RMS gradient         :   0.00004
estimated CPU  time      0.05 min
estimated wall time      0.05 min

writing file <hessian>.

 projected vibrational frequencies (cm⁻¹)
eigval :       -0.00    -0.00     0.00     0.00     0.00     0.00
eigval :       60.09    84.20   106.25   127.90   208.98   218.56
eigval :      246.04   251.53   273.31   290.21   304.63   327.28
eigval :      365.49   389.49   393.63   406.14   432.42   463.59
eigval :      512.33   538.78   581.19   611.79   686.00   915.27
eigval :      942.53  1001.84  1014.91  1040.54  1056.22  1067.71
eigval :     1075.74  1099.05  1111.19  1128.29  1141.66  1151.90
eigval :     1163.60  1178.06  1194.52  1225.15  1232.46  1244.97
eigval :     1264.75  1281.14  1286.06  1310.31  1315.86  1319.15
eigval :     1333.07  1338.84  1344.92  1350.36  1354.69  1453.62
eigval :     2746.87  2830.56  2837.03  2873.39  2899.65  2949.00
eigval :     3005.65  3498.79  3502.36  3506.52  3509.47  3509.85
           -------------------------------------------------
          |                Property Printout                |
           -------------------------------------------------

    * Orbital Energies and Occupations

         #    Occupation            Energy/Eh            Energy/eV
      -------------------------------------------------------------
         1        2.0000           -0.7320668             -19.9206
       ...           ...                  ...                  ...
        24        2.0000           -0.5227296             -14.2242
        25        2.0000           -0.5198572             -14.1460
        26        2.0000           -0.5098599             -13.8740
        27        2.0000           -0.5022550             -13.6671
        28        2.0000           -0.5000119             -13.6060
        29        2.0000           -0.4768490             -12.9757
        30        2.0000           -0.4652576             -12.6603
        31        2.0000           -0.4565256             -12.4227
        32        2.0000           -0.4495613             -12.2332
        33        2.0000           -0.4448964             -12.1062
        34        2.0000           -0.4255093             -11.5787
        35        2.0000           -0.4181778             -11.3792
        36        2.0000           -0.4130193             -11.2388 (HOMO)
        37                         -0.0334803              -0.9110 (LUMO)
        38                         -0.0102326              -0.2784
        39                          0.0020153               0.0548
        40                          0.0329584               0.8968
        41                          0.0461500               1.2558
        42                          0.0542802               1.4770
        43                          0.0661654               1.8005
        44                          0.0798034               2.1716
        45                          0.0925557               2.5186
        46                          0.1069904               2.9114
        47                          0.1250209               3.4020
       ...                                ...                  ...
        60                          0.2781091               7.5677
      -------------------------------------------------------------
                  HL-Gap            0.3795390 Eh           10.3278 eV
             Fermi-level           -0.2232498 Eh           -6.0749 eV

     #   Z          covCN         q      C6AA      α(0)
     1   6 C        3.677     0.071    19.605     6.343
     2   6 C        3.754     0.094    19.076     6.228
     3   1 H        0.923     0.036     2.500     2.473
     4   6 C        3.727     0.090    19.188     6.254
     5   1 H        0.922     0.036     2.501     2.473
     6   6 C        3.730     0.081    19.316     6.274
     7   1 H        0.924     0.059     2.216     2.328
     8   6 C        3.726     0.079    19.363     6.283
     9   1 H        0.922     0.029     2.606     2.525
    10   6 C        3.633     0.247    17.120     5.956
    11   1 H        0.921     0.007     2.941     2.682
    12   8 O        1.703    -0.317    19.291     5.930
    13   8 O        1.657    -0.419    21.224     6.219
    14   8 O        1.656    -0.452    21.891     6.316
    15   8 O        1.655    -0.448    21.802     6.303
    16   8 O        1.656    -0.441    21.651     6.281
    17   8 O        1.656    -0.430    21.430     6.249
    18   1 H        0.924     0.075     2.028     2.227
    19   1 H        0.924     0.041     2.431     2.438
    20   1 H        0.805     0.327     0.644     1.260
    21   1 H        0.805     0.316     0.676     1.291
    22   1 H        0.805     0.296     0.734     1.346
    23   1 H        0.805     0.312     0.685     1.300
    24   1 H        0.805     0.309     0.694     1.308

 Mol. C6AA /au·bohr⁶  :       4714.741702
 Mol. C8AA /au·bohr⁸  :     100078.055278
 Mol. α(0) /au        :         98.289294


Wiberg/Mayer (AO) data.
largest (>0.10) Wiberg bond orders for each atom

 ---------------------------------------------------------------------------
     #   Z sym  total        # sym  WBO       # sym  WBO       # sym  WBO
 ---------------------------------------------------------------------------
     1   6 C    3.961 --    17 O    1.019     2 C    0.974    18 H    0.968
                            19 H    0.967
     2   6 C    3.942 --     1 C    0.974    12 O    0.967     4 C    0.966
                             3 H    0.957
     3   1 H    0.999 --     2 C    0.957
     4   6 C    3.962 --    16 O    1.002     2 C    0.966     6 C    0.966
                             5 H    0.952
     5   1 H    0.999 --     4 C    0.952
     6   6 C    3.954 --    15 O    0.989     8 C    0.970     4 C    0.966
                             7 H    0.957
     7   1 H    0.997 --     6 C    0.957
     8   6 C    3.959 --    14 O    0.997     6 C    0.970     9 H    0.954
                            10 C    0.950
     9   1 H    0.999 --     8 C    0.954
    10   6 C    3.941 --    13 O    1.017    12 O    0.978     8 C    0.950
                            11 H    0.942
    11   1 H    1.000 --    10 C    0.942
    12   8 O    2.092 --    10 C    0.978     2 C    0.967
    13   8 O    1.978 --    10 C    1.017    20 H    0.872
    14   8 O    1.953 --     8 C    0.997    21 H    0.879
    15   8 O    1.973 --     6 C    0.989    22 H    0.894
    16   8 O    1.959 --     4 C    1.002    23 H    0.883
    17   8 O    1.969 --     1 C    1.019    24 H    0.886
    18   1 H    0.994 --     1 C    0.968
    19   1 H    0.998 --     1 C    0.967
    20   1 H    0.892 --    13 O    0.872
    21   1 H    0.900 --    14 O    0.879
    22   1 H    0.913 --    15 O    0.894
    23   1 H    0.903 --    16 O    0.883
    24   1 H    0.904 --    17 O    0.886
 ---------------------------------------------------------------------------

Topologies differ in total number of bonds
Writing topology from bond orders to xtbtopo.mol

molecular dipole:
                 x           y           z       tot (Debye)
 q only:        0.473       0.759      -0.168
   full:        0.864       1.127      -0.243       3.661
molecular quadrupole (traceless):
                xx          xy          yy          xz          yz          zz
 q only:       -1.774       1.437      -1.123      -3.793      -3.078       2.896
  q+dip:       -6.202       3.174      -1.651      -4.093      -5.637       7.852
   full:       -5.355       2.884      -1.153      -4.576      -5.282       6.508

           -------------------------------------------------
          |                Geometry Summary                 |
           -------------------------------------------------

      molecular mass/u    :      180.1561339
   center of mass at/Å    :        0.0000107      -0.0000329       0.0000620
  moments of inertia/u·Å² :        0.4362440E+03   0.6106708E+03   0.9350412E+03
rotational constants/cm⁻¹ :        0.3864267E-01   0.2760510E-01   0.1802876E-01

 * 24 selected distances

     #   Z          #   Z                                           value/Å
     1   6 C        2   6 C                                       1.5361621
     2   6 C        3   1 H                                       1.1002631
     2   6 C        4   6 C                                       1.5377893
     4   6 C        5   1 H                                       1.1047107
     4   6 C        6   6 C                                       1.5345508
     6   6 C        7   1 H                                       1.0968818
     6   6 C        8   6 C                                       1.5287602
     8   6 C        9   1 H                                       1.1048864
     8   6 C       10   6 C                                       1.5400473 (max)
    10   6 C       11   1 H                                       1.1119340
     2   6 C       12   8 O                                       1.4139598
    10   6 C       12   8 O                                       1.3959229
    10   6 C       13   8 O                                       1.3836234
     8   6 C       14   8 O                                       1.4062630
     6   6 C       15   8 O                                       1.4121992
     4   6 C       16   8 O                                       1.4041244
     1   6 C       17   8 O                                       1.3993735
     1   6 C       18   1 H                                       1.0907509
     1   6 C       19   1 H                                       1.0976682
    13   8 O       20   1 H                                       0.9661200 (min)
    14   8 O       21   1 H                                       0.9663547
    15   8 O       22   1 H                                       0.9661870
    16   8 O       23   1 H                                       0.9663205
    17   8 O       24   1 H                                       0.9664355

 * 4 distinct bonds (by element types)

   Z      Z             #   av. dist./Å        max./Å        min./Å
   1 H    6 C           7     1.1010136     1.1119340     1.0907509
   6 C    6 C           5     1.5354619     1.5400473     1.5287602
   1 H    8 O           5     0.9662835     0.9664355     0.9661200
   6 C    8 O           7     1.4022094     1.4139598     1.3836234

           -------------------------------------------------
          |               Frequency Printout                |
           -------------------------------------------------
 projected vibrational frequencies (cm⁻¹)
eigval :       -0.00    -0.00     0.00     0.00     0.00     0.00
eigval :       60.09    84.20   106.25   127.90   208.98   218.56
eigval :      246.04   251.53   273.31   290.21   304.63   327.28
eigval :      365.49   389.49   393.63   406.14   432.42   463.59
eigval :      512.33   538.78   581.19   611.79   686.00   915.27
eigval :      942.53  1001.84  1014.91  1040.54  1056.22  1067.71
eigval :     1075.74  1099.05  1111.19  1128.29  1141.66  1151.90
eigval :     1163.60  1178.06  1194.52  1225.15  1232.46  1244.97
eigval :     1264.75  1281.14  1286.06  1310.31  1315.86  1319.15
eigval :     1333.07  1338.84  1344.92  1350.36  1354.69  1453.62
eigval :     2746.87  2830.56  2837.03  2873.39  2899.65  2949.00
eigval :     3005.65  3498.79  3502.36  3506.52  3509.47  3509.85
 reduced masses (amu)
   1: 13.71   2: 13.41   3: 13.49   4: 13.55   5: 13.88   6: 13.29   7: 14.18   8: 13.95
   9: 14.21  10: 14.31  11: 12.47  12: 11.25  13: 10.93  14: 11.95  15:  9.02  16: 11.38
  17:  5.59  18:  4.09  19:  4.09  20:  4.83  21:  9.90  22: 12.93  23:  8.93  24:  6.37
  25: 11.88  26: 10.81  27: 10.97  28: 12.85  29: 10.85  30:  6.18  31:  9.97  32: 10.26
  33:  9.74  34:  9.68  35: 11.12  36:  7.64  37:  8.93  38: 10.79  39: 10.95  40: 10.09
  41: 11.14  42:  9.22  43:  6.26  44:  4.47  45:  5.62  46:  3.24  47:  2.84  48:  3.99
  49:  5.05  50:  3.94  51:  3.69  52:  3.06  53:  3.11  54:  4.64  55:  4.04  56:  3.95
  57:  4.72  58:  4.64  59:  5.24  60:  1.80  61:  1.66  62:  1.71  63:  1.71  64:  1.73
  65:  1.73  66:  1.75  67:  1.72  68:  1.88  69:  1.87  70:  1.87  71:  1.87  72:  1.87
 IR intensities (km·mol⁻¹)
   1:  0.01   2:  0.21   3:  0.13   4:  0.22   5:  0.47   6:  0.69   7:  5.16   8:  3.74
   9:  0.91  10:  2.24  11: 13.61  12: 10.77  13:  3.58  14:  6.39  15:  4.36  16: 12.72
  17: 34.82  18: 36.64  19:300.00  20:190.60  21: 37.80  22:  5.53  23: 51.74  24:180.18
  25: 27.31  26:  4.45  27: 11.81  28: 17.43  29: 11.76  30:  9.78  31: 15.34  32: 37.17
  33: 51.40  34:  9.24  35:117.12  36: 51.31  37: 74.15  38: 85.81  39:149.42  40: 45.75
  41: 75.71  42: 80.45  43: 47.95  44: 30.43  45: 37.05  46: 34.73  47: 65.16  48: 78.59
  49: 39.93  50: 71.20  51: 73.08  52: 21.74  53:  7.07  54: 25.88  55: 31.50  56: 83.14
  57: 60.52  58: 27.43  59: 20.39  60:  2.00  61: 85.85  62:  2.70  63:101.77  64: 56.27
  65: 63.81  66: 35.04  67:  9.92  68: 31.89  69: 23.72  70: 17.36  71: 47.06  72: 23.17
 Raman intensities (Ä⁴*amu⁻¹)
   1:  0.00   2:  0.00   3:  0.00   4:  0.00   5:  0.00   6:  0.00   7:  0.00   8:  0.00
   9:  0.00  10:  0.00  11:  0.00  12:  0.00  13:  0.00  14:  0.00  15:  0.00  16:  0.00
  17:  0.00  18:  0.00  19:  0.00  20:  0.00  21:  0.00  22:  0.00  23:  0.00  24:  0.00
  25:  0.00  26:  0.00  27:  0.00  28:  0.00  29:  0.00  30:  0.00  31:  0.00  32:  0.00
  33:  0.00  34:  0.00  35:  0.00  36:  0.00  37:  0.00  38:  0.00  39:  0.00  40:  0.00
  41:  0.00  42:  0.00  43:  0.00  44:  0.00  45:  0.00  46:  0.00  47:  0.00  48:  0.00
  49:  0.00  50:  0.00  51:  0.00  52:  0.00  53:  0.00  54:  0.00  55:  0.00  56:  0.00
  57:  0.00  58:  0.00  59:  0.00  60:  0.00  61:  0.00  62:  0.00  63:  0.00  64:  0.00
  65:  0.00  66:  0.00  67:  0.00  68:  0.00  69:  0.00  70:  0.00  71:  0.00  72:  0.00
 output can be read by thermo (or use thermo option).
 writing <g98.out> molden fake output.
 recommended (thermochemical) frequency scaling factor: 1.0
           -------------------------------------------------
          |             Thermodynamic Functions             |
           -------------------------------------------------

Molecule has no symmetry elements
It seems to be the C1 point group
c1  symmetry found (for desy threshold:  0.10E+00) used in thermo

          ...................................................
          :                      SETUP                      :
          :.................................................:
          :  # frequencies                          66      :
          :  # imaginary freq.                       0      :
          :  linear?                             false      :
          :  only rotor calc.                    false      :
          :  symmetry                               c1      :
          :  rotational number                       1      :
          :  scaling factor                  1.0000000      :
          :  rotor cutoff                    0.0000000 cm⁻¹ :
          :  imag. cutoff                 -100.0000000 cm⁻¹ :
          :.................................................:

    mode    ω/cm⁻¹     T·S(HO)/kcal·mol⁻¹    T·S(FR)/kcal·mol⁻¹   T·S(vib)
   ------------------------------------------------------------------------
       1     60.09    -1.32799 (100.00%)    -1.00195 (  0.00%)    -1.32799
       2     84.20    -1.13016 (100.00%)    -0.90208 (  0.00%)    -1.13016
       3    106.25    -0.99472 (100.00%)    -0.83318 (  0.00%)    -0.99472
       4    127.90    -0.88770 (100.00%)    -0.77825 (  0.00%)    -0.88770
       5    208.98    -0.61197 (100.00%)    -0.63282 (  0.00%)    -0.61197
       6    218.56    -0.58764 (100.00%)    -0.61954 (  0.00%)    -0.58764
       7    246.04    -0.52438 (100.00%)    -0.58447 (  0.00%)    -0.52438
       8    251.53    -0.51278 (100.00%)    -0.57793 (  0.00%)    -0.51278
       9    273.31    -0.46964 (100.00%)    -0.55333 (  0.00%)    -0.46964
      10    290.21    -0.43909 (100.00%)    -0.53556 (  0.00%)    -0.43909
   ------------------------------------------------------------------------

   temp. (K)  partition function   enthalpy   heat capacity  entropy
                                   cal/mol     cal/K/mol   cal/K/mol   J/K/mol
 298.15  VIB  0.365E+04             6285.115     42.760     37.383
         ROT  0.121E+07              888.752      2.981     30.808
         INT  0.441E+10             7173.868     45.741     68.191
         TR   0.234E+28             1481.254      4.968     41.454
         TOT                        8655.1217    50.7093   109.6447   458.7533

       T/K    H(0)-H(T)+PV         H(T)/Eh          T*S/Eh         G(T)/Eh
   ------------------------------------------------------------------------
    298.15    0.137928E-01    0.201713E+00    0.520957E-01    0.149617E+00
   ------------------------------------------------------------------------

         :::::::::::::::::::::::::::::::::::::::::::::::::::::
         ::                  THERMODYNAMIC                  ::
         :::::::::::::::::::::::::::::::::::::::::::::::::::::
         :: total free energy         -43.206937224522 Eh   ::
         ::.................................................::
         :: total energy              -43.356554350407 Eh   ::
         :: zero point energy           0.187920033218 Eh   ::
         :: G(RRHO) w/o ZPVE           -0.038302907333 Eh   ::
         :: G(RRHO) contrib.            0.149617125885 Eh   ::
         :::::::::::::::::::::::::::::::::::::::::::::::::::::

optimized geometry written to: xtbopt.coord


           -------------------------------------------------
          | TOTAL ENERGY              -43.356554350407 Eh   |
          | TOTAL ENTHALPY            -43.154841502836 Eh   |
          | TOTAL FREE ENERGY         -43.206937224522 Eh   |
          | GRADIENT NORM               0.000044867028 Eh/α |
          | HOMO-LUMO GAP              10.327781909391 eV   |
           -------------------------------------------------

------------------------------------------------------------------------
 * finished run on 2025/04/16 at 11:25:01.951     
------------------------------------------------------------------------
 total:
 * wall-time:     0 d,  0 h,  0 min,  3.667 sec
 *  cpu-time:     0 d,  0 h,  0 min,  3.427 sec
 * ratio c/w:     0.935 speedup
 SCF:
 * wall-time:     0 d,  0 h,  0 min,  0.041 sec
 *  cpu-time:     0 d,  0 h,  0 min,  0.031 sec
 * ratio c/w:     0.746 speedup
 analytical hessian:
 * wall-time:     0 d,  0 h,  0 min,  3.050 sec
 *  cpu-time:     0 d,  0 h,  0 min,  3.048 sec
 * ratio c/w:     0.999 speedup

