
                                 *****************
                                 * O   R   C   A *
                                 *****************

                                            #,                                       
                                            ###                                      
                                            ####                                     
                                            #####                                    
                                            ######                                   
                                           ########,                                 
                                     ,,################,,,,,                         
                               ,,#################################,,                 
                          ,,##########################################,,             
                       ,#########################################, ''#####,          
                    ,#############################################,,   '####,        
                  ,##################################################,,,,####,       
                ,###########''''           ''''###############################       
              ,#####''   ,,,,##########,,,,          '''####'''          '####       
            ,##' ,,,,###########################,,,                        '##       
           ' ,,###''''                  '''############,,,                           
         ,,##''                                '''############,,,,        ,,,,,,###''
      ,#''                                            '''#######################'''  
     '                                                          ''''####''''         
             ,#######,   #######,   ,#######,      ##                                
            ,#'     '#,  ##    ##  ,#'     '#,    #''#        ,####,   ,####,        
            ##       ##  ##   ,#'  ##            #'  '#       #'       #'  '#        
            ##       ##  #######   ##           ,######,      #####,   #    #        
            '#,     ,#'  ##    ##  '#,     ,#' ,#      #,     #,   #   #,  ,#        
             '#######'   ##     ##  '#######'  #'      '#     '####' # '####'        



                #########################################################
                #                        -***-                          #
                #          Department of theory and spectroscopy        #
                #                                                       #
                #                      Frank Neese                      #
                #                                                       #
                #     Directorship, Architecture, Infrastructure        #
                #                    SHARK, DRIVERS                     #
                #        Core code/Algorithms in most modules           #
                #                                                       #
                #        Max Planck Institute fuer Kohlenforschung      #
                #                Kaiser Wilhelm Platz 1                 #
                #                 D-45470 Muelheim/Ruhr                 #
                #                      Germany                          #
                #                                                       #
                #                  All rights reserved                  #
                #                        -***-                          #
                #########################################################


                         Program Version 6.0.1  -  RELEASE   -


 With contributions from (in alphabetic order):
[Max-Planck-Institut fuer Kohlenforschung]                               
  Daniel Aravena         : Magnetic Suceptibility                        
  Michael Atanasov       : Ab Initio Ligand Field Theory (pilot matlab implementation)
  Alexander A. Auer      : GIAO ZORA, VPT2 properties, NMR spectrum      
  Ute Becker             : All parallelization in ORCA, NUMFREQ, NUMCALC 
  Giovanni Bistoni       : ED, misc. LED, open-shell LED, HFLD           
  Martin Brehm           : Molecular dynamics                            
  Dmytro Bykov           : pre 5.0 version of the SCF Hessian            
  Marcos Casanova-Páez   : Triplet and SCS-CIS(D). UHF-(DLPNO)-IP/EA/STEOM-CCSD. UHF-CVS-IP/STEOM-CCSD   
  Vijay G. Chilkuri      : MRCI spin determinant printing, contributions to CSF-ICE 
  Pauline Colinet        : FMM embedding                                 
  Dipayan Datta          : RHF DLPNO-CCSD density                        
  Achintya Kumar Dutta   : EOM-CC, STEOM-CC                              
  Nicolas Foglia         : Exact transition moments, OPA infrastructure, MCD improvements    
  Dmitry Ganyushin       : Spin-Orbit,Spin-Spin,Magnetic field MRCI      
  Miquel Garcia-Rates    : C-PCM and meta-GGA Hessian, CCSD/C-PCM, Gaussian charge scheme 
  Tiago L. C. Gouveia    : GS-ROHF, GS-ROCIS                             
  Yang Guo               : DLPNO-NEVPT2, F12-NEVPT2, CIM, IAO-localization        
  Andreas Hansen         : Spin unrestricted coupled pair/coupled cluster methods 
  Ingolf Harden          : AUTO-CI MPn and infrastructure                
  Benjamin Helmich-Paris : MC-RPA, TRAH-(SCF,CASSCF), AVAS, COSX integrals, SCF dyn. polar. 
  Lee Huntington         : MR-EOM, pCC                                   
  Robert Izsak           : Overlap fitted RIJCOSX, COSX-SCS-MP3, EOM     
  Riya Kayal             : Wick's Theorem for AUTO-CI, AUTO-CI UHF-CCSDT 
  Emily Kempfer          : AUTO-CI, RHF CISDT and CCSDT                  
  Christian Kollmar      : KDIIS, OOCD, Brueckner-CCSD(T), CCSD density, CASPT2, CASPT2-K, improved NEVPT2 
  Axel Koslowski         : Symmetry handling                             
  Simone Kossmann        : meta-GGA functionals, TD-DFT gradient, OOMP2, (MP2 Hessian; deprecated post 5.0) 
  Lucas Lang             : DCDCAS                                        
  Marvin Lechner         : AUTO-CI (C++ implementation), FIC-MRCC        
  Spencer Leger          : CASSCF response                               
  Dagmar Lenk            : GEPOL surface, SMD, ORCA-2-JSON               
  Dimitrios Liakos       : Extrapolation schemes; Compound Job, initial MDCI parallelization 
  Dimitrios Manganas     : Further ROCIS development; embedding schemes. LFT, Crystal Embedding 
  Dimitrios Pantazis     : SARC Basis sets                               
  Anastasios Papadopoulos: AUTO-CI, single reference methods and gradients 
  Taras Petrenko         : pre 6.0 DFT Hessian and TD-DFT gradient, (ASA, deprecated), ECA, 1-Electron XAS/XES, NRVS 
  Peter Pinski           : DLPNO-MP2, DLPNO-MP2 Gradient                 
  Christoph Reimann      : Effective Core Potentials                     
  Marius Retegan         : Local ZFS, SOC                                
  Christoph Riplinger    : Optimizer, TS searches, QM/MM, DLPNO-CCSD(T), (RO)-DLPNO pert. Triples 
  Michael Roemelt        : Original ROCIS implementation                 
  Masaaki Saitow         : Open-shell DLPNO-CCSD energy and density      
  Barbara Sandhoefer     : DKH picture change effects                    
  Kantharuban Sivalingam : CASSCF convergence/infrastructure, NEVPT2 and variants, FIC-MRCI 
  Bernardo de Souza      : ESD, SOC TD-DFT                               
  Georgi L. Stoychev     : AutoAux, RI-MP2 NMR, DLPNO-MP2 response, X2C  
  Van Anh Tran           : RI-MP2 g-tensors                              
  Willem Van den Heuvel  : Paramagnetic NMR                              
  Zikuan Wang            : NOTCH, Electric field optimization            
  Frank Wennmohs         : Technical directorship and infrastructure     
  Hang Xu                : AUTO-CI-Response properties                   
                                                                         
[FACCTs GmbH]                                                            
  Markus Bursch, Miquel Garcia-Rates, Christoph Riplinger, Bernardo de Souza, Georgi L. Stoychev 
                                                                 
  APM, Basis sets (HGBS, AHGBS, def-TZVP (Ac-Lr), def2-XVPD (La-Lu)), CI-OPT, improved COSX, DLPNO-Multilevel,           
  DOCKER, DRACO, updates on ESD, GOAT, IRC, LR-CPCM, MBIS, meta-GGA TD-DFT gradient, ML-optimized integration grids, 
  MM, NACMEs, nearIR, NEB, NEB-TS, NL-DFT gradient (VV10), 2- and 3-layer-ONIOM, interface openCOSMO-RS, QMMM,   
  Crystal-QMMM, SF, symmetry and pop. for TD-DFT, r2SCAN hybrids, SOLVATOR                                   
                                                                         
[Other institutions]                                                     
  V. Asgeirsson          : NEB                                           
  Christoph Bannwarth    : sTDA-DFT, sTD-DFT, PBEh-3c, B97-3c, D3        
  Sebastian Ehlert       : rSCAN, r2SCAN, r2SCAN-3c, D4, dhf basis sets  
  Marvin Friede          : D4 for Fr, Ra, Ac-Lr                          
  Lars Goerigk           : TD-DFT with DH, B97 family of functionals     
  Stefan Grimme          : VdW corrections, initial TS optimization, DFT functionals, gCP, sTDA/sTD-DF 
  Waldemar Hujo          : DFT-NL                                        
  H. Jonsson             : NEB                                           
  Holger Kruse           : gCP                                           
  Marcel Mueller         : wB97X-3c, vDZP basis set                      
  Hagen Neugebauer       : wr2SCAN                                       
  Tobias Risthaus        : range-separated hybrid DFT                    
  Lukas Wittmann         : regularized MP2, r2SCAN double-hybrids, wr2SCAN        
                                                                         
We gratefully acknowledge several colleagues who have allowed us to      
interface, adapt or use parts of their codes:                            
  Ed Valeev, F. Pavosevic, A. Kumar             : LibInt (2-el integral package), F12 methods 
  Garnet Chan, S. Sharma, J. Yang, R. Olivares  : DMRG                   
  Ulf Ekstrom                                   : XCFun DFT Library      
  Mihaly Kallay                                 : mrcc  (arbitrary order and MRCC methods)
  Frank Weinhold                                : gennbo (NPA and NBO analysis)           
  Simon Mueller                                 : openCOSMO-RS                            
  Christopher J. Cramer and Donald G. Truhlar   : smd solvation model                     
  S Lehtola, MJT Oliveira, MAL Marques          : LibXC Library                           
  Liviu Ungur et al                             : ANISO software                          


 Your calculation uses the libint2 library for the computation of 2-el integrals
 For citations please refer to: http://libint.valeyev.net

 Your ORCA version has been built with support for libXC version: 6.2.2
 For citations please refer to: https://libxc.gitlab.io

 This ORCA versions uses:
   CBLAS   interface :  Fast vector & matrix operations
   LAPACKE interface :  Fast linear algebra routines
   SCALAPACK package :  Parallel linear algebra routines
   Shared memory     :  Shared parallel matrices
   BLAS/LAPACK       :  OpenBLAS 0.3.27  USE64BITINT DYNAMIC_ARCH NO_AFFINITY Zen SINGLE_THREADED
        Core in use  :  Zen
   Copyright (c) 2011-2014, The OpenBLAS Project


Your calculation utilizes the geometrical counterpoise correction gCP
Please cite in your paper:
H.Kruse, S. Grimme J.Chem.Phys., 136, (2012), 154101 
   

Your calculation utilizes the atom-pairwise dispersion correction
based on EEQ partial charges (D4)


================================================================================

----- Orbital basis set information -----
Your calculation utilizes the basis: def2-mTZVPP
   Stefan Grimme, Andreas Hansen, Sebastian Ehlert, and Jan-Michael Mewes 
   J. Chem. Phys. 154, 064103 (2021). DOI: 10.1063/5.0040021

----- AuxJ basis set information -----
Your calculation utilizes the auxiliary basis: def2/J
   F. Weigend, Phys. Chem. Chem. Phys. 8, 1057 (2006).

================================================================================
                                        WARNINGS
                       Please study these warnings very carefully!
================================================================================



WARNING: SCAN, rSCAN, or r2SCAN functional requested.
  ===> : libXC variant has now been activated.



================================================================================
                                       INPUT FILE
================================================================================
NAME = sp.inp
|  1> ! r2scan-3c def2/J RI DEFGRID2 scfconv6 printgap
|  2> %output
|  3>     printlevel normal
|  4> end
|  5> * xyz 0 1
|  6> C -2.5574549184 -0.8842712532 0.2673503523
|  7> C -1.1353112715 -0.4347879259 0.6297354861
|  8> H -1.0366262437 -0.3693536132 1.722926001
|  9> C -0.8340164126 0.9478665599 0.0346146935
| 10> H -1.0681182944 0.9335112786 -1.0414494104
| 11> C 0.6514018121 1.2937870434 0.20400858
| 12> H 0.8688494245 1.418354047 1.2782356866
| 13> C 1.5172571866 0.1529094068 -0.330033823
| 14> H 1.3478185246 0.0479833618 -1.4158846905
| 15> C 1.0981770786 -1.1575510928 0.3626266224
| 16> H 1.2964828196 -1.0698747852 1.4445687907
| 17> O -0.2552224504 -1.4239092653 0.1186129876
| 18> O 1.8561266393 -2.2265176666 -0.0923793145
| 19> O 2.8684418277 0.4462552971 -0.0744163098
| 20> O 0.8954015615 2.5000127491 -0.4765299129
| 21> O -1.6378818722 1.8839270418 0.7010587883
| 22> O -2.6969516697 -1.1060860988 -1.1077547599
| 23> H -3.2552539683 -0.0910562955 0.5371507513
| 24> H -2.7946929792 -1.7946289621 0.8343741077
| 25> H 1.4657752327 -2.5428000556 -0.9167042887
| 26> H 3.3634907014 -0.3829135008 -0.1033543247
| 27> H 1.8512108255 2.6287510282 -0.5016801721
| 28> H -1.3664111699 2.7579831141 0.3932267385
| 29> H -2.0067732267 -1.7278387859 -1.3687211877
| 30> *
| 31> 
| 32>                          ****END OF INPUT****
================================================================================

                       ****************************
                       * Single Point Calculation *
                       ****************************

---------------------------------
CARTESIAN COORDINATES (ANGSTROEM)
---------------------------------
  C     -2.557455   -0.884271    0.267350
  C     -1.135311   -0.434788    0.629735
  H     -1.036626   -0.369354    1.722926
  C     -0.834016    0.947867    0.034615
  H     -1.068118    0.933511   -1.041449
  C      0.651402    1.293787    0.204009
  H      0.868849    1.418354    1.278236
  C      1.517257    0.152909   -0.330034
  H      1.347819    0.047983   -1.415885
  C      1.098177   -1.157551    0.362627
  H      1.296483   -1.069875    1.444569
  O     -0.255222   -1.423909    0.118613
  O      1.856127   -2.226518   -0.092379
  O      2.868442    0.446255   -0.074416
  O      0.895402    2.500013   -0.476530
  O     -1.637882    1.883927    0.701059
  O     -2.696952   -1.106086   -1.107755
  H     -3.255254   -0.091056    0.537151
  H     -2.794693   -1.794629    0.834374
  H      1.465775   -2.542800   -0.916704
  H      3.363491   -0.382914   -0.103354
  H      1.851211    2.628751   -0.501680
  H     -1.366411    2.757983    0.393227
  H     -2.006773   -1.727839   -1.368721

----------------------------
CARTESIAN COORDINATES (A.U.)
----------------------------
  NO LB      ZA    FRAG     MASS         X           Y           Z
   0 C     6.0000    0    12.011   -4.832889   -1.671030    0.505219
   1 C     6.0000    0    12.011   -2.145427   -0.821630    1.190028
   2 H     1.0000    0     1.008   -1.958940   -0.697977    3.255858
   3 C     6.0000    0    12.011   -1.576063    1.791208    0.065412
   4 H     1.0000    0     1.008   -2.018451    1.764081   -1.968054
   5 C     6.0000    0    12.011    1.230971    2.444903    0.385520
   6 H     1.0000    0     1.008    1.641887    2.680301    2.415515
   7 C     6.0000    0    12.011    2.867201    0.288957   -0.623674
   8 H     1.0000    0     1.008    2.547008    0.090675   -2.675634
   9 C     6.0000    0    12.011    2.075254   -2.187455    0.685265
  10 H     1.0000    0     1.008    2.449997   -2.021770    2.729839
  11 O     8.0000    0    15.999   -0.482301   -2.690799    0.224146
  12 O     8.0000    0    15.999    3.507571   -4.207509   -0.174572
  13 O     8.0000    0    15.999    5.420569    0.843300   -0.140626
  14 O     8.0000    0    15.999    1.692064    4.724339   -0.900511
  15 O     8.0000    0    15.999   -3.095148    3.560106    1.324809
  16 O     8.0000    0    15.999   -5.096500   -2.090200   -2.093353
  17 H     1.0000    0     1.008   -6.151538   -0.172071    1.015068
  18 H     1.0000    0     1.008   -5.281204   -3.391357    1.576739
  19 H     1.0000    0     1.008    2.769914   -4.805196   -1.732320
  20 H     1.0000    0     1.008    6.356076   -0.723602   -0.195311
  21 H     1.0000    0     1.008    3.498281    4.967620   -0.948038
  22 H     1.0000    0     1.008   -2.582143    5.211833    0.743091
  23 H     1.0000    0     1.008   -3.792252   -3.265142   -2.586508

--------------------------------
INTERNAL COORDINATES (ANGSTROEM)
--------------------------------
 C      0   0   0     0.000000000000     0.00000000     0.00000000
 C      1   0   0     1.534878105629     0.00000000     0.00000000
 H      2   1   0     1.099584415067   109.59138344     0.00000000
 C      2   1   3     1.535148454348   110.73694552   240.57005618
 H      4   2   1     1.101328162205   108.98448967   308.17945423
 C      4   2   1     1.534543115054   110.50067507   189.09979082
 H      6   4   2     1.103070387182   108.89143072   293.29872778
 C      6   4   2     1.528564228106   109.96834566    51.73395593
 H      8   6   4     1.103988696296   109.12525532    63.91557013
 C      8   6   4     1.540361435039   108.89036260   305.47344522
 H     10   8   6     1.103454193600   108.93021182   296.91344883
 O     10   8   6     1.400778217679   110.26125598    59.03916321
 O     10   8   6     1.387158056993   111.06603603   179.87511533
 O      8   6   4     1.406091056353   108.97193060   184.35305201
 O      6   4   2     1.406289078077   107.93185900   174.04522698
 O      4   2   1     1.402339700075   107.72544399    68.17017719
 O      1   2   3     1.399848291405   111.75648105   185.68315632
 H      1   2   3     1.090369542156   108.75382800    67.62015689
 H      1   2   3     1.098430241223   108.71997343   308.22754781
 H     13  10   8     0.965360260895   108.15728154   276.94693914
 H     14   8   6     0.966142686910   107.93248556   159.21295925
 H     15   6   4     0.964768070156   107.39552671   189.98610552
 H     16   4   2     0.965624632358   106.95046007   173.48062473
 H     17   1   2     0.964896970426   107.24782843    54.10138453

---------------------------
INTERNAL COORDINATES (A.U.)
---------------------------
 C      0   0   0     0.000000000000     0.00000000     0.00000000
 C      1   0   0     2.900499268590     0.00000000     0.00000000
 H      2   1   0     2.077913405604   109.59138344     0.00000000
 C      2   1   3     2.901010153630   110.73694552   240.57005618
 H      4   2   1     2.081208610142   108.98448967   308.17945423
 C      4   2   1     2.899866228146   110.50067507   189.09979082
 H      6   4   2     2.084500938213   108.89143072   293.29872778
 C      6   4   2     2.888567769230   109.96834566    51.73395593
 H      8   6   4     2.086236290945   109.12525532    63.91557013
 C      8   6   4     2.910861259477   108.89036260   305.47344522
 H     10   8   6     2.085226227231   108.93021182   296.91344883
 O     10   8   6     2.647087205775   110.26125598    59.03916321
 O     10   8   6     2.621348832180   111.06603603   179.87511533
 O      8   6   4     2.657127015863   108.97193060   184.35305201
 O      6   4   2     2.657501222689   107.93185900   174.04522698
 O      4   2   1     2.650037979867   107.72544399    68.17017719
 O      1   2   3     2.645329899794   111.75648105   185.68315632
 H      1   2   3     2.060499819443   108.75382800    67.62015689
 H      1   2   3     2.075732333129   108.71997343   308.22754781
 H     13  10   8     1.824266513663   108.15728154   276.94693914
 H     14   8   6     1.825745084550   107.93248556   159.21295925
 H     15   6   4     1.823147435346   107.39552671   189.98610552
 H     16   4   2     1.824766103324   106.95046007   173.48062473
 H     17   1   2     1.823391021555   107.24782843    54.10138453

---------------------
BASIS SET INFORMATION
---------------------
There are 3 groups of distinct atoms

 Group   1 Type C   : 11s6p1d contracted to 5s3p1d pattern {62111/411/1}
 Group   2 Type H   : 4s1p contracted to 2s1p pattern {31/1}
 Group   3 Type O   : 11s6p2d contracted to 5s3p2d pattern {62111/411/11}

Atom   0C    basis set group =>   1
Atom   1C    basis set group =>   1
Atom   2H    basis set group =>   2
Atom   3C    basis set group =>   1
Atom   4H    basis set group =>   2
Atom   5C    basis set group =>   1
Atom   6H    basis set group =>   2
Atom   7C    basis set group =>   1
Atom   8H    basis set group =>   2
Atom   9C    basis set group =>   1
Atom  10H    basis set group =>   2
Atom  11O    basis set group =>   3
Atom  12O    basis set group =>   3
Atom  13O    basis set group =>   3
Atom  14O    basis set group =>   3
Atom  15O    basis set group =>   3
Atom  16O    basis set group =>   3
Atom  17H    basis set group =>   2
Atom  18H    basis set group =>   2
Atom  19H    basis set group =>   2
Atom  20H    basis set group =>   2
Atom  21H    basis set group =>   2
Atom  22H    basis set group =>   2
Atom  23H    basis set group =>   2
---------------------------------
AUXILIARY/J BASIS SET INFORMATION
---------------------------------
There are 3 groups of distinct atoms

 Group   1 Type C   : 12s5p4d2f1g contracted to 6s4p3d1f1g pattern {711111/2111/211/2/1}
 Group   2 Type H   : 5s2p1d contracted to 3s1p1d pattern {311/2/1}
 Group   3 Type O   : 12s5p4d2f1g contracted to 6s4p3d1f1g pattern {711111/2111/211/2/1}

Atom   0C    basis set group =>   1
Atom   1C    basis set group =>   1
Atom   2H    basis set group =>   2
Atom   3C    basis set group =>   1
Atom   4H    basis set group =>   2
Atom   5C    basis set group =>   1
Atom   6H    basis set group =>   2
Atom   7C    basis set group =>   1
Atom   8H    basis set group =>   2
Atom   9C    basis set group =>   1
Atom  10H    basis set group =>   2
Atom  11O    basis set group =>   3
Atom  12O    basis set group =>   3
Atom  13O    basis set group =>   3
Atom  14O    basis set group =>   3
Atom  15O    basis set group =>   3
Atom  16O    basis set group =>   3
Atom  17H    basis set group =>   2
Atom  18H    basis set group =>   2
Atom  19H    basis set group =>   2
Atom  20H    basis set group =>   2
Atom  21H    basis set group =>   2
Atom  22H    basis set group =>   2
Atom  23H    basis set group =>   2

Checking for AutoStart:
The File: sp.gbw exists
Trying to determine its content:
     ... Fine, the file contains calculation information
     ... Fine, the calculation information was read
     ... Fine, the file contains a basis set
     ... Fine, the basis set was read
     ... Fine, the file contains a geometry
     ... Fine, the geometry was read
     ... Fine, the file contains a set of orbitals
     ... Fine, the orbitals can be read
     => possible old guess file was deleted
     => GBW file was renamed to GES file
     => GES file is set as startup file
     => Guess is set to MORead
     ... now leaving AutoStart

------------------------------------------------------------------------------
                             ORCA STARTUP CALCULATIONS
                           -- RI-GTO INTEGRALS CHOSEN --
------------------------------------------------------------------------------
------------------------------------------------------------------------------
                   ___                                                        
                  /   \      - P O W E R E D   B Y -                         
                 /     \                                                     
                 |  |  |   _    _      __       _____    __    __             
                 |  |  |  | |  | |    /  \     |  _  \  |  |  /  |          
                  \  \/   | |  | |   /    \    | | | |  |  | /  /          
                 / \  \   | |__| |  /  /\  \   | |_| |  |  |/  /          
                |  |  |   |  __  | /  /__\  \  |    /   |      \           
                |  |  |   | |  | | |   __   |  |    \   |  |\   \          
                \     /   | |  | | |  |  |  |  | |\  \  |  | \   \       
                 \___/    |_|  |_| |__|  |__|  |_| \__\ |__|  \__/        
                                                                              
                      - O R C A' S   B I G   F R I E N D -                    
                                      &                                       
                       - I N T E G R A L  F E E D E R -                       
                                                                              
 v1 FN, 2020, v2 2021, v3 2022-2024                                           
------------------------------------------------------------------------------


----------------------
SHARK INTEGRAL PACKAGE
----------------------

Number of atoms                             ...     24
Number of basis functions                   ...    318
Number of shells                            ...    150
Maximum angular momentum                    ...      2
Integral batch strategy                     ... SHARK/LIBINT Hybrid
RI-J (if used) integral strategy            ... SPLIT-RIJ (Revised 2003 algorithm where possible)
Printlevel                                  ...      1
Contraction scheme used                     ... SEGMENTED contraction
Prescreening option                         ... SCHWARTZ
   Thresh                                   ... 1.000e-10
   Tcut                                     ... 1.000e-11
   Tpresel                                  ... 1.000e-11 
Coulomb Range Separation                    ... NOT USED
Exchange Range Separation                   ... NOT USED
Multipole approximations                    ... NOT USED
Finite Nucleus Model                        ... NOT USED
CABS basis                                  ... NOT available
Auxiliary Coulomb fitting basis             ... AVAILABLE
   # of basis functions in Aux-J            ...    720
   # of shells in Aux-J                     ...    240
   Maximum angular momentum in Aux-J        ...      4
Auxiliary J/K fitting basis                 ... NOT available
Auxiliary Correlation fitting basis         ... NOT available
Auxiliary 'external' fitting basis          ... NOT available

Checking pre-screening integrals            ... done (  0.0 sec) Dimension = 150
Check shell pair data                       ... done (  0.0 sec)
Shell pair information
Shell pair cut-off parameter TPreSel        ...   1.0e-11
Total number of shell pairs                 ...     11325
Shell pairs after pre-screening             ...      9698
Total number of primitive shell pairs       ...     40203
Primitive shell pairs kept                  ...     23553
          la=0 lb=0:   2931 shell pairs
          la=1 lb=0:   3469 shell pairs
          la=1 lb=1:   1044 shell pairs
          la=2 lb=0:   1322 shell pairs
          la=2 lb=1:    773 shell pairs
          la=2 lb=2:    159 shell pairs

Calculating one electron integrals          ... done (  0.0 sec)
Calculating RI/J V-Matrix + Cholesky decomp.... done (  0.0 sec)
Calculating Nuclear repulsion               ... done (  0.0 sec) ENN=    833.733377196102 Eh

Diagonalization of the overlap matrix:
Smallest eigenvalue                        ... 2.474e-05
Time for diagonalization                   ...    0.011 sec
Threshold for overlap eigenvalues          ... 1.000e-07
Number of eigenvalues below threshold      ... 0
Time for construction of square roots      ...    0.006 sec
Total time needed                          ...    0.019 sec

-------------------
DFT GRID GENERATION
-------------------

General Integration Accuracy     IntAcc      ... 4.388
Radial Grid Type                 RadialGrid  ... OptM3 with GC (2021)
Angular Grid (max. ang.)         AngularGrid ... 4 (Lebedev-302)
Angular grid pruning method      GridPruning ... 4 (adaptive)
Weight generation scheme         WeightScheme... mBecke (2022)
Basis function cutoff            BFCut       ... 1.0000e-10
Integration weight cutoff        WCut        ... 1.0000e-14
Partially contracted basis set               ... off
Rotationally invariant grid construction     ... off
Angular grids for H and He will be reduced by one unit
Diffuse basis detected: some atoms will have their outermost
                        angular grid increased by 1.

Total number of grid points                  ...   112020
Total number of batches                      ...     1764
Average number of points per batch           ...       63
Average number of grid points per atom       ...     4668
Initializing property integral containers    ... done (  0.0 sec)

SHARK setup successfully completed in   1.3 seconds

Maximum memory used throughout the entire STARTUP-calculation: 56.3 MB
-------------------------------------------------------------------------------
                                 ORCA GUESS
                   Start orbitals & Density for SCF / CASSCF
-------------------------------------------------------------------------------

------------
SCF SETTINGS
------------
Hamiltonian:
 Density Functional     Method          .... DFT(GTOs)
  Functional kind                       .... Exchange
  Functional name                       .... Re-regularized SCAN exchange by Furness et al
  Functional family                     .... MGGA
  Functional refs                              
    [ 0] J. W. Furness, A. D. Kaplan, J. Ning, J. P. Perdew, and J. Sun.,  J. Phys. Chem. Lett. 11, 8208-8215 (2020), doi: 10.1021/acs.jpclett.0c02405
    [ 1] J. W. Furness, A. D. Kaplan, J. Ning, J. P. Perdew, and J. Sun.,  J. Phys. Chem. Lett. 11, 9248-9248 (2020), doi: 10.1021/acs.jpclett.0c03077
  Functional external parameters        .... 6
    Parameter  0 _c1        =  6.670000e-01 : c1 parameter        
    Parameter  1 _c2        =  8.000000e-01 : c2 parameter        
    Parameter  2 _d         =  1.240000e+00 : d parameter         
    Parameter  3 _k1        =  6.500000e-02 : k1 parameter        
    Parameter  4 _eta       =  1.000000e-03 : eta parameter       
    Parameter  5 _dp2       =  3.610000e-01 : dp2 parameter       
  Functional kind                       .... Correlation
  Functional name                       .... Re-regularized SCAN correlation by Furness et al
  Functional family                     .... MGGA
  Functional refs                              
    [ 0] J. W. Furness, A. D. Kaplan, J. Ning, J. P. Perdew, and J. Sun.,  J. Phys. Chem. Lett. 11, 8208-8215 (2020), doi: 10.1021/acs.jpclett.0c02405
    [ 1] J. W. Furness, A. D. Kaplan, J. Ning, J. P. Perdew, and J. Sun.,  J. Phys. Chem. Lett. 11, 9248-9248 (2020), doi: 10.1021/acs.jpclett.0c03077
  Functional external parameters        .... 1
    Parameter  0 _eta       =  1.000000e-03 : Regularization parameter
 Gradients option       PostSCFGGA      .... off
 RI-approximation to the Coulomb term is turned on
   Number of AuxJ basis functions       .... 720


General Settings:
 Integral files         IntName         .... sp
 Hartree-Fock type      HFTyp           .... RHF
 Total Charge           Charge          ....    0
 Multiplicity           Mult            ....    1
 Number of Electrons    NEL             ....   96
 Basis Dimension        Dim             ....  318
 Nuclear Repulsion      ENuc            ....    833.7333771961 Eh

Convergence Acceleration:
 AO-DIIS                CNVDIIS         .... on
   Start iteration      DIISMaxIt       ....    12
   Startup error        DIISStart       ....  0.200000
   # of expansion vecs  DIISMaxEq       ....     5
   Bias factor          DIISBfac        ....   1.050
   Max. coefficient     DIISMaxC        ....  10.000
 MO-DIIS                CNVKDIIS        .... off
 Trust-Rad. Augm. Hess. CNVTRAH         .... auto
   Auto Start mean grad. ratio tolernc. ....  1.125000
   Auto Start start iteration           ....     1
   Auto Start num. interpolation iter.  ....    10
   Max. Number of Micro iterations      ....    24
   Max. Number of Macro iterations      .... Maxiter - #DIIS iter
   Number of Davidson start vectors     ....     2
   Converg. threshold    (grad. norm)   ....   3.330e-04
   Grad. Scal. Fac. for Micro threshold ....   0.100
   Minimum threshold for Micro iter.    ....   1.000e-02
   NR start threshold (gradient norm)   ....   1.000e-04
   Initial trust radius                 ....   0.400
   Minimum AH scaling param. (alpha)    ....   1.000
   Maximum AH scaling param. (alpha)    .... 1000.000
   Quad. conv. algorithm                .... NR
   White noise on init. David. guess    .... on
   Maximum white noise                  ....   0.010
   Pseudo random numbers                .... off
   Inactive MOs                         .... canonical
   Orbital update algorithm             .... Taylor
   Preconditioner                       .... Diag
   Full preconditioner red. dimension   ....   250
   COSX micro iterations for RIJONX calc.... off
 SOSCF                  CNVSOSCF        .... on
   Start iteration      SOSCFMaxIt      ....   150
   Startup grad/error   SOSCFStart      ....  0.003300
   Hessian update       SOSCFHessUp     .... L-BFGS
 Level Shifting         CNVShift        .... on
   Level shift para.    LevelShift      ....    0.2500
   Turn off err/grad.   ShiftErr        ....    0.0010
 Zerner damping         CNVZerner       .... off
 Static damping         CNVDamp         .... on
   Fraction old density DampFac         ....    0.7000
   Max. Damping (<1)    DampMax         ....    0.9800
   Min. Damping (>=0)   DampMin         ....    0.0000
   Turn off err/grad.   DampErr         ....    0.1000

SCF Procedure:
 Maximum # iterations   MaxIter         ....   125
 SCF integral mode      SCFMode         .... Direct
   Integral package                     .... SHARK and LIBINT hybrid scheme
 Reset frequency        DirectResetFreq ....    20
 Integral Threshold     Thresh          ....  1.000e-10 Eh
 Primitive CutOff       TCut            ....  1.000e-11 Eh

Convergence Tolerance:
 Convergence Check Mode ConvCheckMode   .... Total+1el-Energy
 Convergence forced     ConvForced      .... 0
 Energy Change          TolE            ....  1.000e-06 Eh
 1-El. energy change                    ....  1.000e-03 Eh
 Orbital Gradient       TolG            ....  3.330e-04
 Orbital Rotation angle TolX            ....  3.330e-04
 DIIS Error             TolErr          ....  1.000e-06

---------------------
INITIAL GUESS: MOREAD
---------------------
Guess MOs are being read from file: sp.ges
Input Geometry matches current geometry (good)
Atom 0: N(Shells)= 9 and 6 - projection required
Input basis set needs projection
NBasis(read)= 192
NBasis(calc)= 318
Basis set overlap was calculated
Using GuessMode=FMatrix for the initial guess
C*T matrix was formed
Effective Fockian was calculated
Effective Fockian was diagonalized
Initial density was built
                      ------------------
                      INITIAL GUESS DONE (   0.0 sec)
                      ------------------
             **** ENERGY FILE WAS UPDATED (sp.en.tmp) ****
Finished Guess after   0.1 sec
Maximum memory used throughout the entire GUESS-calculation: 28.3 MB

-------------------------------------------------------------------------------------------
                                      ORCA LEAN-SCF
                              memory conserving SCF solver
-------------------------------------------------------------------------------------------

----------------------------------------D-I-I-S--------------------------------------------
Iteration    Energy (Eh)           Delta-E    RMSDP     MaxDP     DIISErr   Damp  Time(sec)
-------------------------------------------------------------------------------------------
               ***  Starting incremental Fock matrix formation  ***
    1    -686.6909036506503980     0.00e+00  9.67e-03  6.83e-01  6.28e-01  0.700   4.0
    2    -686.8094439152341693    -1.19e-01  6.84e-03  3.75e-01  4.41e-01  0.700   3.5
    3    -686.8934478059402409    -8.40e-02  4.78e-03  2.22e-01  3.09e-01  0.700   3.4
    4    -686.9524637503764097    -5.90e-02  3.35e-03  1.41e-01  2.16e-01  0.700   3.4
                               ***Turning on AO-DIIS***
    5    -686.9938808115682605    -4.14e-02  2.37e-03  9.37e-02  1.51e-01  0.700   3.3
    6    -687.0229266757551159    -2.90e-02  1.66e-03  6.53e-02  1.06e-01  0.700   3.5
    7    -687.0432973755682724    -2.04e-02  1.16e-03  4.58e-02  7.42e-02  0.700   3.2
    8    -687.0575757135120512    -1.43e-02  2.72e-03  1.07e-01  5.20e-02  0.000   3.2
                              *** Initializing SOSCF ***
---------------------------------------S-O-S-C-F--------------------------------------
Iteration    Energy (Eh)           Delta-E    RMSDP     MaxDP     MaxGrad    Time(sec)
--------------------------------------------------------------------------------------
    9    -687.0909522709032444    -3.34e-02  1.17e-05  6.29e-04  1.62e-04     3.3
               *** Restarting incremental Fock matrix formation ***
   10    -687.0909523703166997    -9.94e-08  2.68e-05  2.09e-03  2.36e-05     4.1
                  *** Gradient check signals convergence ***

               *****************************************************
               *                     SUCCESS                       *
               *           SCF CONVERGED AFTER  10 CYCLES          *
               *****************************************************

             **** ENERGY FILE WAS UPDATED (sp.en.tmp) ****

----------------
TOTAL SCF ENERGY
----------------

Total Energy       :       -687.09095237031670 Eh          -18696.69534 eV

Components:
Nuclear Repulsion  :        833.73337719610163 Eh           22687.03858 eV
Electronic Energy  :      -1520.82432956641833 Eh          -41383.73392 eV
One Electron Energy:      -2597.20137578823778 Eh          -70673.44240 eV
Two Electron Energy:       1076.37704622181946 Eh           29289.70849 eV

Virial components:
Potential Energy   :      -1371.55112696692095 Eh          -37321.80357 eV
Kinetic Energy     :        684.46017459660413 Eh           18625.10823 eV
Virial Ratio       :          2.00384358049066

DFT components:
N(Alpha)           :       47.999882691358 electrons
N(Beta)            :       47.999882691358 electrons
N(Total)           :       95.999765382715 electrons
E(X)               :      -85.291364403649 Eh       
E(C)               :       -3.194354463601 Eh       
E(XC)              :      -88.485718867250 Eh       

---------------
SCF CONVERGENCE
---------------

  Last Energy change         ...    9.9413e-08  Tolerance :   1.0000e-06
  Last MAX-Density change    ...    2.0862e-03  Tolerance :   1.0000e-05
  Last RMS-Density change    ...    2.6829e-05  Tolerance :   1.0000e-06
  Last DIIS Error            ...    1.6199e-04  Tolerance :   1.0000e-06
  Last Orbital Gradient      ...    2.3641e-05  Tolerance :   3.3300e-04
  Last Orbital Rotation      ...    2.9252e-05  Tolerance :   3.3300e-04


----------------
ORBITAL ENERGIES
----------------

  NO   OCC          E(Eh)            E(eV) 
   0   2.0000     -18.988558      -516.7049 
   1   2.0000     -18.984999      -516.6081 
   2   2.0000     -18.970258      -516.2070 
   3   2.0000     -18.964542      -516.0514 
   4   2.0000     -18.959210      -515.9063 
   5   2.0000     -18.952984      -515.7369 
   6   2.0000     -10.152814      -276.2721 
   7   2.0000     -10.100830      -274.8576 
   8   2.0000     -10.096236      -274.7326 
   9   2.0000     -10.094275      -274.6792 
  10   2.0000     -10.091381      -274.6004 
  11   2.0000     -10.081721      -274.3376 
  12   2.0000      -1.069693       -29.1078 
  13   2.0000      -1.020198       -27.7610 
  14   2.0000      -1.014088       -27.5947 
  15   2.0000      -1.000011       -27.2117 
  16   2.0000      -0.991123       -26.9698 
  17   2.0000      -0.988398       -26.8957 
  18   2.0000      -0.757262       -20.6061 
  19   2.0000      -0.744034       -20.2462 
  20   2.0000      -0.661825       -18.0092 
  21   2.0000      -0.627603       -17.0780 
  22   2.0000      -0.598831       -16.2950 
  23   2.0000      -0.572685       -15.5836 
  24   2.0000      -0.534631       -14.5481 
  25   2.0000      -0.520101       -14.1527 
  26   2.0000      -0.498507       -13.5651 
  27   2.0000      -0.478533       -13.0215 
  28   2.0000      -0.469369       -12.7722 
  29   2.0000      -0.464949       -12.6519 
  30   2.0000      -0.451605       -12.2888 
  31   2.0000      -0.440782       -11.9943 
  32   2.0000      -0.402371       -10.9491 
  33   2.0000      -0.399706       -10.8766 
  34   2.0000      -0.388462       -10.5706 
  35   2.0000      -0.380824       -10.3628 
  36   2.0000      -0.363614        -9.8944 
  37   2.0000      -0.356179        -9.6921 
  38   2.0000      -0.339635        -9.2419 
  39   2.0000      -0.324520        -8.8306 
  40   2.0000      -0.316634        -8.6160 
  41   2.0000      -0.303087        -8.2474 
  42   2.0000      -0.288193        -7.8421 
  43   2.0000      -0.273837        -7.4515 
  44   2.0000      -0.256498        -6.9797 
  45   2.0000      -0.246579        -6.7098 
  46   2.0000      -0.241018        -6.5584 
  47   2.0000      -0.235718        -6.4142 
  48   0.0000       0.027206         0.7403 
  49   0.0000       0.042211         1.1486 
  50   0.0000       0.061812         1.6820 
  51   0.0000       0.073217         1.9923 
  52   0.0000       0.084540         2.3005 
  53   0.0000       0.095226         2.5912 
  54   0.0000       0.096121         2.6156 
  55   0.0000       0.112709         3.0670 
  56   0.0000       0.123489         3.3603 
  57   0.0000       0.139563         3.7977 
  58   0.0000       0.143231         3.8975 
*Only the first 10 virtual orbitals were printed.

                    ********************************
                    * MULLIKEN POPULATION ANALYSIS *
                    ********************************

-----------------------
MULLIKEN ATOMIC CHARGES
-----------------------
   0 C :   -0.240310
   1 C :    0.025501
   2 H :    0.167583
   3 C :   -0.063755
   4 H :    0.194141
   5 C :   -0.020121
   6 H :    0.170810
   7 C :    0.108430
   8 H :    0.167346
   9 C :   -0.172321
  10 H :    0.159306
  11 O :   -0.230529
  12 O :   -0.385088
  13 O :   -0.441218
  14 O :   -0.445195
  15 O :   -0.442249
  16 O :   -0.418303
  17 H :    0.161279
  18 H :    0.139565
  19 H :    0.320655
  20 H :    0.312551
  21 H :    0.315827
  22 H :    0.314003
  23 H :    0.302092
Sum of atomic charges:    0.0000000

--------------------------------
MULLIKEN REDUCED ORBITAL CHARGES
--------------------------------
  0 C s       :     3.338795  s :     3.338795
      pz      :     0.754941  p :     2.842163
      px      :     0.990222
      py      :     1.097001
      dz2     :     0.017443  d :     0.059353
      dxz     :     0.012857
      dyz     :     0.015670
      dx2y2   :     0.005896
      dxy     :     0.007486

  1 C s       :     3.127889  s :     3.127889
      pz      :     1.027840  p :     2.782290
      px      :     0.879716
      py      :     0.874734
      dz2     :     0.015389  d :     0.064320
      dxz     :     0.007895
      dyz     :     0.010227
      dx2y2   :     0.014843
      dxy     :     0.015966

  2 H s       :     0.815512  s :     0.815512
      pz      :     0.011541  p :     0.016905
      px      :     0.002730
      py      :     0.002635

  3 C s       :     3.231938  s :     3.231938
      pz      :     1.021732  p :     2.764068
      px      :     0.859430
      py      :     0.882907
      dz2     :     0.017115  d :     0.067749
      dxz     :     0.008564
      dyz     :     0.011910
      dx2y2   :     0.016840
      dxy     :     0.013321

  4 H s       :     0.788770  s :     0.788770
      pz      :     0.011219  p :     0.017089
      px      :     0.003176
      py      :     0.002694

  5 C s       :     3.181417  s :     3.181417
      pz      :     1.002182  p :     2.770955
      px      :     0.981563
      py      :     0.787211
      dz2     :     0.017499  d :     0.067748
      dxz     :     0.006447
      dyz     :     0.014388
      dx2y2   :     0.015667
      dxy     :     0.013747

  6 H s       :     0.812481  s :     0.812481
      pz      :     0.010975  p :     0.016708
      px      :     0.003336
      py      :     0.002397

  7 C s       :     3.064150  s :     3.064150
      pz      :     1.050277  p :     2.760588
      px      :     0.785927
      py      :     0.924385
      dz2     :     0.013850  d :     0.066831
      dxz     :     0.014574
      dyz     :     0.007546
      dx2y2   :     0.015487
      dxy     :     0.015375

  8 H s       :     0.815855  s :     0.815855
      pz      :     0.011209  p :     0.016799
      px      :     0.002460
      py      :     0.003130

  9 C s       :     3.426549  s :     3.426549
      pz      :     1.034286  p :     2.651459
      px      :     0.748437
      py      :     0.868737
      dz2     :     0.018004  d :     0.094312
      dxz     :     0.015939
      dyz     :     0.012341
      dx2y2   :     0.026289
      dxy     :     0.021740

 10 H s       :     0.824227  s :     0.824227
      pz      :     0.011757  p :     0.016467
      px      :     0.002217
      py      :     0.002493

 11 O s       :     3.738607  s :     3.738607
      pz      :     1.773351  p :     4.455995
      px      :     1.101455
      py      :     1.581189
      dz2     :     0.010144  d :     0.035927
      dxz     :     0.001086
      dyz     :     0.004905
      dx2y2   :     0.011009
      dxy     :     0.008783

 12 O s       :     3.730356  s :     3.730356
      pz      :     1.464296  p :     4.629362
      px      :     1.656635
      py      :     1.508430
      dz2     :     0.007815  d :     0.025370
      dxz     :     0.005669
      dyz     :     0.000258
      dx2y2   :     0.004786
      dxy     :     0.006843

 13 O s       :     3.768710  s :     3.768710
      pz      :     1.885045  p :     4.656149
      px      :     1.229129
      py      :     1.541975
      dz2     :     0.004503  d :     0.016359
      dxz     :    -0.000330
      dyz     :     0.002839
      dx2y2   :     0.004857
      dxy     :     0.004490

 14 O s       :     3.769663  s :     3.769663
      pz      :     1.770211  p :     4.656073
      px      :     1.409528
      py      :     1.476333
      dz2     :     0.003735  d :     0.019460
      dxz     :     0.002600
      dyz     :     0.003496
      dx2y2   :     0.004498
      dxy     :     0.005131

 15 O s       :     3.771690  s :     3.771690
      pz      :     1.731465  p :     4.652226
      px      :     1.702758
      py      :     1.218002
      dz2     :     0.002512  d :     0.018332
      dxz     :     0.005364
      dyz     :     0.004869
      dx2y2   :     0.002977
      dxy     :     0.002610

 16 O s       :     3.757559  s :     3.757559
      pz      :     1.305996  p :     4.646901
      px      :     1.660416
      py      :     1.680490
      dz2     :     0.002409  d :     0.013843
      dxz     :     0.000947
      dyz     :    -0.000861
      dx2y2   :     0.004023
      dxy     :     0.007325

 17 H s       :     0.821200  s :     0.821200
      pz      :     0.002741  p :     0.017521
      px      :     0.006673
      py      :     0.008107

 18 H s       :     0.843392  s :     0.843392
      pz      :     0.004667  p :     0.017043
      px      :     0.003778
      py      :     0.008598

 19 H s       :     0.636163  s :     0.636163
      pz      :     0.019665  p :     0.043182
      px      :     0.012095
      py      :     0.011422

 20 H s       :     0.643652  s :     0.643652
      pz      :     0.012533  p :     0.043797
      px      :     0.011563
      py      :     0.019701

 21 H s       :     0.640486  s :     0.640486
      pz      :     0.011596  p :     0.043687
      px      :     0.022752
      py      :     0.009338

 22 H s       :     0.642356  s :     0.642356
      pz      :     0.012297  p :     0.043641
      px      :     0.011543
      py      :     0.019801

 23 H s       :     0.654608  s :     0.654608
      pz      :     0.009094  p :     0.043300
      px      :     0.017664
      py      :     0.016541


------------------------
MULLIKEN OVERLAP CHARGES
------------------------
B(  0-C ,  1-C ) :   0.0538 B(  0-C ,  3-C ) :   0.1761 B(  0-C , 11-O ) :  -0.0595 
B(  0-C , 16-O ) :   0.5814 B(  0-C , 17-H ) :   0.8102 B(  0-C , 18-H ) :   0.9313 
B(  0-C , 23-H ) :  -0.0739 B(  1-C ,  2-H ) :   0.7183 B(  1-C ,  3-C ) :  -1.2469 
B(  1-C ,  5-C ) :   0.4842 B(  1-C ,  7-C ) :   0.2049 B(  1-C ,  9-C ) :  -0.7119 
B(  1-C , 11-O ) :   0.1273 B(  1-C , 15-O ) :  -0.0619 B(  1-C , 16-O ) :  -0.3002 
B(  1-C , 18-H ) :  -0.1968 B(  1-C , 23-H ) :  -0.0832 B(  2-H , 11-O ) :  -0.0808 
B(  3-C ,  4-H ) :   0.8661 B(  3-C ,  5-C ) :  -0.8296 B(  3-C ,  6-H ) :  -0.0719 
B(  3-C ,  7-C ) :  -0.2020 B(  3-C ,  8-H ) :   0.0736 B(  3-C ,  9-C ) :   0.3840 
B(  3-C , 15-O ) :   0.2397 B(  3-C , 16-O ) :   0.0996 B(  3-C , 22-H ) :  -0.1664 
B(  4-H ,  5-C ) :  -0.1806 B(  4-H ,  7-C ) :   0.0807 B(  4-H , 15-O ) :  -0.0926 
B(  5-C ,  6-H ) :   0.8774 B(  5-C ,  7-C ) :  -0.2417 B(  5-C ,  8-H ) :  -0.1162 
B(  5-C ,  9-C ) :  -0.1353 B(  5-C , 14-O ) :   0.3298 B(  5-C , 21-H ) :  -0.1015 
B(  6-H ,  7-C ) :  -0.1704 B(  6-H ,  9-C ) :   0.0568 B(  6-H , 14-O ) :  -0.1079 
B(  7-C ,  8-H ) :   0.8003 B(  7-C ,  9-C ) :  -0.7360 B(  7-C , 10-H ) :  -0.1998 
B(  7-C , 11-O ) :  -0.1895 B(  7-C , 12-O ) :  -0.1328 B(  7-C , 13-O ) :   0.2671 
B(  7-C , 14-O ) :  -0.0816 B(  7-C , 20-H ) :  -0.1086 B(  8-H , 13-O ) :  -0.1050 
B(  9-C , 10-H ) :   0.9920 B(  9-C , 11-O ) :   0.4311 B(  9-C , 12-O ) :   0.5159 
B(  9-C , 13-O ) :  -0.0506 B(  9-C , 19-H ) :  -0.0653 B( 10-H , 11-O ) :  -0.0970 
B( 10-H , 12-O ) :  -0.1155 B( 11-O , 12-O ) :  -0.1643 B( 11-O , 23-H ) :   0.0504 
B( 12-O , 19-H ) :   0.5985 B( 13-O , 20-H ) :   0.6020 B( 14-O , 21-H ) :   0.6073 
B( 15-O , 22-H ) :   0.6127 B( 16-O , 17-H ) :  -0.0985 B( 16-O , 18-H ) :  -0.1014 
B( 16-O , 23-H ) :   0.5915 B( 17-H , 18-H ) :  -0.0586 


                     *******************************
                     * LOEWDIN POPULATION ANALYSIS *
                     *******************************

----------------------
LOEWDIN ATOMIC CHARGES
----------------------
   0 C :    0.045340
   1 C :    0.120441
   2 H :    0.190070
   3 C :    0.112431
   4 H :    0.193135
   5 C :    0.105549
   6 H :    0.185441
   7 C :    0.106019
   8 H :    0.182403
   9 C :    0.294338
  10 H :    0.196361
  11 O :   -0.689755
  12 O :   -0.494110
  13 O :   -0.575918
  14 O :   -0.572641
  15 O :   -0.573256
  16 O :   -0.587137
  17 H :    0.197440
  18 H :    0.165056
  19 H :    0.280846
  20 H :    0.282325
  21 H :    0.281624
  22 H :    0.282239
  23 H :    0.271758

-------------------------------
LOEWDIN REDUCED ORBITAL CHARGES
-------------------------------
  0 C s       :     2.861473  s :     2.861473
      pz      :     0.868161  p :     2.960608
      px      :     1.014392
      py      :     1.078055
      dz2     :     0.039708  d :     0.132579
      dxz     :     0.027495
      dyz     :     0.035277
      dx2y2   :     0.012624
      dxy     :     0.017474

  1 C s       :     2.823219  s :     2.823219
      pz      :     1.034256  p :     2.917426
      px      :     0.962588
      py      :     0.920581
      dz2     :     0.035450  d :     0.138915
      dxz     :     0.015183
      dyz     :     0.021682
      dx2y2   :     0.032928
      dxy     :     0.033672

  2 H s       :     0.768552  s :     0.768552
      pz      :     0.027505  p :     0.041378
      px      :     0.007630
      py      :     0.006243

  3 C s       :     2.823235  s :     2.823235
      pz      :     1.042893  p :     2.919186
      px      :     0.957923
      py      :     0.918370
      dz2     :     0.038316  d :     0.145149
      dxz     :     0.017224
      dyz     :     0.025069
      dx2y2   :     0.037488
      dxy     :     0.027052

  4 H s       :     0.765073  s :     0.765073
      pz      :     0.027266  p :     0.041792
      px      :     0.007913
      py      :     0.006612

  5 C s       :     2.827684  s :     2.827684
      pz      :     1.023728  p :     2.921075
      px      :     0.997126
      py      :     0.900221
      dz2     :     0.039709  d :     0.145691
      dxz     :     0.011006
      dyz     :     0.031265
      dx2y2   :     0.034659
      dxy     :     0.029053

  6 H s       :     0.774135  s :     0.774135
      pz      :     0.026247  p :     0.040424
      px      :     0.007685
      py      :     0.006492

  7 C s       :     2.835572  s :     2.835572
      pz      :     1.056621  p :     2.914467
      px      :     0.865456
      py      :     0.992389
      dz2     :     0.031433  d :     0.143942
      dxz     :     0.030223
      dyz     :     0.014900
      dx2y2   :     0.033322
      dxy     :     0.034063

  8 H s       :     0.777338  s :     0.777338
      pz      :     0.027135  p :     0.040259
      px      :     0.006032
      py      :     0.007092

  9 C s       :     2.770957  s :     2.770957
      pz      :     1.001943  p :     2.728991
      px      :     0.821035
      py      :     0.906013
      dz2     :     0.042437  d :     0.205714
      dxz     :     0.031853
      dyz     :     0.024890
      dx2y2   :     0.058527
      dxy     :     0.048007

 10 H s       :     0.766287  s :     0.766287
      pz      :     0.026405  p :     0.037351
      px      :     0.005516
      py      :     0.005430

 11 O s       :     3.469391  s :     3.469391
      pz      :     1.781327  p :     4.707637
      px      :     1.307148
      py      :     1.619162
      dz2     :     0.088325  d :     0.512726
      dxz     :     0.107909
      dyz     :     0.056827
      dx2y2   :     0.130798
      dxy     :     0.128868

 12 O s       :     3.495087  s :     3.495087
      pz      :     1.522981  p :     4.734968
      px      :     1.657385
      py      :     1.554601
      dz2     :     0.060483  d :     0.264056
      dxz     :     0.030989
      dyz     :     0.055874
      dx2y2   :     0.062389
      dxy     :     0.054321

 13 O s       :     3.499807  s :     3.499807
      pz      :     1.866419  p :     4.794785
      px      :     1.366374
      py      :     1.561991
      dz2     :     0.039141  d :     0.281326
      dxz     :     0.063451
      dyz     :     0.011552
      dx2y2   :     0.073365
      dxy     :     0.093817

 14 O s       :     3.500668  s :     3.500668
      pz      :     1.784231  p :     4.791828
      px      :     1.453415
      py      :     1.554182
      dz2     :     0.057544  d :     0.280144
      dxz     :     0.018311
      dyz     :     0.058017
      dx2y2   :     0.079629
      dxy     :     0.066645

 15 O s       :     3.498787  s :     3.498787
      pz      :     1.754397  p :     4.786489
      px      :     1.704170
      py      :     1.327922
      dz2     :     0.057117  d :     0.287980
      dxz     :     0.033413
      dyz     :     0.053461
      dx2y2   :     0.081583
      dxy     :     0.062406

 16 O s       :     3.510898  s :     3.510898
      pz      :     1.440928  p :     4.796166
      px      :     1.657771
      py      :     1.697467
      dz2     :     0.087099  d :     0.280073
      dxz     :     0.070756
      dyz     :     0.079827
      dx2y2   :     0.010804
      dxy     :     0.031587

 17 H s       :     0.761904  s :     0.761904
      pz      :     0.005564  p :     0.040656
      px      :     0.015949
      py      :     0.019143

 18 H s       :     0.794636  s :     0.794636
      pz      :     0.010751  p :     0.040308
      px      :     0.008494
      py      :     0.021064

 19 H s       :     0.597367  s :     0.597367
      pz      :     0.058414  p :     0.121788
      px      :     0.033755
      py      :     0.029619

 20 H s       :     0.593558  s :     0.593558
      pz      :     0.032486  p :     0.124117
      px      :     0.031440
      py      :     0.060191

 21 H s       :     0.594426  s :     0.594426
      pz      :     0.030226  p :     0.123950
      px      :     0.069387
      py      :     0.024338

 22 H s       :     0.594255  s :     0.594255
      pz      :     0.033657  p :     0.123506
      px      :     0.031614
      py      :     0.058236

 23 H s       :     0.604451  s :     0.604451
      pz      :     0.023599  p :     0.123791
      px      :     0.052352
      py      :     0.047839


---------------------------------
LOEWDIN BOND ORDERS (THRESH 0.050000)
---------------------------------
B(  0-C ,  1-C ) :   0.9350 B(  0-C ,  3-C ) :   0.0633 B(  0-C , 11-O ) :   0.1505 
B(  0-C , 16-O ) :   1.4567 B(  0-C , 17-H ) :   0.8070 B(  0-C , 18-H ) :   0.8234 
B(  1-C ,  2-H ) :   0.7731 B(  1-C ,  3-C ) :   0.8783 B(  1-C ,  5-C ) :   0.0648 
B(  1-C ,  9-C ) :   0.0816 B(  1-C , 11-O ) :   1.3104 B(  1-C , 15-O ) :   0.1638 
B(  1-C , 16-O ) :   0.1554 B(  2-H , 11-O ) :   0.0959 B(  3-C ,  4-H ) :   0.7709 
B(  3-C ,  5-C ) :   0.8879 B(  3-C ,  7-C ) :   0.0692 B(  3-C , 11-O ) :   0.1435 
B(  3-C , 14-O ) :   0.1627 B(  3-C , 15-O ) :   1.4093 B(  4-H , 15-O ) :   0.0944 
B(  5-C ,  6-H ) :   0.7741 B(  5-C ,  7-C ) :   0.8916 B(  5-C ,  9-C ) :   0.0686 
B(  5-C , 13-O ) :   0.1606 B(  5-C , 14-O ) :   1.3989 B(  5-C , 15-O ) :   0.1586 
B(  6-H , 14-O ) :   0.0947 B(  7-C ,  8-H ) :   0.7785 B(  7-C ,  9-C ) :   0.8275 
B(  7-C , 11-O ) :   0.1494 B(  7-C , 12-O ) :   0.1562 B(  7-C , 13-O ) :   1.4030 
B(  7-C , 14-O ) :   0.1537 B(  8-H , 13-O ) :   0.0958 B(  9-C , 10-H ) :   0.7285 
B(  9-C , 11-O ) :   1.2719 B(  9-C , 12-O ) :   1.3807 B(  9-C , 13-O ) :   0.1461 
B( 10-H , 11-O ) :   0.0901 B( 10-H , 12-O ) :   0.0882 B( 11-O , 12-O ) :   0.3046 
B( 11-O , 16-O ) :   0.0823 B( 12-O , 13-O ) :   0.0637 B( 12-O , 19-H ) :   0.9437 
B( 13-O , 14-O ) :   0.0520 B( 13-O , 20-H ) :   0.9443 B( 14-O , 15-O ) :   0.0562 
B( 14-O , 21-H ) :   0.9500 B( 15-O , 22-H ) :   0.9486 B( 16-O , 17-H ) :   0.0972 
B( 16-O , 18-H ) :   0.1058 B( 16-O , 23-H ) :   0.9593 

------------------------------------------
LOEWDIN REDUCED ORBITAL POPULATIONS PER MO
-------------------------------------------
THRESHOLD FOR PRINTING IS 0.1%%
                      0         1         2         3         4         5   
                 -18.98856 -18.98500 -18.97026 -18.96454 -18.95921 -18.95298
                   2.00000   2.00000   2.00000   2.00000   2.00000   2.00000
                  --------  --------  --------  --------  --------  --------
11 O  s              99.9       0.0       0.0       0.0       0.0       0.0
12 O  s               0.0      99.9       0.0       0.0       0.0       0.0
13 O  s               0.0       0.0      99.9       0.0       0.0       0.0
14 O  s               0.0       0.0       0.0      99.9       0.0       0.0
15 O  s               0.0       0.0       0.0       0.0      99.9       0.0
16 O  s               0.0       0.0       0.0       0.0       0.0      99.9

                      6         7         8         9        10        11   
                 -10.15281 -10.10083 -10.09624 -10.09428 -10.09138 -10.08172
                   2.00000   2.00000   2.00000   2.00000   2.00000   2.00000
                  --------  --------  --------  --------  --------  --------
 0 C  s               0.0       0.0       0.0       0.0       0.0      99.4
 1 C  s               0.0      99.3       0.0       0.0       0.0       0.0
 3 C  s               0.0       0.0       0.0       0.1      99.3       0.0
 5 C  s               0.0       0.0       0.1      99.2       0.1       0.0
 7 C  s               0.0       0.0      99.2       0.1       0.0       0.0
 9 C  s              99.0       0.0       0.0       0.0       0.0       0.0
11 O  px              0.1       0.0       0.0       0.0       0.0       0.0
11 O  dx2y2           0.2       0.0       0.0       0.0       0.0       0.0
11 O  dxy             0.0       0.2       0.0       0.0       0.0       0.0
12 O  dxy             0.1       0.0       0.0       0.0       0.0       0.0
13 O  px              0.0       0.0       0.1       0.0       0.0       0.0
13 O  dx2y2           0.0       0.0       0.2       0.0       0.0       0.0
14 O  dyz             0.0       0.0       0.0       0.1       0.0       0.0
14 O  dx2y2           0.0       0.0       0.0       0.1       0.0       0.0
15 O  dxy             0.0       0.0       0.0       0.0       0.1       0.0
16 O  pz              0.0       0.0       0.0       0.0       0.0       0.1
16 O  dz2             0.0       0.0       0.0       0.0       0.0       0.3

                     12        13        14        15        16        17   
                  -1.06969  -1.02020  -1.01409  -1.00001  -0.99112  -0.98840
                   2.00000   2.00000   2.00000   2.00000   2.00000   2.00000
                  --------  --------  --------  --------  --------  --------
 0 C  s               0.5       0.0       2.4       2.3       0.8       4.4
 0 C  pz              0.0       0.0       0.8       1.7       0.7       5.4
 0 C  px              0.6       0.0       0.4       0.0       0.0       0.3
 0 C  py              0.0       0.0       0.0       0.2       0.0       0.2
 0 C  dz2             0.0       0.0       0.1       0.1       0.1       0.5
 1 C  s               3.9       0.0       3.9       0.6       0.1       0.5
 1 C  pz              0.6       0.0       0.6       0.2       0.0       0.1
 1 C  px              2.0       0.0       0.2       0.1       0.7       2.1
 1 C  py              1.4       0.9       0.3       1.5       1.0       0.2
 1 C  dxy             0.2       0.0       0.1       0.0       0.0       0.1
 2 H  s               0.2       0.0       0.2       0.0       0.0       0.0
 3 C  s               0.7       2.7       3.5       1.5       2.2       0.3
 3 C  pz              0.1       0.2       0.6       0.4       0.8       0.2
 3 C  px              0.1       0.2       0.5       0.4       2.9       0.1
 3 C  py              0.5       1.6       0.3       2.5       1.4       0.0
 3 C  dyz             0.0       0.0       0.0       0.1       0.1       0.0
 3 C  dxy             0.0       0.0       0.1       0.1       0.2       0.0
 4 H  s               0.0       0.2       0.2       0.1       0.2       0.0
 5 C  s               0.5       7.4       0.4       0.2       1.7       0.3
 5 C  pz              0.0       1.2       0.0       0.0       0.9       0.1
 5 C  px              0.0       0.3       1.3       0.9       0.8       0.1
 5 C  py              0.4       1.9       0.3       0.9       2.9       1.0
 5 C  dyz             0.0       0.2       0.0       0.0       0.2       0.0
 5 C  dx2y2           0.0       0.1       0.0       0.0       0.2       0.0
 6 H  s               0.0       0.5       0.0       0.0       0.1       0.0
 7 C  s               2.2       4.7       1.5       1.8       0.2       0.3
 7 C  pz              0.3       0.2       0.0       0.1       0.0       0.0
 7 C  px              0.1       1.9       3.2       2.6       1.5       0.3
 7 C  py              1.3       1.8       0.1       0.1       0.3       0.0
 7 C  dx2y2           0.0       0.1       0.1       0.2       0.1       0.0
 8 H  s               0.1       0.3       0.1       0.1       0.0       0.0
 9 C  s              13.8       0.1       0.4       0.1       0.0       0.0
 9 C  pz              1.2       0.0       0.3       0.1       0.0       0.1
 9 C  px              0.9       0.4       6.1       1.5       1.3       3.0
 9 C  py              2.0       1.3       0.6       2.2       0.0       1.0
 9 C  dz2             0.2       0.0       0.0       0.0       0.0       0.0
 9 C  dx2y2           0.1       0.0       0.2       0.1       0.1       0.2
 9 C  dxy             0.0       0.0       0.1       0.2       0.0       0.2
10 H  s               0.8       0.0       0.0       0.0       0.0       0.0
11 O  s              29.0       1.5      10.1       3.5       3.2       8.3
11 O  pz              0.2       0.0       0.1       0.0       0.0       0.1
11 O  px              1.0       0.0       0.6       0.3       0.0       0.0
11 O  py              0.7       0.0       0.6       0.2       0.1       0.3
11 O  dz2             0.5       0.0       0.0       0.0       0.0       0.0
11 O  dx2y2           0.6       0.0       0.1       0.0       0.0       0.3
11 O  dxy             0.1       0.0       0.0       0.0       0.0       0.1
12 O  s              21.8       0.8      14.0      12.6       1.1       9.3
12 O  pz              0.0       0.0       0.1       0.1       0.0       0.1
12 O  px              1.3       0.1       0.2       0.2       0.0       0.1
12 O  py              0.9       0.0       0.1       0.1       0.0       0.0
12 O  dz2             0.2       0.0       0.0       0.0       0.0       0.0
12 O  dx2y2           0.0       0.1       0.1       0.0       0.0       0.0
12 O  dxy             0.4       0.0       0.0       0.0       0.0       0.0
13 O  s               1.6      19.4      12.1      17.5       5.7       3.1
13 O  px              0.1       0.5       0.2       0.2       0.0       0.0
13 O  py              0.1       0.4       0.4       0.5       0.2       0.1
13 O  dz2             0.1       0.1       0.0       0.0       0.0       0.0
14 O  s               0.2      26.1       1.4       2.2      23.9       5.5
14 O  pz              0.0       0.3       0.0       0.0       0.1       0.0
14 O  px              0.0       0.3       0.0       0.0       0.4       0.1
14 O  py              0.0       0.9       0.0       0.0       0.4       0.1
14 O  dyz             0.0       0.2       0.0       0.0       0.0       0.0
15 O  s               0.2       8.0      11.6      13.0      23.8       1.9
15 O  pz              0.0       0.2       0.3       0.3       0.4       0.0
15 O  px              0.0       0.3       0.4       0.3       0.5       0.0
16 O  s               0.4       0.0       7.0      12.1       5.0      34.9
16 O  pz              0.0       0.0       0.3       0.4       0.1       0.8
16 O  px              0.0       0.0       0.2       0.2       0.1       0.5
16 O  py              0.0       0.0       0.0       0.1       0.0       0.2
17 H  s               0.0       0.0       0.2       0.1       0.1       0.3
18 H  s               0.0       0.0       0.2       0.2       0.1       0.3
19 H  s               3.7       0.1       2.3       2.2       0.2       1.6
19 H  pz              0.6       0.0       0.4       0.4       0.0       0.3
19 H  py              0.1       0.0       0.1       0.1       0.0       0.1
20 H  s               0.4       3.1       2.1       2.9       1.0       0.5
20 H  px              0.0       0.2       0.2       0.2       0.1       0.0
20 H  py              0.0       0.5       0.3       0.5       0.2       0.1
21 H  s               0.1       4.5       0.2       0.3       4.2       0.9
21 H  px              0.0       0.9       0.0       0.1       0.9       0.2
22 H  s               0.0       1.5       2.0       2.2       3.9       0.3
22 H  py              0.0       0.3       0.4       0.4       0.8       0.1
23 H  s               0.1       0.0       1.3       2.2       0.8       6.0
23 H  pz              0.0       0.0       0.0       0.1       0.0       0.2
23 H  px              0.0       0.0       0.1       0.2       0.1       0.6
23 H  py              0.0       0.0       0.1       0.2       0.1       0.6

                     18        19        20        21        22        23   
                  -0.75726  -0.74403  -0.66183  -0.62760  -0.59883  -0.57269
                   2.00000   2.00000   2.00000   2.00000   2.00000   2.00000
                  --------  --------  --------  --------  --------  --------
 0 C  s               1.6       5.7      12.8       0.9       7.9       0.5
 0 C  pz              0.4       1.5       1.8       0.1       0.2       0.3
 0 C  px              0.6       2.0       0.1       0.0       3.9       1.5
 0 C  py              0.4       0.3       0.2       0.4       0.0       0.7
 0 C  dz2             0.0       0.1       0.0       0.0       0.0       0.0
 1 C  s               6.3      12.4       1.0       0.2       4.1       2.0
 1 C  pz              0.0       0.1       0.6       0.0       0.1       2.6
 1 C  px              0.2       2.0       5.3       0.2       1.7       0.6
 1 C  py              3.3       0.1       0.5       5.9       0.2       3.3
 1 C  dyz             0.1       0.0       0.0       0.1       0.0       0.1
 1 C  dx2y2           0.0       0.0       0.1       0.0       0.1       0.0
 1 C  dxy             0.1       0.0       0.0       0.0       0.0       0.0
 2 H  s               1.1       2.1       0.4       0.1       1.4       2.0
 2 H  pz              0.1       0.2       0.0       0.0       0.1       0.1
 3 C  s              10.8       0.7       3.5       6.2       0.0       3.4
 3 C  pz              0.0       0.1       0.2       0.0       0.2       1.9
 3 C  px              2.6       1.6       2.3       0.4       2.3       2.2
 3 C  py              2.6       2.1       0.2       0.5       2.9       0.1
 3 C  dx2y2           0.0       0.1       0.0       0.0       0.1       0.0
 4 H  s               1.6       0.1       0.8       1.6       0.0       2.5
 4 H  pz              0.1       0.0       0.1       0.1       0.0       0.2
 5 C  s              11.1       2.2       2.9       1.5       5.2       3.0
 5 C  pz              0.0       0.0       0.1       0.1       0.4       3.2
 5 C  px              0.9       0.6       2.5       4.5       1.1       0.2
 5 C  py              4.6       1.6       0.1       0.6       1.3       0.6
 5 C  dxy             0.0       0.1       0.0       0.1       0.0       0.0
 6 H  s               1.7       0.4       0.6       0.4       1.8       2.9
 6 H  pz              0.2       0.0       0.1       0.0       0.1       0.2
 7 C  s               6.1       7.5       2.5       5.4       3.0       1.3
 7 C  pz              0.2       0.3       0.1       0.7       0.4       4.3
 7 C  px              3.2       2.1       0.0       0.0       0.1       0.0
 7 C  py              0.5       0.3       2.6       3.8       0.8       0.3
 8 H  s               0.9       1.3       0.5       1.9       1.3       2.2
 8 H  pz              0.1       0.1       0.1       0.2       0.1       0.1
 9 C  s               0.2       7.5       6.0       5.7       0.0       0.4
 9 C  pz              0.0       0.0       0.3       2.3       0.1       7.0
 9 C  px              1.2       0.3       1.3       0.2       1.9       3.8
 9 C  py              2.7       2.0       1.0       0.7       2.2       0.1
 9 C  dx2y2           0.2       0.0       0.0       0.0       0.1       0.0
 9 C  dxy             0.0       0.1       0.0       0.0       0.0       0.2
10 H  s               0.1       1.4       2.2       3.1       0.0       2.7
10 H  pz              0.0       0.1       0.2       0.2       0.0       0.2
11 O  s               4.1       0.0       1.6       1.2       0.7       0.4
11 O  pz              0.1       0.2       0.2       0.2       0.1       3.7
11 O  px              0.7      10.5       0.6       5.1       4.5       6.2
11 O  py              1.4       0.4       0.1       0.1       3.0       0.5
11 O  dz2             0.4       0.0       0.1       0.0       0.0       0.0
11 O  dxz             0.1       0.5       0.0       0.5       0.1       0.1
11 O  dyz             0.1       0.2       0.0       0.0       0.1       0.4
11 O  dx2y2           0.1       0.1       1.1       0.0       0.2       0.1
11 O  dxy             0.1       2.4       0.1       0.0       0.0       0.1
12 O  s               0.0       2.5       1.0       0.7       0.1       0.4
12 O  pz              0.0       1.0       2.7       6.3       0.1       5.8
12 O  px              0.1       0.5       0.1       0.3       0.6       0.7
12 O  py              0.0       1.9       4.0       4.9       0.1       1.3
12 O  dz2             0.0       0.2       0.1       0.1       0.0       0.1
12 O  dxz             0.0       0.1       0.1       0.2       0.0       0.2
12 O  dyz             0.0       0.0       0.1       0.2       0.0       0.2
12 O  dx2y2           0.2       0.0       0.3       0.0       0.4       0.1
12 O  dxy             0.0       0.5       0.2       0.2       0.0       0.1
13 O  s               1.5       2.1       1.0       0.4       0.7       0.0
13 O  pz              0.0       0.0       0.0       0.3       0.2       0.7
13 O  px              1.9       2.6       1.7       6.6       3.6       0.4
13 O  py              0.1       0.1       0.1       1.6       0.1       0.0
13 O  dz2             0.1       0.1       0.1       0.0       0.0       0.0
13 O  dxz             0.0       0.0       0.0       0.1       0.1       0.3
13 O  dx2y2           0.5       0.5       0.1       0.7       0.1       0.0
13 O  dxy             0.0       0.2       0.4       0.0       0.3       0.0
14 O  s               2.8       0.7       0.5       0.8       0.5       0.2
14 O  pz              0.4       0.1       0.4       0.2       1.8       1.7
14 O  px              1.0       0.1       1.6       0.0       5.5       1.3
14 O  py              2.0       0.5       1.2       1.2       3.8       1.3
14 O  dz2             0.1       0.0       0.0       0.0       0.0       0.2
14 O  dyz             0.4       0.1       0.2       0.1       0.4       0.3
14 O  dx2y2           0.6       0.2       0.1       0.3       0.2       0.1
14 O  dxy             0.1       0.0       0.2       0.3       0.1       0.0
15 O  s               3.6       0.3       0.8       1.1       0.3       0.1
15 O  pz              0.2       0.0       0.2       0.3       0.1       0.7
15 O  px              0.6       0.0       0.7       0.5       0.3       0.0
15 O  py              3.0       0.8       0.6       6.4       0.3       5.9
15 O  dz2             0.1       0.0       0.0       0.0       0.0       0.1
15 O  dxz             0.1       0.0       0.1       0.1       0.1       0.0
15 O  dyz             0.3       0.0       0.1       0.3       0.0       0.4
15 O  dx2y2           0.0       0.2       0.2       0.0       0.4       0.1
15 O  dxy             0.6       0.0       0.3       0.4       0.0       0.1
16 O  s               0.5       2.1       1.7       0.2       0.6       0.0
16 O  pz              0.4       1.5       5.3       0.6       7.1       1.3
16 O  px              0.0       0.0       0.5       0.0       1.8       0.5
16 O  py              0.1       0.3       1.1       0.0       1.5       1.0
16 O  dz2             0.1       0.4       1.3       0.1       1.0       0.0
16 O  dxz             0.0       0.2       0.0       0.0       0.0       0.0
17 H  s               0.3       1.0       3.9       0.1       3.6       0.8
17 H  px              0.0       0.0       0.1       0.0       0.1       0.0
17 H  py              0.0       0.0       0.2       0.0       0.2       0.0
18 H  s               0.2       1.0       3.3       0.5       3.0       0.0
18 H  py              0.0       0.1       0.2       0.0       0.2       0.0
19 H  s               0.0       1.0       1.7       2.8       0.0       1.5
19 H  pz              0.0       0.2       0.2       0.2       0.0       0.0
19 H  px              0.0       0.1       0.1       0.1       0.0       0.0
20 H  s               0.7       0.9       0.4       2.1       0.8       0.1
20 H  py              0.1       0.2       0.1       0.2       0.1       0.0
21 H  s               1.1       0.2       0.9       0.2       2.6       0.8
21 H  px              0.3       0.1       0.1       0.1       0.3       0.1
22 H  s               1.4       0.3       0.2       1.8       0.0       1.4
22 H  py              0.2       0.0       0.0       0.1       0.0       0.1
23 H  s               0.2       0.6       1.7       0.1       2.3       0.7
23 H  px              0.0       0.1       0.2       0.0       0.1       0.0
23 H  py              0.0       0.1       0.1       0.0       0.1       0.0

                     24        25        26        27        28        29   
                  -0.53463  -0.52010  -0.49851  -0.47853  -0.46937  -0.46495
                   2.00000   2.00000   2.00000   2.00000   2.00000   2.00000
                  --------  --------  --------  --------  --------  --------
 0 C  s               0.0       0.0       0.1       0.1       0.5       0.8
 0 C  pz              0.1       0.0       6.9       0.0       4.1       4.8
 0 C  px              0.6       0.3       1.5       0.1       1.6       0.0
 0 C  py              0.4       0.0       0.2       0.8       0.3       6.1
 0 C  dz2             0.0       0.0       0.1       0.0       0.1       0.1
 1 C  s               0.1       0.3       1.0       1.0       0.1       1.2
 1 C  pz              5.8       0.7       8.0       2.8       1.0       0.1
 1 C  px              0.0       0.9       3.6       0.4       2.7       0.4
 1 C  py              3.1       0.2       0.2       0.6       0.4       2.9
 1 C  dyz             0.0       0.0       0.0       0.1       0.1       0.0
 1 C  dxy             0.0       0.0       0.1       0.0       0.2       0.0
 2 H  s               2.1       0.6       4.3       2.7       0.2       0.8
 2 H  pz              0.1       0.0       0.2       0.1       0.0       0.1
 3 C  s               0.3       0.7       0.6       0.2       0.4       0.8
 3 C  pz              8.6       0.3       2.2       5.2       3.1       2.8
 3 C  px              0.6       2.4       0.2       0.6       1.0       0.2
 3 C  py              0.3       0.8       0.5       1.0       2.1       3.8
 3 C  dyz             0.0       0.0       0.0       0.2       0.0       0.1
 4 H  s               2.4       0.7       1.3       1.9       1.4       1.9
 4 H  pz              0.1       0.1       0.1       0.1       0.0       0.1
 5 C  s               0.3       0.0       0.0       0.9       0.6       0.4
 5 C  pz              6.3       0.2       1.1       9.2       0.2       0.0
 5 C  px              2.6       0.9       0.1       0.5       0.3       0.5
 5 C  py              0.6       0.8       3.1       0.0       5.5       0.0
 5 C  dyz             0.0       0.0       0.0       0.0       0.2       0.0
 6 H  s               2.5       0.0       0.3       5.0       0.4       0.3
 6 H  pz              0.1       0.0       0.0       0.2       0.0       0.0
 7 C  s               0.3       0.1       0.3       0.0       0.3       0.0
 7 C  pz              3.5       0.1       5.2       0.8       0.1       4.9
 7 C  px              0.2       6.3       0.0       0.5       2.5       0.3
 7 C  py              3.0       6.5       0.7       2.2       2.9       0.7
 8 H  s               1.7       0.1       2.3       0.0       0.1       1.4
 8 H  pz              0.1       0.0       0.1       0.0       0.0       0.0
 9 C  s               0.0       0.2       0.0       0.1       0.0       0.6
 9 C  pz              1.6       0.8       3.7       5.5       0.5       5.3
 9 C  px              5.5       1.0       0.8       2.7       0.5       0.1
[...]
12 O  dxy             1.7       1.5       3.5       0.4       0.4       0.0
13 O  s               0.0       1.3       0.8       2.8       1.6       1.1
13 O  px              0.0       3.4       1.3       3.4       1.8       0.3
13 O  py              0.0       2.9       1.7       3.6       2.3       0.6
13 O  dz2             0.0       1.1       0.9       1.6       1.1       0.4
13 O  dxz             0.0       0.1       0.0       0.1       0.1       0.0
13 O  dx2y2           0.0       3.9       1.6       4.3       2.4       0.5
13 O  dxy             0.1       5.3       2.7       6.7       3.9       1.1
14 O  s               0.2       1.7       0.5       0.2       0.1       4.4
14 O  pz              0.0       0.2       0.1       0.1       0.0       0.2
14 O  px              0.0       5.1       2.0       1.7       0.5       8.9
14 O  py              0.1       0.8       0.4       0.3       0.1       1.0
14 O  dz2             0.0       1.8       0.7       0.5       0.2       3.6
14 O  dyz             0.1       0.2       0.2       0.1       0.0       0.4
14 O  dx2y2           0.0       8.7       3.5       2.4       0.7      14.8
14 O  dxy             0.0       0.1       0.0       0.0       0.0       0.3
15 O  s               0.1       1.1       0.3       1.5       0.7       2.6
15 O  pz              0.0       0.1       0.0       0.1       0.0       0.2
15 O  px              0.0       0.0       0.0       0.0       0.0       0.2
15 O  py              0.0       3.0       1.0       4.8       2.6       9.2
15 O  dz2             0.0       0.4       0.1       0.6       0.3       1.3
15 O  dyz             0.0       2.1       0.6       3.3       1.6       5.7
15 O  dx2y2           0.0       1.6       0.5       2.4       1.2       4.5
15 O  dxy             0.0       2.1       0.6       3.0       1.4       5.2
16 O  s               0.0       0.2       0.5       2.2       4.2       0.0
16 O  pz              0.0       0.1       0.5       1.2       3.0       0.0
16 O  px              0.0       0.2       0.7       2.3       4.5       0.0
16 O  py              0.0       0.2       0.7       2.0       4.2       0.0
16 O  dz2             0.0       0.3       1.3       3.4       7.4       0.0
16 O  dxz             0.0       0.1       0.4       1.0       2.2       0.0
16 O  dyz             0.0       0.1       0.1       0.5       0.8       0.0
16 O  dx2y2           0.0       0.0       0.0       0.1       0.3       0.0
16 O  dxy             0.1       0.6       2.2       6.2      12.6       0.0
19 H  s               1.0       3.2       7.7       0.6       0.9       0.0
19 H  pz              1.3       3.0       6.7       0.6       0.7       0.0
19 H  px              0.3       0.7       1.5       0.1       0.1       0.0
19 H  py              0.3       0.4       0.9       0.1       0.1       0.0
20 H  s               0.1       3.6       1.9       4.5       2.7       0.8
20 H  px              0.0       1.1       0.5       1.5       0.8       0.3
20 H  py              0.0       3.1       1.6       3.8       2.3       0.6
21 H  s               0.0       3.8       1.4       1.1       0.3       6.9
21 H  px              0.0       4.3       1.6       1.2       0.4       7.7
21 H  py              0.0       0.1       0.0       0.0       0.0       0.1
22 H  s               0.0       2.1       0.6       3.2       1.6       5.9
22 H  pz              0.0       0.2       0.1       0.4       0.2       0.8
22 H  px              0.0       0.2       0.0       0.3       0.1       0.6
22 H  py              0.0       2.0       0.6       3.0       1.5       5.6
23 H  s               0.0       0.4       1.4       3.9       7.9       0.0
23 H  pz              0.0       0.0       0.1       0.3       0.7       0.0
23 H  px              0.0       0.2       0.9       2.3       4.6       0.0
23 H  py              0.0       0.2       0.7       2.0       3.8       0.0

                    306       307       308       309       310       311   
                  22.07400  22.15322  22.17085  22.17934  22.24389  22.27331
                   0.00000   0.00000   0.00000   0.00000   0.00000   0.00000
                  --------  --------  --------  --------  --------  --------
 0 C  s              64.0      26.2       0.1       2.9       1.2       5.1
 1 C  s               7.7       0.3       0.4      29.6      61.4       0.3
 3 C  s               2.2      34.5       8.7      15.9       5.9      32.4
 5 C  s               5.6      16.2      52.9       7.6      11.8       5.6
 7 C  s               4.5       6.6      37.5      31.4      19.3       0.4
 9 C  s              15.6      15.7       0.1      12.3       0.1      55.8

                    312       313       314       315       316       317   
                  43.66527  43.70200  43.73696  43.80929  43.82652  43.89877
                   0.00000   0.00000   0.00000   0.00000   0.00000   0.00000
                  --------  --------  --------  --------  --------  --------
 3 C  s               0.0       0.0       0.0       0.0       0.1       0.0
11 O  s               1.2       1.6       0.2       0.6       0.0      96.4
12 O  s              10.4      75.3       3.4       2.4       7.8       0.5
13 O  s              14.5       3.2      17.2      55.5       9.3       0.0
14 O  s               7.5       1.9      57.2      11.4      20.7       1.2
15 O  s               4.7       1.3       2.6      29.8      61.0       0.3
16 O  s              61.7      16.6      19.3       0.0       0.8       1.4



                      *****************************
                      * MAYER POPULATION ANALYSIS *
                      *****************************

  NA   - Mulliken gross atomic population
  ZA   - Total nuclear charge
  QA   - Mulliken gross atomic charge
  VA   - Mayer's total valence
  BVA  - Mayer's bonded valence
  FA   - Mayer's free valence

  ATOM       NA         ZA         QA         VA         BVA        FA
  0 C      6.2403     6.0000    -0.2403     4.0131     4.0131     0.0000
  1 C      5.9745     6.0000     0.0255     3.3745     3.3745    -0.0000
  2 H      0.8324     1.0000     0.1676     0.9521     0.9521     0.0000
  3 C      6.0638     6.0000    -0.0638     3.7713     3.7713    -0.0000
  4 H      0.8059     1.0000     0.1941     0.9421     0.9421    -0.0000
  5 C      6.0201     6.0000    -0.0201     3.5641     3.5641    -0.0000
  6 H      0.8292     1.0000     0.1708     0.9504     0.9504    -0.0000
  7 C      5.8916     6.0000     0.1084     3.4087     3.4087     0.0000
  8 H      0.8327     1.0000     0.1673     0.9566     0.9566     0.0000
  9 C      6.1723     6.0000    -0.1723     3.9564     3.9564     0.0000
 10 H      0.8407     1.0000     0.1593     0.9512     0.9512     0.0000
 11 O      8.2305     8.0000    -0.2305     1.7687     1.7687    -0.0000
 12 O      8.3851     8.0000    -0.3851     1.8986     1.8986    -0.0000
 13 O      8.4412     8.0000    -0.4412     1.8315     1.8315    -0.0000
 14 O      8.4452     8.0000    -0.4452     1.8386     1.8386     0.0000
 15 O      8.4422     8.0000    -0.4422     1.8343     1.8343    -0.0000
 16 O      8.4183     8.0000    -0.4183     1.8465     1.8465     0.0000
 17 H      0.8387     1.0000     0.1613     0.9520     0.9520     0.0000
 18 H      0.8604     1.0000     0.1396     0.9507     0.9507    -0.0000
 19 H      0.6793     1.0000     0.3207     0.9003     0.9003     0.0000
 20 H      0.6874     1.0000     0.3126     0.9124     0.9124    -0.0000
 21 H      0.6842     1.0000     0.3158     0.9070     0.9070     0.0000
 22 H      0.6860     1.0000     0.3140     0.9098     0.9098    -0.0000
 23 H      0.6979     1.0000     0.3021     0.9180     0.9180     0.0000

  Mayer bond orders larger than 0.100000
B(  0-C ,  1-C ) :   0.9461 B(  0-C , 16-O ) :   1.0260 B(  0-C , 17-H ) :   0.9603 
B(  0-C , 18-H ) :   0.9786 B(  1-C ,  2-H ) :   0.9264 B(  1-C ,  3-C ) :   0.8764 
B(  1-C , 11-O ) :   0.7629 B(  1-C , 16-O ) :  -0.1017 B(  3-C ,  4-H ) :   0.9942 
B(  3-C ,  5-C ) :   0.8302 B(  3-C , 15-O ) :   0.8659 B(  5-C ,  6-H ) :   0.9883 
B(  5-C ,  7-C ) :   0.8593 B(  5-C , 14-O ) :   0.8988 B(  7-C ,  8-H ) :   0.9503 
B(  7-C ,  9-C ) :   0.7670 B(  7-C , 13-O ) :   0.8873 B(  9-C , 10-H ) :   1.0092 
B(  9-C , 11-O ) :   0.9859 B(  9-C , 12-O ) :   1.0857 B( 12-O , 19-H ) :   0.8736 
B( 13-O , 20-H ) :   0.8722 B( 14-O , 21-H ) :   0.8791 B( 15-O , 22-H ) :   0.8811 
B( 16-O , 23-H ) :   0.8770 

-------
TIMINGS
-------

Total SCF time: 0 days 0 hours 0 min 35 sec 

Total time                  ....      35.185 sec
Sum of individual times     ....      35.148 sec  ( 99.9%)

SCF preparation             ....       0.076 sec  (  0.2%)
Fock matrix formation       ....      34.290 sec  ( 97.5%)
  Startup                   ....       0.011 sec  (  0.0% of F)
  Split-RI-J                ....       8.336 sec  ( 24.3% of F)
  XC integration            ....      25.794 sec  ( 75.2% of F)
    XC Preparation          ....       0.000 sec  (  0.0% of XC)
    Basis function eval.    ....       3.932 sec  ( 15.2% of XC)
    Density eval.           ....       9.812 sec  ( 38.0% of XC)
    XC-Functional eval.     ....       1.965 sec  (  7.6% of XC)
    XC-Potential eval.      ....       9.593 sec  ( 37.2% of XC)
Diagonalization             ....       0.000 sec  (  0.0%)
Density matrix formation    ....       0.265 sec  (  0.8%)
Total Energy calculation    ....       0.005 sec  (  0.0%)
Population analysis         ....       0.136 sec  (  0.4%)
Orbital Transformation      ....       0.043 sec  (  0.1%)
Orbital Orthonormalization  ....       0.000 sec  (  0.0%)
DIIS solution               ....       0.297 sec  (  0.8%)
  MO trafo                  ....       0.000 sec  (  0.0 % of DIIS)
  Orb grad                  ....       0.000 sec  (  0.0 % of DIIS)
  Energy W gradient         ....       0.000 sec  (  0.0 % of DIIS)
  DIIS error                ....       0.049 sec  ( 16.4 % of DIIS)
  DIIS work                 ....       0.224 sec  ( 75.3 % of DIIS)
  Form Q                    ....       0.000 sec  (  0.0 % of DIIS)
  Form QpQm                 ....       0.000 sec  (  0.0 % of DIIS)
  Exp/Cayley                ....       0.000 sec  (  0.0 % of DIIS)
  Orb update                ....       0.000 sec  (  0.0 % of DIIS)
  Wake-sleep                ....       0.002 sec  (  0.8 % of DIIS)
SOSCF solution              ....       0.036 sec  (  0.1%)
  MO trafo                  ....       0.028 sec  ( 76.6 % of SOSCF)
  Orb grad                  ....       0.000 sec  (  0.4 % of SOSCF)
  Rot update                ....       0.000 sec  (  0.1 % of SOSCF)
  Step                      ....       0.008 sec  ( 22.7 % of SOSCF)
Finished LeanSCF after  35.2 sec

Maximum memory used throughout the entire LEANSCF-calculation: 39.5 MB


-------------------------------------------------------------------------------
                          DFT DISPERSION CORRECTION                            
                                                                               
                                DFTD4 V3.4.0                                   
-------------------------------------------------------------------------------
The R2SCAN3C composite method is recognized
Using three-body term ABC
Active option DFTDOPT                   ...         5   

-------------------------   ----------------
Dispersion correction           -0.008090028
-------------------------   ----------------

------------------   -----------------
gCP correction             0.019686064
------------------   -----------------

-------------------------   --------------------
FINAL SINGLE POINT ENERGY      -687.079356334234
-------------------------   --------------------


------------------------------------------------------------------------------
                              ORCA PROPERTY CALCULATIONS
------------------------------------------------------------------------------

GBWName                                 ... sp.gbw
Number of atoms                         ...     24
Number of basis functions               ...    318
Max core memory                         ...   1024 MB

Electric properties:
Dipole moment                           ... YES
Quadrupole moment                       ...  NO
Static polarizability (Dipole/Dipole)   ...  NO
Static polarizability (Dipole/Quad.)    ...  NO
Static polarizability (Quad./Quad.)     ...  NO
Static polarizability (Velocity)        ...  NO

Atomic electric properties:
Dipole moment                           ...  NO
Quadrupole moment                       ...  NO
Static polarizability                   ...  NO

Choice of electric origin               ... Center of mass
Position of electric origin             ...    -0.000006    -0.000001     0.000005

General magnetic properties:
Magnetizability                         ...  NO

EPR properties:
g-Tensor (aka g-matrix)                 ...  NO
Zero-Field splitting spin-orbit         ...  NO
Zero-field splitting spin-spin          ...  NO
Hyperfine couplings                     ...  NO (   0 nuclei)
Quadrupole couplings                    ...  NO (   0 nuclei)
Contact density                         ...  NO (   0 nuclei)

NMR properties:
Chemical shifts                         ...  NO (   0 nuclei)
Spin-rotation constants                 ...  NO (   0 nuclei)
Spin-spin couplings                     ...  NO (   0 nuclei,    0 pairs)

Choice of magnetic origin               ... GIAO
Position of magnetic origin             ...     0.000000     0.000000     0.000000

Properties with geometric perturbations:
SCF Hessian                             ...  NO
IR spectrum                             ...  NO
VCD spectrum                            ...  NO
X-ray spectroscopy properties:
SCF XES/XAS/RIXS spectra                ...  NO


-------------
DIPOLE MOMENT
-------------

Method             : SCF
Type of density    : Electron Density
Multiplicity       :   1
Irrep              :   0
Energy             :  -687.0909523703166997 Eh
Relativity type    : 
Basis              : AO
                                X                 Y                 Z
Electronic contribution:      1.953549781      -0.206468954      -0.820846318
Nuclear contribution   :     -1.236494283      -0.178927493       0.795549761
                        -----------------------------------------
Total Dipole Moment    :      0.717055498      -0.385396447      -0.025296557
                        -----------------------------------------
Magnitude (a.u.)       :      0.814456214
Magnitude (Debye)      :      2.070183175



--------------------
Rotational spectrum 
--------------------
 
Rotational constants in cm-1:             0.038809             0.027471             0.017927 
Rotational constants in MHz :          1163.470739           823.562198           537.449614 

Dipole components along the rotational axes: 
x,y,z [a.u.] :     0.670464    -0.462403     0.001035 
x,y,z [Debye]:     1.704184    -1.175334     0.002631 

 

Dipole moment calculation done in   0.0 sec 

Maximum memory used throughout the entire PROP-calculation: 25.8 MB

--------------------------------
SUGGESTED CITATIONS FOR THIS RUN
--------------------------------

Below you find a list of papers that are relevant to this ORCA run
We neither can nor want to force you to cite these papers, but we appreciate if you do
You receive ORCA, which is the product of decades of hard work by many enthusiastic individuals, for free
The only thing we kindly ask in return is that you cite our papers,
We deeply appreciate it, if you show your appreciation for ORCA by not just citing the generic ORCA reference.

Please note that relegating all ORCA citations to the supporting information does *not* help us.
SI sections are not indexed - citations you put there will not count into any citation statistics
But we need these citations in order to attract the funding resources that allow us to do what we are doing

Therefore, if you are a happy ORCA user, please consider citing a few of the papers listed below in the main body of your paper

In addition to the list printed below, the program has created the file sp.bibtex that contains the list in bibtex format
You can import this file easily into all common literature databanks and citation aid programs


List of essential papers. We consider these as the minimum necessary citations

  1. Neese,F.
     Software update: the ORCA program system, version 5.0
     WIRES Comput. Molec. Sci., 2022 12(1)e1606
     doi.org/10.1002/wcms.1606
  2. Grimme,S.; Hansen,A.; Ehlert,S.; Mewes,J.
     r2SCAN-3c: A 'Swiss army knife' composite electronic-structure method
     J. Chem. Phys., 2021 154 064103
     doi.org/10.1063/5.0040021

List of papers to cite with high priority. The work reported in these papers was absolutely
necessary for this run to complete.
Our perspective: the developers of density functionals and basis sets usually get cited in chemistry papers
Good! But without the algorithms to do something with them, the functionals or basis sets would not do anything.
Hence, in our opinion, the algorithm design and method developments papers are equally worthy of getting cited

  1. Neese,F.
     An improvement of the resolution of the identity approximation for the formation of the Coulomb matrix
     J. Comp. Chem., 2003 24(14)1740-1747
     doi.org/10.1002/jcc.10318
  2. Neese,F.
     The SHARK Integral Generation and Digestion System
     J. Comp. Chem., 2022  1-16
     doi.org/10.1002/jcc.26942
  3. Lehtola,S.; Steigemann,C.; Oliveira,M.; Marques,M.
     Recent developments in Libxc - A comprehensive library of functionals for density functional theory
     Software X, 2018 7 
     doi.org/10.1016/j.softx.2017.11.002
  4. Caldeweyher,E.; Bannwarth,C.; Grimme,S.
     Extension of the D3 dispersion coefficient model
     J. Chem. Phys., 2017 147 034112
     doi.org/10.1063/1.4993215
  5. Caldeweyher,E.; Ehlert,S.; Hansen,A.; Neugebauer,H.; Spicher,S.; Bannwarth,C.; Grimme,S.
     A generally applicable atomic-charge dependent London dispersion correction
     J. Chem. Phys., 2019 150 154122
     doi.org/10.1063/1.5090222
  6. Caldeweyher,E.; Mewes,J.; Ehlert,S.; Grimme,S.
     Extension and evaluation of the D4 London-dispersion model for periodic systems
     Phys. Chem. Chem. Phys., 2020 22(16)8499-8512
     doi.org/10.1039/D0CP00502A
  7. Wittmann,L.; Gordiy,I.; Friede,M.; Helmich-Paris,B.; Grimme,S.; Hansen,A.; Bursch,M.
     Extension of the D3 and D4 London Dispersion Corrections to the full Actinides Series
     Phys. Chem. Chem. Phys., 2024 26(32)21379-21394
     doi.org/https://doi.org/10.1039/D4CP01514B 

List of suggested additional citations. These are papers that are important in the 'surrounding' of 
of this run, or papers that preceded the highly important papers. If you like your results we are grateful for a citation.

  1. Neese,F.
     The ORCA program system
     WIRES Comput. Molec. Sci., 2012 2(1)73-78
     doi.org/10.1002/wcms.81
  2. Neese,F.
     Software update: the ORCA program system, version 4.0
     WIRES Comput. Molec. Sci., 2018 8(1)1-6
     doi.org/10.1002/wcms.1327
  3. Neese,F.; Wennmohs,F.; Becker,U.; Riplinger,C.
     The ORCA quantum chemistry program package
     J. Chem. Phys., 2020 152 Art. No. L224108
     doi.org/10.1063/5.0004608

List of optional additional citations

  1. Neese,F.
     Approximate second-order SCF convergence for spin unrestricted wavefunctions
     Chem. Phys. Lett., 2000 325(1-3)93-98
     doi.org/10.1016/s0009-2614(00)00662-x

Timings for individual modules:

Sum of individual times          ...       36.806 sec (=   0.613 min)
Startup calculation              ...        1.342 sec (=   0.022 min)   3.6 %
SCF iterations                   ...       35.379 sec (=   0.590 min)  96.1 %
Property calculations            ...        0.085 sec (=   0.001 min)   0.2 %
                             ****ORCA TERMINATED NORMALLY****
TOTAL RUN TIME: 0 days 0 hours 0 minutes 37 seconds 124 msec
