12
 energy: -22.775470718170 gnorm: 0.064114168522 xtb: 6.7.1 (edcfbbe)
C           -2.20180702519977        0.45943992258270        0.21602415993754
O           -1.17713470340940       -0.55955268624194        0.33112068093615
S            0.26905345378198       -0.11966957810742       -0.33300186629059
O            0.82271875069405        1.00193592006657        0.42751188703720
O            0.11459620776689       -0.01015746364152       -1.78430170804970
C            1.13737527107171       -1.63779776173115        0.08301921474981
H           -3.08205750592132        0.02824478276065        0.69287685118091
H           -2.41153204374782        0.67404624828728       -0.83636034502246
H           -1.89681111673818        1.36946636333638        0.74171649184287
H            0.62895859202411       -2.47095583812749       -0.40407996970393
H            2.15253651198864       -1.52240570345196       -0.30236357425943
H            1.14291710229269       -1.74649710282384        1.16840089245735
12
 energy: -22.778798145853 gnorm: 0.034768962265 xtb: 6.7.1 (edcfbbe)
C           -2.19511588996214        0.45209452060959        0.21696421653804
O           -1.18677980821625       -0.55367347036661        0.33187082280428
S            0.25414189850170       -0.12572012107263       -0.32521776898179
O            0.79439337557033        0.99071726943246        0.42139583701459
O            0.09652478199878       -0.00647043310517       -1.75914862781838
C            1.14252181143499       -1.63255784646434        0.07890021599455
H           -3.08580576880422        0.03942415120636        0.68952746480898
H           -2.37997852285343        0.66514412405134       -0.83700000973190
H           -1.86795960046793        1.35695817312808        0.73136015821187
H            0.63177498445602       -2.45555737469408       -0.40393840174302
H            2.15330862316023       -1.52722811467529       -0.30025886205604
H            1.14178760978550       -1.73703377514145        1.15610766977454
12
 energy: -22.780055557389 gnorm: 0.006859442625 xtb: 6.7.1 (edcfbbe)
C           -2.17560389240156        0.44042648168334        0.21567784980078
O           -1.18625678359709       -0.55823972581620        0.33416807890365
S            0.24000470107883       -0.13013857250927       -0.31835516740713
O            0.76253373714993        0.98121927229000        0.41107790298190
O            0.07735118160480        0.00240730736510       -1.73117137946362
C            1.14230728308487       -1.62780211971895        0.07668542630878
H           -3.07771141626531        0.04975000664199        0.68308975875118
H           -2.35343112198859        0.65786428533717       -0.83832316390956
H           -1.84326359800530        1.34765674782481        0.72202373252290
H            0.62765090876413       -2.44415405208989       -0.40441266671738
H            2.14932257843059       -1.52444061372903       -0.30016043142097
H            1.13590991674828       -1.72845191437080        1.15026277446519
12
 energy: -22.780109814046 gnorm: 0.004380338501 xtb: 6.7.1 (edcfbbe)
C           -2.17186805197763        0.43860372889392        0.21518675388459
O           -1.18429394444006       -0.56402061609331        0.33644708260755
S            0.23751209549509       -0.12991719827325       -0.31741972565610
O            0.75806027425699        0.98307652587798        0.41046521449211
O            0.07353335537561        0.00574662486916       -1.72954887230051
C            1.14098551437399       -1.62708725422327        0.07669957647143
H           -3.07670411505942        0.05261454002650        0.68201552098443
H           -2.35003577398022        0.65654678966804       -0.83996816100653
H           -1.83928855476648        1.34772059168647        0.72072059585375
H            0.62661016376394       -2.44533163936872       -0.40467701380936
H            2.14886495446337       -1.52269398438803       -0.30094148932456
H            1.13543757709840       -1.72916100576723        1.15158323261892
12
 energy: -22.780132834123 gnorm: 0.002403741002 xtb: 6.7.1 (edcfbbe)
C           -2.16894370696253        0.43738288188946        0.21458537807266
O           -1.18374213347498       -0.56962727310042        0.33946103107970
S            0.23360200998025       -0.13023645570388       -0.31554521599429
O            0.75295496185561        0.98509428958914        0.41004731834223
O            0.06889538610818        0.00971882240469       -1.72740033720746
C            1.14011487142570       -1.62617063566849        0.07640102061791
H           -3.07632693852877        0.05663350045468        0.68091714216391
H           -2.34514104420905        0.65389510383869       -0.84206929191452
H           -1.83361157018329        1.34725322020891        0.71874003917660
H            0.62650564302628       -2.44623776106721       -0.40489116433510
H            2.14869543913251       -1.52142818486875       -0.30177527192177
H            1.13581057643367       -1.73018040506858        1.15209206673584
12
 energy: -22.780137123557 gnorm: 0.001345705019 xtb: 6.7.1 (edcfbbe)
C           -2.16875979763108        0.43745650748607        0.21434840309628
O           -1.18425143490375       -0.57070210970718        0.34063580052109
S            0.23210556675385       -0.13086667123657       -0.31443001080743
O            0.75179578111274        0.98541549138807        0.41002264856367
O            0.06764379683754        0.01098796326624       -1.72641432732149
C            1.14026914558214       -1.62607925026374        0.07619318380068
H           -3.07651062464418        0.05822955044072        0.68070964047513
H           -2.34359619686072        0.65254617714663       -0.84264852676601
H           -1.83186687575129        1.34705397326732        0.71757077808025
H            0.62687330931993       -2.44630344093451       -0.40504186812986
H            2.14870977944084       -1.52106115416401       -0.30221206074347
H            1.13640104534757       -1.73057993378077        1.15182905404688
12
 energy: -22.780138931802 gnorm: 0.000449992464 xtb: 6.7.1 (edcfbbe)
C           -2.16942620206808        0.43793516120590        0.21406371053310
O           -1.18505606853631       -0.57053531681259        0.34194471389557
S            0.23092897554087       -0.13190274294751       -0.31286551123295
O            0.75197630059353        0.98530253475408        0.41006499268693
O            0.06721523304112        0.01233345957057       -1.72514059187058
C            1.14065329513342       -1.62641534790280        0.07598411872649
H           -3.07685118920496        0.05960149259286        0.68098703820826
H           -2.34283518810151        0.65055220927947       -0.84309927047251
H           -1.83096390192091        1.34719964349902        0.71561617464514
H            0.62735995601333       -2.44626170970890       -0.40529600692491
H            2.14843470512197       -1.52046728145755       -0.30296715801938
H            1.13737757899111       -1.73124499916429        1.15127050464056
12
 energy: -22.780139315581 gnorm: 0.000109828233 xtb: 6.7.1 (edcfbbe)
C           -2.16958129436991        0.43787537446658        0.21410178440600
O           -1.18464240392015       -0.56981775028958        0.34169455040144
S            0.23170079873541       -0.13158189628230       -0.31314301593916
O            0.75296639186018        0.98516673572852        0.41011326064080
O            0.06790755451001        0.01216477865279       -1.72534445988673
C            1.14047343400969       -1.62656938878872        0.07607538271565
H           -3.07669822922361        0.05884470854384        0.68135360347138
H           -2.34384710969214        0.65060067047765       -0.84299880349904
H           -1.83199840367094        1.34762444386103        0.71559117411251
H            0.62706467229353       -2.44630473129080       -0.40530083537890
H            2.14824670318452       -1.52055525755277       -0.30296082947539
H            1.13722138088700       -1.73135058461799        1.15138090324716
12
 energy: -22.780139404728 gnorm: 0.000058753154 xtb: 6.7.1 (edcfbbe)
C           -2.16967006748426        0.43780067354242        0.21403819246397
O           -1.18431573289521       -0.56940035480768        0.34197682422719
S            0.23199869276619       -0.13137953202554       -0.31299609245873
O            0.75370107371064        0.98516935192392        0.41021705629243
O            0.06812159348621        0.01254755827681       -1.72515182018944
C            1.14032510989992       -1.62666937562998        0.07605921134097
H           -3.07656379198915        0.05860688729428        0.68170600496849
H           -2.34439756406117        0.64997818358122       -0.84315772295250
H           -1.83253212320989        1.34806975159052        0.71500499099270
H            0.62679713535282       -2.44631764446743       -0.40539066299411
H            2.14809400481397       -1.52068965411883       -0.30311680692093
H            1.13725516421349       -1.73161874225145        1.15137354004567
