
                                 *****************
                                 * O   R   C   A *
                                 *****************

                                            #,                                       
                                            ###                                      
                                            ####                                     
                                            #####                                    
                                            ######                                   
                                           ########,                                 
                                     ,,################,,,,,                         
                               ,,#################################,,                 
                          ,,##########################################,,             
                       ,#########################################, ''#####,          
                    ,#############################################,,   '####,        
                  ,##################################################,,,,####,       
                ,###########''''           ''''###############################       
              ,#####''   ,,,,##########,,,,          '''####'''          '####       
            ,##' ,,,,###########################,,,                        '##       
           ' ,,###''''                  '''############,,,                           
         ,,##''                                '''############,,,,        ,,,,,,###''
      ,#''                                            '''#######################'''  
     '                                                          ''''####''''         
             ,#######,   #######,   ,#######,      ##                                
            ,#'     '#,  ##    ##  ,#'     '#,    #''#        ,####,   ,####,        
            ##       ##  ##   ,#'  ##            #'  '#       #'       #'  '#        
            ##       ##  #######   ##           ,######,      #####,   #    #        
            '#,     ,#'  ##    ##  '#,     ,#' ,#      #,     #,   #   #,  ,#        
             '#######'   ##     ##  '#######'  #'      '#     '####' # '####'        



                #########################################################
                #                        -***-                          #
                #          Department of theory and spectroscopy        #
                #                                                       #
                #                      Frank Neese                      #
                #                                                       #
                #     Directorship, Architecture, Infrastructure        #
                #                    SHARK, DRIVERS                     #
                #        Core code/Algorithms in most modules           #
                #                                                       #
                #        Max Planck Institute fuer Kohlenforschung      #
                #                Kaiser Wilhelm Platz 1                 #
                #                 D-45470 Muelheim/Ruhr                 #
                #                      Germany                          #
                #                                                       #
                #                  All rights reserved                  #
                #                        -***-                          #
                #########################################################


                         Program Version 6.0.1  -  RELEASE   -


 With contributions from (in alphabetic order):
[Max-Planck-Institut fuer Kohlenforschung]                               
  Daniel Aravena         : Magnetic Suceptibility                        
  Michael Atanasov       : Ab Initio Ligand Field Theory (pilot matlab implementation)
  Alexander A. Auer      : GIAO ZORA, VPT2 properties, NMR spectrum      
  Ute Becker             : All parallelization in ORCA, NUMFREQ, NUMCALC 
  Giovanni Bistoni       : ED, misc. LED, open-shell LED, HFLD           
  Martin Brehm           : Molecular dynamics                            
  Dmytro Bykov           : pre 5.0 version of the SCF Hessian            
  Marcos Casanova-Páez   : Triplet and SCS-CIS(D). UHF-(DLPNO)-IP/EA/STEOM-CCSD. UHF-CVS-IP/STEOM-CCSD   
  Vijay G. Chilkuri      : MRCI spin determinant printing, contributions to CSF-ICE 
  Pauline Colinet        : FMM embedding                                 
  Dipayan Datta          : RHF DLPNO-CCSD density                        
  Achintya Kumar Dutta   : EOM-CC, STEOM-CC                              
  Nicolas Foglia         : Exact transition moments, OPA infrastructure, MCD improvements    
  Dmitry Ganyushin       : Spin-Orbit,Spin-Spin,Magnetic field MRCI      
  Miquel Garcia-Rates    : C-PCM and meta-GGA Hessian, CCSD/C-PCM, Gaussian charge scheme 
  Tiago L. C. Gouveia    : GS-ROHF, GS-ROCIS                             
  Yang Guo               : DLPNO-NEVPT2, F12-NEVPT2, CIM, IAO-localization        
  Andreas Hansen         : Spin unrestricted coupled pair/coupled cluster methods 
  Ingolf Harden          : AUTO-CI MPn and infrastructure                
  Benjamin Helmich-Paris : MC-RPA, TRAH-(SCF,CASSCF), AVAS, COSX integrals, SCF dyn. polar. 
  Lee Huntington         : MR-EOM, pCC                                   
  Robert Izsak           : Overlap fitted RIJCOSX, COSX-SCS-MP3, EOM     
  Riya Kayal             : Wick's Theorem for AUTO-CI, AUTO-CI UHF-CCSDT 
  Emily Kempfer          : AUTO-CI, RHF CISDT and CCSDT                  
  Christian Kollmar      : KDIIS, OOCD, Brueckner-CCSD(T), CCSD density, CASPT2, CASPT2-K, improved NEVPT2 
  Axel Koslowski         : Symmetry handling                             
  Simone Kossmann        : meta-GGA functionals, TD-DFT gradient, OOMP2, (MP2 Hessian; deprecated post 5.0) 
  Lucas Lang             : DCDCAS                                        
  Marvin Lechner         : AUTO-CI (C++ implementation), FIC-MRCC        
  Spencer Leger          : CASSCF response                               
  Dagmar Lenk            : GEPOL surface, SMD, ORCA-2-JSON               
  Dimitrios Liakos       : Extrapolation schemes; Compound Job, initial MDCI parallelization 
  Dimitrios Manganas     : Further ROCIS development; embedding schemes. LFT, Crystal Embedding 
  Dimitrios Pantazis     : SARC Basis sets                               
  Anastasios Papadopoulos: AUTO-CI, single reference methods and gradients 
  Taras Petrenko         : pre 6.0 DFT Hessian and TD-DFT gradient, (ASA, deprecated), ECA, 1-Electron XAS/XES, NRVS 
  Peter Pinski           : DLPNO-MP2, DLPNO-MP2 Gradient                 
  Christoph Reimann      : Effective Core Potentials                     
  Marius Retegan         : Local ZFS, SOC                                
  Christoph Riplinger    : Optimizer, TS searches, QM/MM, DLPNO-CCSD(T), (RO)-DLPNO pert. Triples 
  Michael Roemelt        : Original ROCIS implementation                 
  Masaaki Saitow         : Open-shell DLPNO-CCSD energy and density      
  Barbara Sandhoefer     : DKH picture change effects                    
  Kantharuban Sivalingam : CASSCF convergence/infrastructure, NEVPT2 and variants, FIC-MRCI 
  Bernardo de Souza      : ESD, SOC TD-DFT                               
  Georgi L. Stoychev     : AutoAux, RI-MP2 NMR, DLPNO-MP2 response, X2C  
  Van Anh Tran           : RI-MP2 g-tensors                              
  Willem Van den Heuvel  : Paramagnetic NMR                              
  Zikuan Wang            : NOTCH, Electric field optimization            
  Frank Wennmohs         : Technical directorship and infrastructure     
  Hang Xu                : AUTO-CI-Response properties                   
                                                                         
[FACCTs GmbH]                                                            
  Markus Bursch, Miquel Garcia-Rates, Christoph Riplinger, Bernardo de Souza, Georgi L. Stoychev 
                                                                 
  APM, Basis sets (HGBS, AHGBS, def-TZVP (Ac-Lr), def2-XVPD (La-Lu)), CI-OPT, improved COSX, DLPNO-Multilevel,           
  DOCKER, DRACO, updates on ESD, GOAT, IRC, LR-CPCM, MBIS, meta-GGA TD-DFT gradient, ML-optimized integration grids, 
  MM, NACMEs, nearIR, NEB, NEB-TS, NL-DFT gradient (VV10), 2- and 3-layer-ONIOM, interface openCOSMO-RS, QMMM,   
  Crystal-QMMM, SF, symmetry and pop. for TD-DFT, r2SCAN hybrids, SOLVATOR                                   
                                                                         
[Other institutions]                                                     
  V. Asgeirsson          : NEB                                           
  Christoph Bannwarth    : sTDA-DFT, sTD-DFT, PBEh-3c, B97-3c, D3        
  Sebastian Ehlert       : rSCAN, r2SCAN, r2SCAN-3c, D4, dhf basis sets  
  Marvin Friede          : D4 for Fr, Ra, Ac-Lr                          
  Lars Goerigk           : TD-DFT with DH, B97 family of functionals     
  Stefan Grimme          : VdW corrections, initial TS optimization, DFT functionals, gCP, sTDA/sTD-DF 
  Waldemar Hujo          : DFT-NL                                        
  H. Jonsson             : NEB                                           
  Holger Kruse           : gCP                                           
  Marcel Mueller         : wB97X-3c, vDZP basis set                      
  Hagen Neugebauer       : wr2SCAN                                       
  Tobias Risthaus        : range-separated hybrid DFT                    
  Lukas Wittmann         : regularized MP2, r2SCAN double-hybrids, wr2SCAN        
                                                                         
We gratefully acknowledge several colleagues who have allowed us to      
interface, adapt or use parts of their codes:                            
  Ed Valeev, F. Pavosevic, A. Kumar             : LibInt (2-el integral package), F12 methods 
  Garnet Chan, S. Sharma, J. Yang, R. Olivares  : DMRG                   
  Ulf Ekstrom                                   : XCFun DFT Library      
  Mihaly Kallay                                 : mrcc  (arbitrary order and MRCC methods)
  Frank Weinhold                                : gennbo (NPA and NBO analysis)           
  Simon Mueller                                 : openCOSMO-RS                            
  Christopher J. Cramer and Donald G. Truhlar   : smd solvation model                     
  S Lehtola, MJT Oliveira, MAL Marques          : LibXC Library                           
  Liviu Ungur et al                             : ANISO software                          


 Your calculation uses the libint2 library for the computation of 2-el integrals
 For citations please refer to: http://libint.valeyev.net

 Your ORCA version has been built with support for libXC version: 6.2.2
 For citations please refer to: https://libxc.gitlab.io

 This ORCA versions uses:
   CBLAS   interface :  Fast vector & matrix operations
   LAPACKE interface :  Fast linear algebra routines
   SCALAPACK package :  Parallel linear algebra routines
   Shared memory     :  Shared parallel matrices
   BLAS/LAPACK       :  OpenBLAS 0.3.27  USE64BITINT DYNAMIC_ARCH NO_AFFINITY Zen SINGLE_THREADED
        Core in use  :  Zen
   Copyright (c) 2011-2014, The OpenBLAS Project


Your calculation utilizes the geometrical counterpoise correction gCP
Please cite in your paper:
H.Kruse, S. Grimme J.Chem.Phys., 136, (2012), 154101 
   

Your calculation utilizes the atom-pairwise dispersion correction
based on EEQ partial charges (D4)


================================================================================

----- Orbital basis set information -----
Your calculation utilizes the basis: def2-SV(P)
   F. Weigend and R. Ahlrichs, Phys. Chem. Chem. Phys. 7, 3297 (2005).

----- AuxJ basis set information -----
Your calculation utilizes the auxiliary basis: def2/J
   F. Weigend, Phys. Chem. Chem. Phys. 8, 1057 (2006).

================================================================================
                                        WARNINGS
                       Please study these warnings very carefully!
================================================================================


================================================================================
                                       INPUT FILE
================================================================================
NAME = sp.inp
|  1> ! pbe def2-sv(p) def2/J RI DEFGRID1 loosescf d4 GCP(DFT/SV(P)) printgap
|  2> %output
|  3>     printlevel normal
|  4> end
|  5> * xyz 0 1
|  6> C -2.3683319969 -0.8481249032 -0.1468786287
|  7> C -1.0539862667 -0.267879615 0.3943681238
|  8> H -1.2318290428 0.1261438059 1.408226422
|  9> C -0.5284252514 0.8612423599 -0.4936091669
| 10> H -0.4061476714 0.5095150419 -1.5233526662
| 11> C 0.8308341629 1.3439892679 0.0330652682
| 12> H 0.6735771747 1.8291594856 1.0133556526
| 13> C 1.7956443567 0.1731140835 0.2721238291
| 14> H 2.6458746638 0.2996869106 -0.4110560754
| 15> C 1.136515882 -1.1811798466 -0.0531711265
| 16> H 1.7356198127 -1.9882524314 0.4068792772
| 17> O -0.1238045176 -1.3456268309 0.5250058454
| 18> O 1.1116097172 -1.3280488613 -1.4417763731
| 19> O 2.1951401948 0.2247758622 1.6177420587
| 20> O 1.4155658664 2.2493317461 -0.8638381767
| 21> O -1.4332777872 1.9349408371 -0.5703500375
| 22> O -2.9340734141 -1.765767998 0.7471375742
| 23> H -2.1706626074 -1.3203822842 -1.1207986976
| 24> H -3.097068136 -0.0472490512 -0.2857425615
| 25> H 0.6679089563 -2.1564728638 -1.6627445136
| 26> H 2.8972486338 -0.4166240616 1.7729931472
| 27> H 0.7095351599 2.8022939225 -1.2247250941
| 28> H -1.6185601994 2.2557990429 0.3216706978
| 29> H -2.2375511691 -2.3783116852 1.0140250644
| 30> *
| 31> 
| 32>                          ****END OF INPUT****
================================================================================

                       ****************************
                       * Single Point Calculation *
                       ****************************

---------------------------------
CARTESIAN COORDINATES (ANGSTROEM)
---------------------------------
  C     -2.368332   -0.848125   -0.146879
  C     -1.053986   -0.267880    0.394368
  H     -1.231829    0.126144    1.408226
  C     -0.528425    0.861242   -0.493609
  H     -0.406148    0.509515   -1.523353
  C      0.830834    1.343989    0.033065
  H      0.673577    1.829159    1.013356
  C      1.795644    0.173114    0.272124
  H      2.645875    0.299687   -0.411056
  C      1.136516   -1.181180   -0.053171
  H      1.735620   -1.988252    0.406879
  O     -0.123805   -1.345627    0.525006
  O      1.111610   -1.328049   -1.441776
  O      2.195140    0.224776    1.617742
  O      1.415566    2.249332   -0.863838
  O     -1.433278    1.934941   -0.570350
  O     -2.934073   -1.765768    0.747138
  H     -2.170663   -1.320382   -1.120799
  H     -3.097068   -0.047249   -0.285743
  H      0.667909   -2.156473   -1.662745
  H      2.897249   -0.416624    1.772993
  H      0.709535    2.802294   -1.224725
  H     -1.618560    2.255799    0.321671
  H     -2.237551   -2.378312    1.014025

----------------------------
CARTESIAN COORDINATES (A.U.)
----------------------------
  NO LB      ZA    FRAG     MASS         X           Y           Z
   0 C     6.0000    0    12.011   -4.475499   -1.602724   -0.277560
   1 C     6.0000    0    12.011   -1.991745   -0.506219    0.745248
   2 H     1.0000    0     1.008   -2.327820    0.238377    2.661162
   3 C     6.0000    0    12.011   -0.998579    1.627512   -0.932786
   4 H     1.0000    0     1.008   -0.767508    0.962844   -2.878719
   5 C     6.0000    0    12.011    1.570049    2.539772    0.062484
   6 H     1.0000    0     1.008    1.272876    3.456610    1.914965
   7 C     6.0000    0    12.011    3.393276    0.327138    0.514240
   8 H     1.0000    0     1.008    4.999978    0.566326   -0.776783
   9 C     6.0000    0    12.011    2.147704   -2.232106   -0.100479
  10 H     1.0000    0     1.008    3.279846   -3.757253    0.768890
  11 O     8.0000    0    15.999   -0.233957   -2.542866    0.992117
  12 O     8.0000    0    15.999    2.100638   -2.509649   -2.724562
  13 O     8.0000    0    15.999    4.148214    0.424765    3.057089
  14 O     8.0000    0    15.999    2.675032    4.250621   -1.632418
  15 O     8.0000    0    15.999   -2.708502    3.656508   -1.077805
  16 O     8.0000    0    15.999   -5.544595   -3.336818    1.411885
  17 H     1.0000    0     1.008   -4.101958   -2.495161   -2.118003
  18 H     1.0000    0     1.008   -5.852611   -0.089288   -0.539975
  19 H     1.0000    0     1.008    1.262165   -4.075143   -3.142132
  20 H     1.0000    0     1.008    5.475006   -0.787305    3.350471
  21 H     1.0000    0     1.008    1.340827    5.295568   -2.314395
  22 H     1.0000    0     1.008   -3.058636    4.262842    0.607870
  23 H     1.0000    0     1.008   -4.228359   -4.494358    1.916230

--------------------------------
INTERNAL COORDINATES (ANGSTROEM)
--------------------------------
 C      0   0   0     0.000000000000     0.00000000     0.00000000
 C      1   0   0     1.535297150413     0.00000000     0.00000000
 H      2   1   0     1.102175647552   108.73932878     0.00000000
 C      2   1   3     1.529586376706   111.62176176   239.71715768
 H      4   2   1     1.095004834304   110.31554051   303.82158059
 C      4   2   1     1.535583502495   109.70018280   183.80229827
 H      6   4   2     1.105029021441   108.44063111   292.82255991
 C      6   4   2     1.535889450138   111.70141873    50.03008801
 H      8   6   4     1.098019597996   107.55944988   116.60439781
 C      8   6   4     1.540902074567   111.62048921   358.87900036
 H     10   8   6     1.105413067980   108.78397816   196.66063334
 O     10   8   6     1.396330523597   113.71484049   311.22741069
 O     10   8   6     1.396572717551   108.05676900    76.92191212
 O      8   6   4     1.404618910548   107.44167631   237.13169437
 O      6   4   2     1.402138351727   110.65478609   171.99507275
 O      4   2   1     1.406227468337   111.97606415    60.88808747
 O      1   2   3     1.400498900970   111.61776297   307.54594224
 H      1   2   3     1.100282019330   108.69110641   184.94686002
 H      1   2   3     1.091669218481   109.81923164    66.03275323
 H     13  10   8     0.965392983327   109.02758628   182.32143461
 H     14   8   6     0.963562671987   109.70110537   188.09985835
 H     15   6   4     0.966688105958   107.67189955    38.08066451
 H     16   4   2     0.965909184502   109.06641753    56.86679463
 H     17   1   2     0.965184924734   107.50758037   311.39411254

---------------------------
INTERNAL COORDINATES (A.U.)
---------------------------
 C      0   0   0     0.000000000000     0.00000000     0.00000000
 C      1   0   0     2.901291148470     0.00000000     0.00000000
 H      2   1   0     2.082810125351   108.73932878     0.00000000
 C      2   1   3     2.890499350151   111.62176176   239.71715768
 H      4   2   1     2.069259252154   110.31554051   303.82158059
 C      4   2   1     2.901832275483   109.70018280   183.80229827
 H      6   4   2     2.088202220559   108.44063111   292.82255991
 C      6   4   2     2.902410432739   111.70141873    50.03008801
 H      8   6   4     2.074956329891   107.55944988   116.60439781
 C      8   6   4     2.911882920123   111.62048921   358.87900036
 H     10   8   6     2.088927963339   108.78397816   196.66063334
 O     10   8   6     2.638682282033   113.71484049   311.22741069
 O     10   8   6     2.639139962278   108.05676900    76.92191212
 O      8   6   4     2.654345063463   107.44167631   237.13169437
 O      6   4   2     2.649657486633   110.65478609   171.99507275
 O      4   2   1     2.657384797155   111.97606415    60.88808747
 O      1   2   3     2.646559373690   111.61776297   307.54594224
 H      1   2   3     2.079231686611   108.69110641   184.94686002
 H      1   2   3     2.062955851762   109.81923164    66.03275323
 H     13  10   8     1.824328350098   109.02758628   182.32143461
 H     14   8   6     1.820869562924   109.70110537   188.09985835
 H     15   6   4     1.826775777179   107.67189955    38.08066451
 H     16   4   2     1.825303828948   109.06641753    56.86679463
 H     17   1   2     1.823935176337   107.50758037   311.39411254

---------------------
BASIS SET INFORMATION
---------------------
There are 3 groups of distinct atoms

 Group   1 Type C   : 7s4p1d contracted to 3s2p1d pattern {511/31/1}
 Group   2 Type H   : 4s contracted to 2s pattern {31}
 Group   3 Type O   : 7s4p1d contracted to 3s2p1d pattern {511/31/1}

Atom   0C    basis set group =>   1
Atom   1C    basis set group =>   1
Atom   2H    basis set group =>   2
Atom   3C    basis set group =>   1
Atom   4H    basis set group =>   2
Atom   5C    basis set group =>   1
Atom   6H    basis set group =>   2
Atom   7C    basis set group =>   1
Atom   8H    basis set group =>   2
Atom   9C    basis set group =>   1
Atom  10H    basis set group =>   2
Atom  11O    basis set group =>   3
Atom  12O    basis set group =>   3
Atom  13O    basis set group =>   3
Atom  14O    basis set group =>   3
Atom  15O    basis set group =>   3
Atom  16O    basis set group =>   3
Atom  17H    basis set group =>   2
Atom  18H    basis set group =>   2
Atom  19H    basis set group =>   2
Atom  20H    basis set group =>   2
Atom  21H    basis set group =>   2
Atom  22H    basis set group =>   2
Atom  23H    basis set group =>   2
---------------------------------
AUXILIARY/J BASIS SET INFORMATION
---------------------------------
There are 3 groups of distinct atoms

 Group   1 Type C   : 12s5p4d2f1g contracted to 6s4p3d1f1g pattern {711111/2111/211/2/1}
 Group   2 Type H   : 5s2p1d contracted to 3s1p1d pattern {311/2/1}
 Group   3 Type O   : 12s5p4d2f1g contracted to 6s4p3d1f1g pattern {711111/2111/211/2/1}

Atom   0C    basis set group =>   1
Atom   1C    basis set group =>   1
Atom   2H    basis set group =>   2
Atom   3C    basis set group =>   1
Atom   4H    basis set group =>   2
Atom   5C    basis set group =>   1
Atom   6H    basis set group =>   2
Atom   7C    basis set group =>   1
Atom   8H    basis set group =>   2
Atom   9C    basis set group =>   1
Atom  10H    basis set group =>   2
Atom  11O    basis set group =>   3
Atom  12O    basis set group =>   3
Atom  13O    basis set group =>   3
Atom  14O    basis set group =>   3
Atom  15O    basis set group =>   3
Atom  16O    basis set group =>   3
Atom  17H    basis set group =>   2
Atom  18H    basis set group =>   2
Atom  19H    basis set group =>   2
Atom  20H    basis set group =>   2
Atom  21H    basis set group =>   2
Atom  22H    basis set group =>   2
Atom  23H    basis set group =>   2
------------------------------------------------------------------------------
                             ORCA STARTUP CALCULATIONS
                           -- RI-GTO INTEGRALS CHOSEN --
------------------------------------------------------------------------------
------------------------------------------------------------------------------
                   ___                                                        
                  /   \      - P O W E R E D   B Y -                         
                 /     \                                                     
                 |  |  |   _    _      __       _____    __    __             
                 |  |  |  | |  | |    /  \     |  _  \  |  |  /  |          
                  \  \/   | |  | |   /    \    | | | |  |  | /  /          
                 / \  \   | |__| |  /  /\  \   | |_| |  |  |/  /          
                |  |  |   |  __  | /  /__\  \  |    /   |      \           
                |  |  |   | |  | | |   __   |  |    \   |  |\   \          
                \     /   | |  | | |  |  |  |  | |\  \  |  | \   \       
                 \___/    |_|  |_| |__|  |__|  |_| \__\ |__|  \__/        
                                                                              
                      - O R C A' S   B I G   F R I E N D -                    
                                      &                                       
                       - I N T E G R A L  F E E D E R -                       
                                                                              
 v1 FN, 2020, v2 2021, v3 2022-2024                                           
------------------------------------------------------------------------------


----------------------
SHARK INTEGRAL PACKAGE
----------------------

Number of atoms                             ...     24
Number of basis functions                   ...    192
Number of shells                            ...     96
Maximum angular momentum                    ...      2
Integral batch strategy                     ... SHARK/LIBINT Hybrid
RI-J (if used) integral strategy            ... SPLIT-RIJ (Revised 2003 algorithm where possible)
Printlevel                                  ...      1
Contraction scheme used                     ... SEGMENTED contraction
Prescreening option                         ... SCHWARTZ
   Thresh                                   ... 1.000e-09
   Tcut                                     ... 1.000e-10
   Tpresel                                  ... 1.000e-10 
Coulomb Range Separation                    ... NOT USED
Exchange Range Separation                   ... NOT USED
Multipole approximations                    ... NOT USED
Finite Nucleus Model                        ... NOT USED
CABS basis                                  ... NOT available
Auxiliary Coulomb fitting basis             ... AVAILABLE
   # of basis functions in Aux-J            ...    720
   # of shells in Aux-J                     ...    240
   Maximum angular momentum in Aux-J        ...      4
Auxiliary J/K fitting basis                 ... NOT available
Auxiliary Correlation fitting basis         ... NOT available
Auxiliary 'external' fitting basis          ... NOT available

Checking pre-screening integrals            ... done (  0.0 sec) Dimension = 96
Check shell pair data                       ... done (  0.0 sec)
Shell pair information
Shell pair cut-off parameter TPreSel        ...   1.0e-10
Total number of shell pairs                 ...      4656
Shell pairs after pre-screening             ...      4195
Total number of primitive shell pairs       ...     18720
Primitive shell pairs kept                  ...     11296
          la=0 lb=0:   1635 shell pairs
          la=1 lb=0:   1332 shell pairs
          la=1 lb=1:    287 shell pairs
          la=2 lb=0:    613 shell pairs
          la=2 lb=1:    263 shell pairs
          la=2 lb=2:     65 shell pairs

Calculating one electron integrals          ... done (  0.0 sec)
Calculating RI/J V-Matrix + Cholesky decomp.... done (  0.6 sec)
Calculating Nuclear repulsion               ... done (  0.0 sec) ENN=    838.839412873030 Eh

Diagonalization of the overlap matrix:
Smallest eigenvalue                        ... 4.670e-04
Time for diagonalization                   ...    0.003 sec
Threshold for overlap eigenvalues          ... 1.000e-07
Number of eigenvalues below threshold      ... 0
Time for construction of square roots      ...    0.004 sec
Total time needed                          ...    0.008 sec

-------------------
DFT GRID GENERATION
-------------------

General Integration Accuracy     IntAcc      ... 4.159
Radial Grid Type                 RadialGrid  ... OptM3 with GC (2021)
Angular Grid (max. ang.)         AngularGrid ... 3 (Lebedev-194)
Angular grid pruning method      GridPruning ... 4 (adaptive)
Weight generation scheme         WeightScheme... mBecke (2022)
Basis function cutoff            BFCut       ... 1.0000e-10
Integration weight cutoff        WCut        ... 1.0000e-14
Partially contracted basis set               ... off
Rotationally invariant grid construction     ... off
Angular grids for H and He will be reduced by one unit

Total number of grid points                  ...    55781
Total number of batches                      ...      883
Average number of points per batch           ...       63
Average number of grid points per atom       ...     2324
Initializing property integral containers    ... done (  0.0 sec)

SHARK setup successfully completed in   1.6 seconds

Maximum memory used throughout the entire STARTUP-calculation: 28.6 MB
-------------------------------------------------------------------------------
                                 ORCA GUESS
                   Start orbitals & Density for SCF / CASSCF
-------------------------------------------------------------------------------

------------
SCF SETTINGS
------------
Hamiltonian:
 Density Functional     Method          .... DFT(GTOs)
 Exchange Functional    Exchange        .... PBE
   PBE kappa parameter   XKappa         ....  0.804000
   PBE mue parameter    XMuePBE         ....  0.219520
 Correlation Functional Correlation     .... PBE
   PBE beta parameter  CBetaPBE         ....  0.066725
 LDA part of GGA corr.  LDAOpt          .... PW91-LDA
 Gradients option       PostSCFGGA      .... off
   NL short-range parameter             ....  6.400000
 RI-approximation to the Coulomb term is turned on
   Number of AuxJ basis functions       .... 720


General Settings:
 Integral files         IntName         .... sp
 Hartree-Fock type      HFTyp           .... RHF
 Total Charge           Charge          ....    0
 Multiplicity           Mult            ....    1
 Number of Electrons    NEL             ....   96
 Basis Dimension        Dim             ....  192
 Nuclear Repulsion      ENuc            ....    838.8394128730 Eh

Convergence Acceleration:
 AO-DIIS                CNVDIIS         .... on
   Start iteration      DIISMaxIt       ....    12
   Startup error        DIISStart       ....  0.200000
   # of expansion vecs  DIISMaxEq       ....     5
   Bias factor          DIISBfac        ....   1.050
   Max. coefficient     DIISMaxC        ....  10.000
 MO-DIIS                CNVKDIIS        .... off
 Trust-Rad. Augm. Hess. CNVTRAH         .... auto
   Auto Start mean grad. ratio tolernc. ....  1.125000
   Auto Start start iteration           ....    50
   Auto Start num. interpolation iter.  ....    10
   Max. Number of Micro iterations      ....    24
   Max. Number of Macro iterations      .... Maxiter - #DIIS iter
   Number of Davidson start vectors     ....     2
   Converg. threshold    (grad. norm)   ....   1.000e-04
   Grad. Scal. Fac. for Micro threshold ....   0.100
   Minimum threshold for Micro iter.    ....   1.000e-02
   NR start threshold (gradient norm)   ....   1.000e-04
   Initial trust radius                 ....   0.400
   Minimum AH scaling param. (alpha)    ....   1.000
   Maximum AH scaling param. (alpha)    .... 1000.000
   Quad. conv. algorithm                .... NR
   White noise on init. David. guess    .... on
   Maximum white noise                  ....   0.010
   Pseudo random numbers                .... off
   Inactive MOs                         .... canonical
   Orbital update algorithm             .... Taylor
   Preconditioner                       .... Diag
   Full preconditioner red. dimension   ....   250
 SOSCF                  CNVSOSCF        .... on
   Start iteration      SOSCFMaxIt      ....   150
   Startup grad/error   SOSCFStart      ....  0.003300
   Hessian update       SOSCFHessUp     .... L-BFGS
 Level Shifting         CNVShift        .... on
   Level shift para.    LevelShift      ....    0.2500
   Turn off err/grad.   ShiftErr        ....    0.0010
 Zerner damping         CNVZerner       .... off
 Static damping         CNVDamp         .... on
   Fraction old density DampFac         ....    0.7000
   Max. Damping (<1)    DampMax         ....    0.9800
   Min. Damping (>=0)   DampMin         ....    0.0000
   Turn off err/grad.   DampErr         ....    0.1000

SCF Procedure:
 Maximum # iterations   MaxIter         ....   125
 SCF integral mode      SCFMode         .... Direct
   Integral package                     .... SHARK and LIBINT hybrid scheme
 Reset frequency        DirectResetFreq ....    20
 Integral Threshold     Thresh          ....  1.000e-09 Eh
 Primitive CutOff       TCut            ....  1.000e-10 Eh

Convergence Tolerance:
 Convergence Check Mode ConvCheckMode   .... Total+1el-Energy
 Convergence forced     ConvForced      .... 0
 Energy Change          TolE            ....  1.000e-05 Eh
 1-El. energy change                    ....  1.000e-02 Eh
 Orbital Gradient       TolG            ....  1.000e-04
 Orbital Rotation angle TolX            ....  1.000e-04
 DIIS Error             TolErr          ....  5.000e-04

------------------------------
INITIAL GUESS: MODEL POTENTIAL
------------------------------
Loading Hartree-Fock densities                     ... done
Calculating cut-offs                               ... done
Initializing the effective Hamiltonian             ... done
Setting up the integral package (SHARK)            ... done
Starting the Coulomb interaction                   ... done (   0.4 sec)
Making the grid                                    ... done (   0.2 sec)
Mapping shells                                     ... done
Starting the XC term evaluation                    ... done (   0.2 sec)
  promolecular density results
     # of electrons  =     95.991926214
     EX              =    -83.242278368
     EC              =     -3.269758927
     EX+EC           =    -86.512037295
Transforming the Hamiltonian                       ... done (   0.0 sec)
Diagonalizing the Hamiltonian                      ... done (   0.0 sec)
Back transforming the eigenvectors                 ... done (   0.0 sec)
Now organizing SCF variables                       ... done
                      ------------------
                      INITIAL GUESS DONE (   0.9 sec)
                      ------------------
             **** ENERGY FILE WAS UPDATED (sp.en.tmp) ****
Finished Guess after   0.9 sec
Maximum memory used throughout the entire GUESS-calculation: 22.4 MB

-------------------------------------------------------------------------------------------
                                      ORCA LEAN-SCF
                              memory conserving SCF solver
-------------------------------------------------------------------------------------------

----------------------------------------D-I-I-S--------------------------------------------
Iteration    Energy (Eh)           Delta-E    RMSDP     MaxDP     DIISErr   Damp  Time(sec)
-------------------------------------------------------------------------------------------
               ***  Starting incremental Fock matrix formation  ***
    1    -685.5116605401343577     0.00e+00  5.33e-03  1.81e-01  2.21e-01  0.700   0.8
    2    -685.6656908642522694    -1.54e-01  3.46e-03  1.23e-01  8.37e-02  0.700   0.9
                               ***Turning on AO-DIIS***
    3    -685.7140303821960288    -4.83e-02  1.16e-03  2.97e-02  1.88e-02  0.700   0.7
    4    -685.7463022668167696    -3.23e-02  1.43e-03  2.08e-02  8.88e-03  0.000   0.7
    5    -685.8210809635944543    -7.48e-02  5.08e-04  1.85e-02  5.51e-03  0.000   0.7
                              *** Initializing SOSCF ***
---------------------------------------S-O-S-C-F--------------------------------------
Iteration    Energy (Eh)           Delta-E    RMSDP     MaxDP     MaxGrad    Time(sec)
--------------------------------------------------------------------------------------
    6    -685.8214299016525501    -3.49e-04  1.52e-04  4.37e-03  1.16e-03     0.7
               *** Restarting incremental Fock matrix formation ***
    7    -685.8214593361432208    -2.94e-05  1.01e-04  2.16e-03  1.89e-04     0.8
    8    -685.8214586676696172     6.68e-07  3.99e-05  8.52e-04  2.75e-04     0.7
                 **** Energy Check signals convergence ****

               *****************************************************
               *                     SUCCESS                       *
               *           SCF CONVERGED AFTER   8 CYCLES          *
               *****************************************************

             **** ENERGY FILE WAS UPDATED (sp.en.tmp) ****

----------------
TOTAL SCF ENERGY
----------------

Total Energy       :       -685.82145866766962 Eh          -18662.15066 eV

Components:
Nuclear Repulsion  :        838.83941287303048 Eh           22825.98087 eV
Electronic Energy  :      -1524.66087154070010 Eh          -41488.13153 eV
One Electron Energy:      -2606.58526257249196 Eh          -70928.79094 eV
Two Electron Energy:       1081.92439103179186 Eh           29440.65941 eV

Virial components:
Potential Energy   :      -1366.99584871914772 Eh          -37197.84815 eV
Kinetic Energy     :        681.17439005147810 Eh           18535.69749 eV
Virial Ratio       :          2.00682214229434

DFT components:
N(Alpha)           :       47.999788375231 electrons
N(Beta)            :       47.999788375231 electrons
N(Total)           :       95.999576750462 electrons
E(X)               :      -84.613881569914 Eh       
E(C)               :       -3.282109042824 Eh       
E(XC)              :      -87.895990612738 Eh       

---------------
SCF CONVERGENCE
---------------

  Last Energy change         ...   -6.6847e-07  Tolerance :   1.0000e-05
  Last MAX-Density change    ...    8.5163e-04  Tolerance :   1.0000e-03
  Last RMS-Density change    ...    3.9894e-05  Tolerance :   1.0000e-04
  Last DIIS Error            ...    1.1628e-03  Tolerance :   5.0000e-04
  Last Orbital Gradient      ...    2.7504e-04  Tolerance :   1.0000e-04
  Last Orbital Rotation      ...    1.6780e-04  Tolerance :   1.0000e-04


----------------
ORBITAL ENERGIES
----------------

  NO   OCC          E(Eh)            E(eV) 
   0   2.0000     -18.781095      -511.0596 
   1   2.0000     -18.770321      -510.7664 
   2   2.0000     -18.769810      -510.7525 
   3   2.0000     -18.759206      -510.4640 
   4   2.0000     -18.745414      -510.0886 
   5   2.0000     -18.743023      -510.0236 
   6   2.0000      -9.994448      -271.9627 
   7   2.0000      -9.948842      -270.7218 
   8   2.0000      -9.946015      -270.6448 
   9   2.0000      -9.945894      -270.6415 
  10   2.0000      -9.942691      -270.5544 
  11   2.0000      -9.930809      -270.2311 
  12   2.0000      -0.991638       -26.9838 
  13   2.0000      -0.953662       -25.9505 
  14   2.0000      -0.938528       -25.5386 
  15   2.0000      -0.929698       -25.2984 
  16   2.0000      -0.919797       -25.0290 
  17   2.0000      -0.914202       -24.8767 
  18   2.0000      -0.709568       -19.3083 
  19   2.0000      -0.695535       -18.9265 
  20   2.0000      -0.619085       -16.8462 
  21   2.0000      -0.601149       -16.3581 
  22   2.0000      -0.565724       -15.3941 
  23   2.0000      -0.526515       -14.3272 
  24   2.0000      -0.515520       -14.0280 
  25   2.0000      -0.490496       -13.3471 
  26   2.0000      -0.476160       -12.9570 
  27   2.0000      -0.471791       -12.8381 
  28   2.0000      -0.453063       -12.3285 
  29   2.0000      -0.416276       -11.3275 
  30   2.0000      -0.413735       -11.2583 
  31   2.0000      -0.402240       -10.9455 
  32   2.0000      -0.385214       -10.4822 
  33   2.0000      -0.379028       -10.3139 
  34   2.0000      -0.373055       -10.1513 
  35   2.0000      -0.357167        -9.7190 
  36   2.0000      -0.349890        -9.5210 
  37   2.0000      -0.313499        -8.5307 
  38   2.0000      -0.303168        -8.2496 
  39   2.0000      -0.298639        -8.1264 
  40   2.0000      -0.288609        -7.8535 
  41   2.0000      -0.274169        -7.4605 
  42   2.0000      -0.256074        -6.9681 
  43   2.0000      -0.242119        -6.5884 
  44   2.0000      -0.240067        -6.5326 
  45   2.0000      -0.228099        -6.2069 
  46   2.0000      -0.217806        -5.9268 
  47   2.0000      -0.204646        -5.5687 
  48   0.0000       0.013543         0.3685 
  49   0.0000       0.018012         0.4901 
  50   0.0000       0.020320         0.5529 
  51   0.0000       0.042704         1.1620 
  52   0.0000       0.056261         1.5309 
  53   0.0000       0.064881         1.7655 
  54   0.0000       0.083338         2.2677 
  55   0.0000       0.092022         2.5040 
  56   0.0000       0.101001         2.7484 
  57   0.0000       0.105227         2.8634 
  58   0.0000       0.110642         3.0107 
*Only the first 10 virtual orbitals were printed.

                    ********************************
                    * MULLIKEN POPULATION ANALYSIS *
                    ********************************

-----------------------
MULLIKEN ATOMIC CHARGES
-----------------------
   0 C :    0.108585
   1 C :   -0.020448
   2 H :    0.058783
   3 C :    0.036480
   4 H :    0.074384
   5 C :    0.071472
   6 H :    0.048600
   7 C :    0.095031
   8 H :    0.083470
   9 C :    0.128564
  10 H :    0.047755
  11 O :   -0.321367
  12 O :   -0.386376
  13 O :   -0.414084
  14 O :   -0.407544
  15 O :   -0.409391
  16 O :   -0.430243
  17 H :    0.053024
  18 H :    0.083788
  19 H :    0.301750
  20 H :    0.299641
  21 H :    0.299981
  22 H :    0.300245
  23 H :    0.297900
Sum of atomic charges:   -0.0000000

--------------------------------
MULLIKEN REDUCED ORBITAL CHARGES
--------------------------------
  0 C s       :     3.009069  s :     3.009069
      pz      :     0.923614  p :     2.818703
      px      :     0.969722
      py      :     0.925367
      dz2     :     0.016652  d :     0.063643
      dxz     :     0.009722
      dyz     :     0.013779
      dx2y2   :     0.007246
      dxy     :     0.016245

  1 C s       :     3.083211  s :     3.083211
      pz      :     1.071025  p :     2.872758
      px      :     0.938387
      py      :     0.863345
      dz2     :     0.012178  d :     0.064479
      dxz     :     0.009204
      dyz     :     0.012796
      dx2y2   :     0.012591
      dxy     :     0.017712

  2 H s       :     0.941217  s :     0.941217

  3 C s       :     3.019471  s :     3.019471
      pz      :     1.149715  p :     2.875668
      px      :     0.889941
      py      :     0.836012
      dz2     :     0.013173  d :     0.068381
      dxz     :     0.007981
      dyz     :     0.012297
      dx2y2   :     0.017153
      dxy     :     0.017777

  4 H s       :     0.925616  s :     0.925616

  5 C s       :     3.044904  s :     3.044904
      pz      :     0.918604  p :     2.815610
      px      :     0.928219
      py      :     0.968786
      dz2     :     0.017212  d :     0.068015
      dxz     :     0.010784
      dyz     :     0.014657
      dx2y2   :     0.010535
      dxy     :     0.014827

  6 H s       :     0.951400  s :     0.951400

  7 C s       :     3.002345  s :     3.002345
      pz      :     0.753371  p :     2.836288
      px      :     1.068805
      py      :     1.014112
      dz2     :     0.019023  d :     0.066336
      dxz     :     0.018502
      dyz     :     0.012492
      dx2y2   :     0.007471
      dxy     :     0.008847

  8 H s       :     0.916530  s :     0.916530

  9 C s       :     3.008244  s :     3.008244
      pz      :     0.787760  p :     2.761861
      px      :     0.854700
      py      :     1.119401
      dz2     :     0.028726  d :     0.101331
      dxz     :     0.026678
      dyz     :     0.015309
      dx2y2   :     0.014026
      dxy     :     0.016592

 10 H s       :     0.952245  s :     0.952245

 11 O s       :     3.741560  s :     3.741560
      pz      :     1.743959  p :     4.565004
      px      :     1.271314
      py      :     1.549731
      dz2     :     0.002057  d :     0.014803
      dxz     :     0.002976
      dyz     :     0.002009
      dx2y2   :     0.003447
      dxy     :     0.004313

 12 O s       :     3.775206  s :     3.775206
      pz      :     1.351076  p :     4.595870
      px      :     1.763100
      py      :     1.481695
      dz2     :     0.005746  d :     0.015300
      dxz     :     0.001791
      dyz     :     0.002151
      dx2y2   :     0.001926
      dxy     :     0.003686

 13 O s       :     3.784792  s :     3.784792
      pz      :     1.390126  p :     4.613686
      px      :     1.572270
      py      :     1.651290
      dz2     :     0.005741  d :     0.015607
      dxz     :     0.001686
      dyz     :     0.002207
      dx2y2   :     0.000560
      dxy     :     0.005412

 14 O s       :     3.773360  s :     3.773360
      pz      :     1.585221  p :     4.618510
      px      :     1.531783
      py      :     1.501506
      dz2     :     0.002238  d :     0.015674
      dxz     :     0.003832
      dyz     :     0.001792
      dx2y2   :     0.001955
      dxy     :     0.005858

 15 O s       :     3.792011  s :     3.792011
      pz      :     1.431749  p :     4.601677
      px      :     1.652047
      py      :     1.517881
      dz2     :     0.006371  d :     0.015703
      dxz     :     0.001843
      dyz     :     0.003101
      dx2y2   :     0.001750
      dxy     :     0.002638

 16 O s       :     3.784346  s :     3.784346
      pz      :     1.626262  p :     4.629894
      px      :     1.552799
      py      :     1.450833
      dz2     :     0.002721  d :     0.016004
      dxz     :     0.003290
      dyz     :     0.001733
      dx2y2   :     0.001721
      dxy     :     0.006538

 17 H s       :     0.946976  s :     0.946976

 18 H s       :     0.916212  s :     0.916212

 19 H s       :     0.698250  s :     0.698250

 20 H s       :     0.700359  s :     0.700359

 21 H s       :     0.700019  s :     0.700019

 22 H s       :     0.699755  s :     0.699755

 23 H s       :     0.702100  s :     0.702100


------------------------
MULLIKEN OVERLAP CHARGES
------------------------
B(  0-C ,  1-C ) :   0.6291 B(  0-C ,  2-H ) :  -0.1041 B(  0-C , 11-O ) :  -0.0785 
B(  0-C , 16-O ) :   0.7003 B(  0-C , 17-H ) :   0.6191 B(  0-C , 18-H ) :   0.6625 
B(  0-C , 23-H ) :  -0.1015 B(  1-C ,  2-H ) :   0.6029 B(  1-C ,  3-C ) :   0.0913 
B(  1-C ,  7-C ) :  -0.0675 B(  1-C ,  9-C ) :  -0.1327 B(  1-C , 11-O ) :   0.4904 
B(  1-C , 15-O ) :  -0.0737 B(  1-C , 16-O ) :  -0.0828 B(  2-H , 11-O ) :  -0.0706 
B(  3-C ,  4-H ) :   0.5003 B(  3-C ,  5-C ) :   0.3517 B(  3-C ,  7-C ) :   0.1073 
B(  3-C , 11-O ) :  -0.0626 B(  3-C , 12-O ) :  -0.0715 B(  3-C , 14-O ) :  -0.0500 
B(  3-C , 15-O ) :   0.5674 B(  3-C , 22-H ) :  -0.1183 B(  4-H ,  7-C ) :  -0.0818 
B(  4-H , 12-O ) :   0.0636 B(  4-H , 15-O ) :  -0.0693 B(  5-C ,  6-H ) :   0.5553 
B(  5-C ,  7-C ) :  -0.3259 B(  5-C ,  9-C ) :   0.0712 B(  5-C , 13-O ) :  -0.0820 
B(  5-C , 14-O ) :   0.6185 B(  5-C , 15-O ) :  -0.0947 B(  5-C , 21-H ) :  -0.0951 
B(  6-H ,  7-C ) :  -0.0688 B(  6-H , 14-O ) :  -0.0642 B(  7-C ,  8-H ) :   0.5308 
B(  7-C ,  9-C ) :   0.3882 B(  7-C , 10-H ) :  -0.0971 B(  7-C , 12-O ) :  -0.1413 
B(  7-C , 13-O ) :   0.5106 B(  7-C , 14-O ) :  -0.0876 B(  7-C , 20-H ) :  -0.0832 
B(  9-C , 10-H ) :   0.7045 B(  9-C , 11-O ) :   0.6498 B(  9-C , 12-O ) :   0.5759 
B( 10-H , 11-O ) :  -0.0854 B( 10-H , 12-O ) :  -0.0556 B( 11-O , 12-O ) :  -0.1465 
B( 12-O , 19-H ) :   0.4873 B( 13-O , 20-H ) :   0.5244 B( 14-O , 21-H ) :   0.5264 
B( 15-O , 21-H ) :   0.0519 B( 15-O , 22-H ) :   0.5254 B( 16-O , 17-H ) :  -0.0719 
B( 16-O , 18-H ) :  -0.0637 B( 16-O , 23-H ) :   0.5341 B( 17-H , 18-H ) :  -0.0748 



                     *******************************
                     * LOEWDIN POPULATION ANALYSIS *
                     *******************************

----------------------
LOEWDIN ATOMIC CHARGES
----------------------
   0 C :   -0.127648
   1 C :   -0.075458
   2 H :    0.107756
   3 C :   -0.093663
   4 H :    0.123168
   5 C :   -0.063202
   6 H :    0.102977
   7 C :   -0.070611
   8 H :    0.119251
   9 C :   -0.013486
  10 H :    0.090468
  11 O :   -0.147907
  12 O :   -0.310324
  13 O :   -0.311597
  14 O :   -0.315916
  15 O :   -0.304188
  16 O :   -0.335429
  17 H :    0.093537
  18 H :    0.115546
  19 H :    0.284544
  20 H :    0.285829
  21 H :    0.281087
  22 H :    0.285290
  23 H :    0.279976

-------------------------------
LOEWDIN REDUCED ORBITAL CHARGES
-------------------------------
  0 C s       :     2.920309  s :     2.920309
      pz      :     1.004589  p :     3.062592
      px      :     1.052213
      py      :     1.005791
      dz2     :     0.038691  d :     0.144747
      dxz     :     0.021714
      dyz     :     0.030694
      dx2y2   :     0.015489
      dxy     :     0.038159

  1 C s       :     2.903614  s :     2.903614
      pz      :     1.097815  p :     3.020665
      px      :     0.975860
      py      :     0.946990
      dz2     :     0.027221  d :     0.151179
      dxz     :     0.020583
      dyz     :     0.031473
      dx2y2   :     0.028534
      dxy     :     0.043368

  2 H s       :     0.892244  s :     0.892244

  3 C s       :     2.890513  s :     2.890513
      pz      :     1.121032  p :     3.042700
      px      :     0.978142
      py      :     0.943526
      dz2     :     0.030196  d :     0.160451
      dxz     :     0.017429
      dyz     :     0.029044
      dx2y2   :     0.040841
      dxy     :     0.042942

  4 H s       :     0.876832  s :     0.876832

  5 C s       :     2.892793  s :     2.892793
      pz      :     1.005934  p :     3.011985
      px      :     1.029238
      py      :     0.976814
      dz2     :     0.040206  d :     0.158423
      dxz     :     0.024370
      dyz     :     0.033248
      dx2y2   :     0.023264
      dxy     :     0.037336

  6 H s       :     0.897023  s :     0.897023

  7 C s       :     2.898434  s :     2.898434
      pz      :     0.889901  p :     3.017544
      px      :     1.065916
      py      :     1.061727
      dz2     :     0.045677  d :     0.154633
      dxz     :     0.040603
      dyz     :     0.024935
      dx2y2   :     0.017130
      dxy     :     0.026288

  8 H s       :     0.880749  s :     0.880749

  9 C s       :     2.887343  s :     2.887343
      pz      :     0.879395  p :     2.898488
      px      :     0.920546
      py      :     1.098548
      dz2     :     0.068977  d :     0.227655
      dxz     :     0.057962
      dyz     :     0.030653
      dx2y2   :     0.032029
      dxy     :     0.038035

 10 H s       :     0.909532  s :     0.909532

 11 O s       :     3.463103  s :     3.463103
      pz      :     1.750310  p :     4.655450
      px      :     1.323772
      py      :     1.581368
      dz2     :     0.003419  d :     0.029354
      dxz     :     0.006190
      dyz     :     0.002686
      dx2y2   :     0.007683
      dxy     :     0.009375

 12 O s       :     3.538766  s :     3.538766
      pz      :     1.430706  p :     4.744240
      px      :     1.778270
      py      :     1.535264
      dz2     :     0.011687  d :     0.027318
      dxz     :     0.002765
      dyz     :     0.004125
      dx2y2   :     0.002900
      dxy     :     0.005841

 13 O s       :     3.536416  s :     3.536416
      pz      :     1.463927  p :     4.747664
      px      :     1.605144
      py      :     1.678594
      dz2     :     0.010847  d :     0.027517
      dxz     :     0.003420
      dyz     :     0.003624
      dx2y2   :     0.000737
      dxy     :     0.008890

 14 O s       :     3.533294  s :     3.533294
      pz      :     1.630879  p :     4.755197
      px      :     1.587868
      py      :     1.536450
      dz2     :     0.003524  d :     0.027425
      dxz     :     0.006580
      dyz     :     0.004196
      dx2y2   :     0.002916
      dxy     :     0.010209

 15 O s       :     3.537726  s :     3.537726
      pz      :     1.503208  p :     4.738925
      px      :     1.677384
      py      :     1.558333
      dz2     :     0.010752  d :     0.027538
      dxz     :     0.002952
      dyz     :     0.005368
      dx2y2   :     0.003059
      dxy     :     0.005408

 16 O s       :     3.536632  s :     3.536632
      pz      :     1.670708  p :     4.771133
      px      :     1.604286
      py      :     1.496139
      dz2     :     0.004285  d :     0.027663
      dxz     :     0.005409
      dyz     :     0.004014
      dx2y2   :     0.002552
      dxy     :     0.011403

 17 H s       :     0.906463  s :     0.906463

 18 H s       :     0.884454  s :     0.884454

 19 H s       :     0.715456  s :     0.715456

 20 H s       :     0.714171  s :     0.714171

 21 H s       :     0.718913  s :     0.718913

 22 H s       :     0.714710  s :     0.714710

 23 H s       :     0.720024  s :     0.720024


---------------------------------
LOEWDIN BOND ORDERS (THRESH 0.050000)
---------------------------------
B(  0-C ,  1-C ) :   1.0640 B(  0-C ,  3-C ) :   0.0587 B(  0-C , 11-O ) :   0.0646 
B(  0-C , 16-O ) :   1.2562 B(  0-C , 17-H ) :   0.9022 B(  0-C , 18-H ) :   0.9043 
B(  1-C ,  2-H ) :   0.8679 B(  1-C ,  3-C ) :   1.0216 B(  1-C ,  5-C ) :   0.0610 
B(  1-C ,  9-C ) :   0.0609 B(  1-C , 11-O ) :   1.1061 B(  1-C , 15-O ) :   0.0791 
B(  1-C , 16-O ) :   0.0834 B(  3-C ,  4-H ) :   0.8584 B(  3-C ,  5-C ) :   1.0263 
B(  3-C ,  7-C ) :   0.0527 B(  3-C , 11-O ) :   0.0521 B(  3-C , 14-O ) :   0.0790 
B(  3-C , 15-O ) :   1.2109 B(  5-C ,  6-H ) :   0.8575 B(  5-C ,  7-C ) :   1.0128 
B(  5-C ,  9-C ) :   0.0516 B(  5-C , 13-O ) :   0.0641 B(  5-C , 14-O ) :   1.2320 
B(  5-C , 15-O ) :   0.0786 B(  7-C ,  8-H ) :   0.8644 B(  7-C ,  9-C ) :   1.0167 
B(  7-C , 11-O ) :   0.0583 B(  7-C , 12-O ) :   0.0636 B(  7-C , 13-O ) :   1.2249 
B(  7-C , 14-O ) :   0.0622 B(  9-C , 10-H ) :   0.8793 B(  9-C , 11-O ) :   1.2075 
B(  9-C , 12-O ) :   1.2495 B(  9-C , 13-O ) :   0.0870 B( 11-O , 12-O ) :   0.0966 
B( 12-O , 19-H ) :   0.8734 B( 13-O , 20-H ) :   0.8827 B( 14-O , 21-H ) :   0.8707 
B( 15-O , 22-H ) :   0.8786 B( 16-O , 23-H ) :   0.8824 

------------------------------------------
LOEWDIN REDUCED ORBITAL POPULATIONS PER MO
-------------------------------------------
THRESHOLD FOR PRINTING IS 0.1%%
                      0         1         2         3         4         5   
                 -18.78109 -18.77032 -18.76981 -18.75921 -18.74541 -18.74302
                   2.00000   2.00000   2.00000   2.00000   2.00000   2.00000
                  --------  --------  --------  --------  --------  --------
11 O  s              99.9       0.0       0.0       0.0       0.0       0.0
12 O  s               0.0      99.9       0.0       0.0       0.0       0.0
13 O  s               0.0       0.0       0.0      99.9       0.0       0.0
14 O  s               0.0       0.0       0.0       0.0      99.9       0.0
15 O  s               0.0       0.0      99.9       0.0       0.0       0.0
16 O  s               0.0       0.0       0.0       0.0       0.0      99.9

                      6         7         8         9        10        11   
                  -9.99445  -9.94884  -9.94601  -9.94589  -9.94269  -9.93081
                   2.00000   2.00000   2.00000   2.00000   2.00000   2.00000
                  --------  --------  --------  --------  --------  --------
 0 C  s               0.0       0.0       0.0       0.0       0.0      99.6
 1 C  s               0.0      99.6       0.0       0.0       0.0       0.0
 3 C  s               0.0       0.0      99.0       0.5       0.0       0.0
 5 C  s               0.0       0.0       0.0       0.0      99.6       0.0
 7 C  s               0.0       0.0       0.5      99.0       0.0       0.0
 9 C  s              99.6       0.0       0.0       0.0       0.0       0.0
11 O  px              0.1       0.0       0.0       0.0       0.0       0.0
12 O  pz              0.1       0.0       0.0       0.0       0.0       0.0
13 O  pz              0.0       0.0       0.0       0.1       0.0       0.0

                     12        13        14        15        16        17   
                  -0.99164  -0.95366  -0.93853  -0.92970  -0.91980  -0.91420
                   2.00000   2.00000   2.00000   2.00000   2.00000   2.00000
                  --------  --------  --------  --------  --------  --------
 0 C  s               0.6       0.1       0.4       6.4       0.4       3.4
 0 C  pz              0.1       0.0       0.1       2.2       0.2       1.4
 0 C  px              0.4       0.0       0.0       0.1       0.1       1.4
 0 C  py              0.0       0.0       0.0       1.8       0.3       2.1
 0 C  dyz             0.0       0.0       0.0       0.2       0.0       0.3
 1 C  s               4.6       0.4       0.5       2.9       0.0       1.1
 1 C  pz              0.0       0.3       0.0       0.0       0.0       0.1
 1 C  px              2.0       0.0       0.0       0.1       0.0       3.0
 1 C  py              1.8       1.2       0.0       1.7       0.1       0.6
 1 C  dxy             0.2       0.0       0.0       0.0       0.0       0.3
 2 H  s               0.5       0.1       0.1       0.4       0.0       0.1
 3 C  s               1.2       9.4       0.4       0.0       0.3       0.0
 3 C  pz              0.2       0.0       0.0       0.1       0.0       0.1
 3 C  px              0.0       1.6       0.9       0.0       2.6       0.1
 3 C  py              0.2       5.1       0.1       0.5       0.2       0.3
 3 C  dz2             0.0       0.2       0.0       0.0       0.0       0.0
 3 C  dxy             0.0       0.4       0.1       0.0       0.2       0.0
 4 H  s               0.3       1.0       0.0       0.0       0.0       0.0
 5 C  s               0.7       4.0       1.5       0.2       5.6       0.1
 5 C  pz              0.0       1.0       0.0       0.2       3.2       0.1
 5 C  px              0.0       0.3       1.4       0.0       1.3       0.0
 5 C  py              0.2       0.5       0.1       0.2       3.7       0.0
 5 C  dxz             0.0       0.0       0.0       0.0       0.1       0.0
 5 C  dyz             0.0       0.1       0.0       0.0       0.4       0.0
 5 C  dxy             0.0       0.0       0.0       0.0       0.1       0.0
 6 H  s               0.1       0.6       0.4       0.0       0.4       0.0
 7 C  s               2.3       0.3       8.9       0.0       0.1       0.1
 7 C  pz              0.0       0.1       6.7       0.5       1.5       0.0
 7 C  px              0.5       0.0       0.7       0.0       0.4       0.1
 7 C  py              0.8       0.5       0.1       0.0       0.7       0.0
 7 C  dz2             0.0       0.0       0.5       0.0       0.1       0.0
 7 C  dxz             0.0       0.0       0.2       0.0       0.0       0.0
 8 H  s               0.4       0.1       1.1       0.0       0.0       0.0
 9 C  s              15.4       0.5       0.0       0.6       0.0       0.0
 9 C  pz              0.6       0.4       0.4       5.8       0.1       5.7
 9 C  px              3.6       0.1       0.9       0.9       0.0       2.6
 9 C  py              0.0       0.2       0.8       0.1       0.0       0.0
 9 C  dz2             0.1       0.0       0.0       0.4       0.0       0.4
 9 C  dxz             0.1       0.0       0.0       0.1       0.0       0.2
 9 C  dx2y2           0.2       0.0       0.0       0.1       0.0       0.2
10 H  s               1.9       0.1       0.0       0.1       0.0       0.0
11 O  s              29.1       0.3       1.1       7.7       0.0      16.8
11 O  pz              0.8       0.0       0.0       0.0       0.0       0.1
11 O  px              0.5       0.1       0.0       0.2       0.0       0.0
11 O  py              0.9       0.0       0.0       0.4       0.0       0.6
12 O  s              19.1       2.7       0.5      20.8       0.0      16.9
12 O  pz              1.5       0.1       0.0       0.4       0.0       0.2
12 O  px              0.2       0.0       0.0       0.1       0.0       0.1
12 O  py              0.3       0.1       0.0       0.5       0.0       0.4
13 O  s               1.5       0.7      48.4       0.9       5.5       1.1
13 O  pz              0.1       0.0       1.7       0.0       0.1       0.0
13 O  px              0.0       0.0       0.3       0.0       0.1       0.0
13 O  py              0.0       0.0       0.9       0.0       0.1       0.0
14 O  s               0.3       8.6       3.0       1.3      43.7       0.7
14 O  pz              0.0       0.1       0.0       0.0       0.2       0.0
14 O  px              0.0       0.6       0.1       0.1       2.3       0.0
15 O  s               0.8      43.1       4.0       0.5       9.4       0.6
15 O  pz              0.0       1.6       0.2       0.0       0.4       0.0
15 O  px              0.0       0.6       0.0       0.0       0.0       0.0
15 O  py              0.0       0.5       0.0       0.0       0.0       0.0
16 O  s               0.4       0.0       1.0      27.0       3.0      27.0
16 O  pz              0.0       0.0       0.0       0.3       0.0       0.2
16 O  px              0.0       0.0       0.1       1.6       0.2       1.3
17 H  s               0.1       0.0       0.0       0.7       0.0       0.3
18 H  s               0.1       0.1       0.1       0.7       0.0       0.4
19 H  s               4.0       0.6       0.1       4.1       0.0       3.4
20 H  s               0.3       0.1       9.9       0.2       1.2       0.2
21 H  s               0.1       2.3       0.5       0.3       8.4       0.1
22 H  s               0.2       8.7       0.8       0.1       1.9       0.1
23 H  s               0.2       0.0       0.2       5.9       0.6       5.1

                     18        19        20        21        22        23   
                  -0.70957  -0.69554  -0.61909  -0.60115  -0.56572  -0.52652
                   2.00000   2.00000   2.00000   2.00000   2.00000   2.00000
                  --------  --------  --------  --------  --------  --------
 0 C  s               3.4       3.3      15.6       0.0       8.4       0.0
 0 C  pz              0.0       0.0       0.5       0.1       1.7       0.4
 0 C  px              1.5       1.7       0.0       0.2       2.9       0.0
 0 C  py              1.2       0.7       1.4       0.1       0.0       0.1
 1 C  s              12.4       8.2       1.2       0.2       5.0       0.9
 1 C  pz              1.0       0.0       0.2       2.7       1.5       1.3
 1 C  px              0.1       0.9       7.1       0.1       1.4       0.0
 1 C  py              2.3       0.6       0.3       4.0       0.2       1.4
 1 C  dxy             0.1       0.0       0.1       0.1       0.0       0.0
 2 H  s               2.5       1.5       0.2       0.3       2.5       1.8
 3 C  s              13.0       0.0       3.7      10.2       0.0       0.7
 3 C  pz              1.2       0.0       0.0       1.8       0.3       9.1
 3 C  px              1.1       2.3       2.5       0.1       0.9       2.9
 3 C  py              3.2       0.9       0.4       0.2       1.8       0.3
 3 C  dxy             0.2       0.0       0.0       0.0       0.0       0.2
 4 H  s               2.7       0.0       0.9       4.3       0.0       2.4
 5 C  s               8.1       5.1       3.4       2.0       5.1       3.5
 5 C  pz              0.2       0.3       0.0       2.1       0.4       0.6
 5 C  px              1.1       0.4       2.5       6.0       0.0       1.8
 5 C  py              3.4       2.7       0.0       0.0       0.5       1.0
 6 H  s               1.5       0.8       1.2       1.2       2.3       2.8
 7 C  s               2.8      12.3       2.7       3.9       1.1       5.0
 7 C  pz              0.5       1.7       0.6       0.0       0.9       0.7
 7 C  px              1.1       2.0       0.3       0.0       0.5       1.9
 7 C  py              1.2       0.2       3.5       5.2       3.8       0.1
 7 C  dz2             0.0       0.2       0.0       0.0       0.0       0.1
 8 H  s               0.5       2.3       1.1       1.3       0.9       2.1
 9 C  s               0.6       9.6       5.5       4.6       0.3       1.4
 9 C  pz              0.6       1.1       0.1       0.2       1.4       1.0
 9 C  px              1.0       0.8       2.8       0.1       4.4       0.0
 9 C  py              2.4       1.9       0.3       1.0       3.2       0.7
 9 C  dx2y2           0.1       0.0       0.0       0.0       0.1       0.0
10 H  s               0.3       2.0       1.9       2.2       0.0       0.7
11 O  s               3.6       0.2       1.1       0.7       0.8       0.7
11 O  pz              0.0       0.1       0.1       0.7       0.4       0.1
11 O  px              3.0       7.9       0.3       7.2       5.7       0.4
11 O  py              1.5       0.5       0.0       0.6       3.7       0.1
12 O  s               0.1       2.2       0.6       0.8       0.0       0.1
12 O  pz              0.1       2.4       3.0       2.8       1.5       5.2
12 O  px              0.0       0.4       0.8       0.1       1.4       0.7
12 O  py              0.1       1.4       1.4       0.7       2.7       1.5
13 O  s               0.6       3.6       0.7       0.3       0.2       0.3
13 O  pz              0.4       2.1       0.7       2.5       0.2       9.3
13 O  px              0.4       1.6       0.2       1.7       0.0       4.1
13 O  py              0.2       0.4       0.0       1.7       0.2       1.7
13 O  dz2             0.0       0.1       0.0       0.1       0.0       0.2
14 O  s               2.4       1.5       1.0       0.1       0.9       0.2
14 O  pz              0.6       0.6       0.5       1.5       2.6       2.1
14 O  px              0.1       0.1       0.1       0.6       0.0       0.0
14 O  py              1.1       1.1       0.6       1.3       2.6       1.0
15 O  s               4.0       0.0       0.4       1.2       0.0       0.4
15 O  pz              0.5       0.0       0.3       3.1       0.1       8.1
15 O  px              0.8       0.0       1.3       3.2       0.2       1.7
15 O  py              1.8       0.0       0.6       5.9       0.0       5.0
15 O  dz2             0.0       0.0       0.0       0.1       0.0       0.1
16 O  s               0.9       1.5       2.4       0.1       0.5       0.0
16 O  pz              0.1       0.2       2.6       0.0       4.1       0.0
16 O  px              0.0       0.0       0.1       0.0       0.5       0.0
16 O  py              0.4       0.5       5.0       0.0       5.4       0.1
17 H  s               0.7       0.8       3.9       0.0       3.4       0.2
18 H  s               0.7       0.7       5.4       0.0       4.2       0.0
19 H  s               0.0       1.9       1.6       1.2       1.5       2.0
20 H  s               0.5       2.2       0.3       1.8       0.0       4.1
21 H  s               1.1       0.9       0.5       1.0       1.6       0.8
22 H  s               1.8       0.0       0.6       4.0       0.1       4.0
23 H  s               0.4       0.5       2.9       0.0       2.9       0.0

                     24        25        26        27        28        29   
                  -0.51552  -0.49050  -0.47616  -0.47179  -0.45306  -0.41628
                   2.00000   2.00000   2.00000   2.00000   2.00000   2.00000
                  --------  --------  --------  --------  --------  --------
 0 C  s               0.2       0.2       0.0       0.0       1.1       0.4
 0 C  pz              0.6       0.6       3.2       0.8       7.2       2.6
 0 C  px              0.0       3.6       2.4       2.7       6.5       0.0
 0 C  py              1.0       1.2       0.8       0.0       1.5       0.9
 0 C  dxz             0.0       0.1       0.0       0.0       0.0       0.0
 0 C  dyz             0.0       0.0       0.0       0.0       0.1       0.0
 1 C  s               1.6       1.5       0.1       0.0       0.3       0.2
 1 C  pz              1.1       1.1      11.1       1.2       2.4       0.1
 1 C  px              0.3       4.7       0.1       0.7       0.1       0.6
 1 C  py              8.3       0.1       2.4       0.7       5.4       0.7
 1 C  dxy             0.1       0.0       0.1       0.0       0.0       0.0
 2 H  s               3.3       2.0       1.2       0.4       2.4       0.0
 3 C  s               0.0       0.0       0.1       0.1       0.0       0.9
 3 C  pz              6.5       0.1       0.1       0.0       0.1       5.9
 3 C  px              0.5       4.7       0.8       1.0       4.7       2.7
 3 C  py              0.6       0.9      12.6       0.2       0.4       3.9
 3 C  dxz             0.0       0.0       0.1       0.0       0.0       0.0
 3 C  dxy             0.0       0.0       0.1       0.0       0.1       0.1
 4 H  s               1.1       0.2       0.8       0.1       0.1       6.0
 5 C  s               0.2       0.3       0.4       0.1       0.8       0.2
 5 C  pz              4.0       0.2       1.1       5.5       0.0       6.8
 5 C  px              1.1       3.8       4.4       0.0       5.1       0.1
 5 C  py              0.0       3.8       0.9       1.7       0.0       0.1
 5 C  dxz             0.0       0.1       0.1       0.0       0.1       0.0
 5 C  dxy             0.0       0.0       0.0       0.0       0.0       0.2
 6 H  s               0.6       0.1       1.6       3.1       0.6       2.8
 7 C  s               0.0       0.0       0.0       1.1       0.1       1.3
 7 C  pz              6.8       0.3       0.4       6.8       0.0       5.7
 7 C  px              0.7       3.1       0.0       0.4       0.1       0.4
 7 C  py              0.2       0.1       1.5       2.5       2.8       0.3
 7 C  dz2             0.0       0.0       0.0       0.3       0.0       0.2
 7 C  dyz             0.0       0.0       0.0       0.2       0.0       0.0
 8 H  s               1.4       0.9       0.1       3.0       0.0       4.1
 9 C  s               0.4       0.7       0.1       0.2       0.3       0.3
 9 C  pz              6.9       1.3       0.1       7.2       2.1       0.2
 9 C  px              0.0       2.8       5.3       0.9       6.0       2.5
 9 C  py              1.8       8.8       0.1       1.7       0.4       3.6
 9 C  dz2             0.1       0.0       0.1       0.3       0.1       0.0
 9 C  dxz             0.0       0.0       0.0       0.0       0.1       0.1
 9 C  dxy             0.0       0.0       0.0       0.0       0.0       0.2
10 H  s               1.9       6.0       0.8       0.2       3.7       4.2
11 O  s               0.8       0.1       0.7       0.0       0.0       0.4
11 O  pz              0.2       0.9       5.4       2.0       0.2       0.1
11 O  px              6.9       0.0       4.7       0.6       3.2       1.6
11 O  py              0.1       3.4       0.1       0.9       0.6       0.3
12 O  s               0.1       0.3       0.2       0.0       0.1       0.2
12 O  pz              3.0       0.1       0.2      13.8       1.5       0.6
12 O  px              0.8       0.3       2.4       0.6       0.1       0.2
12 O  py              6.8       2.7       0.1       4.5       2.5       0.6
12 O  dz2             0.0       0.0       0.0       0.2       0.0       0.0
13 O  s               0.0       0.2       0.0       1.4       0.4       0.6
13 O  pz              3.0       0.0       0.1       1.5       0.0       1.5
13 O  px              5.7       0.7       0.3       6.5       0.0       6.0
13 O  py              0.8       0.1       0.0       6.8       1.5       0.6
14 O  s               0.2       0.0       0.8       0.0       0.9       0.1
14 O  pz              1.6       7.1       0.1       0.1       0.4       0.8
14 O  px              0.3       1.6       2.3       0.1       3.0       0.0
14 O  py              5.5       7.6       1.4       1.3       0.9       6.2
15 O  s               0.7       0.0       0.0       0.0       0.1       0.1
15 O  pz              1.9       1.6       2.7       0.4       0.6       0.2
15 O  px              0.2       0.6       6.9       0.2       0.1       2.6
15 O  py              0.0       4.2       1.0       0.4       3.5       4.8
16 O  s               0.1       0.1       0.0       0.2       1.4       0.1
16 O  pz              0.4       2.4       2.2       0.7       0.3       0.7
16 O  px              0.0       1.1       0.4       1.0       3.9       0.2
16 O  py              0.1       2.0       7.6       2.6       7.0       3.4
17 H  s               0.6       0.4       0.9       0.5       6.6       1.1
18 H  s               0.0       0.2       0.0       0.1       0.3       1.1
19 H  s               3.0       0.2       0.2       4.7       1.0       0.0
20 H  s               2.8       0.2       0.1       3.7       0.2       2.1
21 H  s               2.1       4.5       0.8       0.2       0.8       1.6
22 H  s               0.3       1.6       2.2       0.3       0.6       1.5
23 H  s               0.1       1.5       2.6       1.2       2.7       1.2

                     30        31        32        33        34        35   
                  -0.41374  -0.40224  -0.38521  -0.37903  -0.37305  -0.35717
                   2.00000   2.00000   2.00000   2.00000   2.00000   2.00000
                  --------  --------  --------  --------  --------  --------
 0 C  s               0.2       0.2       0.4       0.1       0.1       0.1
 0 C  pz              0.8       6.7       5.5       2.2       5.5       1.0
 0 C  px              0.1       2.3       5.1       5.8       0.1       1.7
 0 C  py              0.4       5.3       6.1       4.4      10.7       2.9
 0 C  dxz             0.0       0.2       0.0       0.0       0.0       0.0
 0 C  dx2y2           0.0       0.0       0.0       0.0       0.1       0.0
 0 C  dxy             0.0       0.0       0.3       0.1       0.0       0.1
 1 C  s               0.0       0.1       0.3       0.1       0.0       0.2
 1 C  pz              0.8       3.6       1.6       0.1       6.2       0.5
 1 C  px              0.1      14.0       0.1       1.8       0.6       1.1
 1 C  py              0.4       0.8       1.1       0.1       1.5       0.6
 1 C  dyz             0.0       0.1       0.0       0.1       0.0       0.1
 1 C  dx2y2           0.1       0.1       0.0       0.0       0.1       0.1
 1 C  dxy             0.0       0.1       0.1       0.1       0.0       0.1
 2 H  s               0.2       2.3       0.6       0.0       3.5       0.2
 3 C  s               1.6       0.2       0.2       0.1       0.1       0.5
 3 C  pz              1.0       3.9       0.1       2.0       2.1       0.4
 3 C  px              0.9       4.9       1.2       0.1       0.1       0.8
 3 C  py              0.3       1.2       0.8       2.7       1.3       1.6
 3 C  dz2             0.0       0.0       0.0       0.1       0.0       0.1
 3 C  dyz             0.0       0.0       0.0       0.0       0.0       0.1
 3 C  dx2y2           0.0       0.1       0.0       0.0       0.0       0.0
 3 C  dxy             0.1       0.0       0.1       0.0       0.1       0.0
 4 H  s               0.1       1.1       0.0       1.8       1.3       2.6
 5 C  s               0.0       0.2       0.3       0.3       0.3       0.1
 5 C  pz              0.1       2.2       6.2       3.4       3.8       1.7
 5 C  px              1.5       0.2       2.3       1.5       0.4       0.1
 5 C  py              0.3       5.5       1.7       3.5       8.7       0.4
 5 C  dxz             0.1       0.1       0.0       0.0       0.0       0.0
 5 C  dx2y2           0.2       0.0       0.0       0.0       0.1       0.0
 5 C  dxy             0.0       0.2       0.1       0.0       0.0       0.0
 6 H  s               0.0       1.0       1.7       0.9       5.8       1.4
 7 C  s               0.5       0.2       0.2       0.1       0.0       0.1
 7 C  pz              1.5       0.4       1.4       0.9       0.1       0.0
 7 C  px             19.1       1.8       3.3       1.4       1.6       0.0
 7 C  py              4.3       1.4       1.1       4.2       3.2       0.0
 7 C  dz2             0.0       0.0       0.3       0.1       0.0       0.0
 7 C  dx2y2           0.2       0.0       0.0       0.0       0.0       0.0
 7 C  dxy             0.0       0.0       0.1       0.2       0.0       0.0
 8 H  s               9.7       0.0       0.0       0.0       0.1       0.1
 9 C  s               0.5       0.0       0.5       0.2       0.0       0.4
 9 C  pz              2.2       0.0       0.0       0.0       0.2       1.6
 9 C  px              0.0       2.5       0.0       3.5       0.1       0.2
 9 C  py             10.2       0.1       0.3       3.8       1.2       0.3
 9 C  dz2             0.0       0.0       0.2       0.0       0.0       0.1
 9 C  dxz             0.0       0.0       0.1       0.0       0.0       0.2
 9 C  dyz             0.0       0.0       0.0       0.0       0.0       0.3
 9 C  dxy             0.0       0.1       0.0       0.1       0.0       0.0
10 H  s               0.4       0.7       0.9       3.3       0.1       0.0
11 O  s               0.9       0.1       1.5       0.9       0.0       1.8
11 O  pz              1.2       0.1       4.4       6.1       2.4       6.0
11 O  px              0.7       1.3       0.2       1.8       0.3       0.9
11 O  py              7.2       6.3       0.3       0.4       0.4       8.4
12 O  s               0.7       0.0       1.9       0.0       0.0       5.8
12 O  pz              2.8       0.0       0.7       0.0       1.0      12.5
12 O  px              0.0       0.8       1.6       4.0       0.2       5.8
12 O  py              0.9       0.4       4.6       0.3       0.2      15.2
13 O  s               0.2       0.3       0.0       0.2       1.1       0.0
13 O  pz              3.7       0.8       4.8       5.2       1.9       0.4
13 O  px              3.7       0.0       0.8       0.1       0.6       0.1
13 O  py              1.9       0.2       0.1       1.2       1.9       0.0
14 O  s               0.3       0.8       0.1       0.1       0.8       0.2
14 O  pz              2.2       4.1       0.6       2.1       4.5       0.1
14 O  px              0.4       2.4       1.5       1.1       2.4       1.3
14 O  py              1.2       0.1       3.6       2.4       1.6       0.9
15 O  s               1.4       0.2       1.3       0.7       0.0       0.9
15 O  pz              5.5       0.9       3.7       2.8       0.3       3.9
15 O  px              0.1       0.0       0.5       5.3       1.1       0.6
15 O  py              0.4       3.3       0.1       0.2       0.8       0.9
16 O  s               0.1       0.9       0.1       0.7       0.7       0.3
16 O  pz              0.5       4.0       2.6       1.4       5.7       2.0
16 O  px              0.3       3.9       1.5       4.5       1.3       2.3
16 O  py              1.4       0.2       5.0       1.2       1.3       1.2
17 H  s               0.4       2.4       0.7       0.0       7.1       0.0
18 H  s               0.3       0.3       8.4       6.0       1.9       3.2
19 H  s               0.0       0.0       1.0       0.1       0.0       1.8
20 H  s               0.0       0.0       1.1       0.3       0.1       0.0
21 H  s               0.9       1.1       0.6       0.7       0.1       0.0
22 H  s               1.2       0.1       0.5       0.0       0.1       0.7
23 H  s               0.5       0.7       1.5       0.3       0.0       0.1

                     36        37        38        39        40        41   
                  -0.34989  -0.31350  -0.30317  -0.29864  -0.28861  -0.27417
                   2.00000   2.00000   2.00000   2.00000   2.00000   2.00000
                  --------  --------  --------  --------  --------  --------
 0 C  s               0.0       0.1       0.0       0.5       0.2       0.0
 0 C  pz              2.2       0.1       0.2       0.3       1.2       0.1
 0 C  px              0.0       0.8       0.2       0.1       3.8       0.7
 0 C  py              3.6       0.1       0.0       1.0       0.6       0.0
[...]
 5 C  dxz             0.3       0.6       0.4       0.9       0.9       0.0
 5 C  dyz             0.3       1.0       1.4       2.2       0.4       0.2
 5 C  dx2y2           0.3       0.3       0.3       0.0       0.2       0.1
 5 C  dxy             0.5       0.8       0.2       1.7       0.7       0.0
 7 C  s               0.2       0.0       1.1       0.0       0.5       0.1
 7 C  pz              0.3       0.1       1.2       0.2       1.5       0.2
 7 C  px              0.0       0.0       0.2       0.1       0.1       0.0
 7 C  py              0.0       0.0       0.0       0.1       0.0       0.1
 7 C  dz2             0.8       0.1       4.2       0.6       3.3       0.4
 7 C  dxz             0.5       0.0       1.5       0.0       0.4       0.3
 7 C  dyz             0.6       0.2       0.5       0.1       0.0       0.1
 7 C  dx2y2           0.0       0.1       0.0       0.0       0.2       0.0
 7 C  dxy             0.0       0.0       0.0       0.3       0.0       0.0
 9 C  s               0.5       0.3       0.0       0.2       2.4       0.6
 9 C  pz              1.3       0.6       0.3       0.1       1.0       0.8
 9 C  px              0.1       0.0       0.2       0.4       0.5       1.5
 9 C  py              0.0       0.0       0.0       0.0       0.2       0.0
 9 C  dz2             4.4       1.5       0.4       0.1       3.9       1.6
 9 C  dxz             0.1       0.1       1.3       0.3       0.5       1.5
 9 C  dyz             0.5       0.1       1.5       0.0       0.1       0.0
 9 C  dx2y2           0.0       0.0       0.1       0.8       0.5       2.5
 9 C  dxy             0.0       0.0       0.4       0.0       0.1       0.0
10 H  s               0.0       0.0       0.0       0.0       0.1       0.0
11 O  s               0.0       0.2       1.4       0.1       0.0       0.0
11 O  pz              0.1       0.0       0.0       0.1       0.0       0.2
11 O  px              0.1       0.0       0.0       0.9       1.0       4.2
11 O  py              0.0       0.0       0.1       0.0       0.1       0.6
11 O  dz2             0.0       0.5       3.6       0.0       0.4       1.5
11 O  dxz             2.1       0.0       1.7       2.8       0.6      13.1
11 O  dyz             0.1       0.1       0.0       0.2       0.1       0.1
11 O  dx2y2           0.1       0.0       5.0       1.9       2.4      14.0
11 O  dxy             0.0       0.6       5.1       2.8       7.4      20.5
12 O  s               1.0       0.7       0.1       0.0       2.3       0.4
12 O  pz              1.3       0.6       0.1       0.0       1.5       0.2
12 O  py              0.1       0.1       0.0       0.0       0.5       0.0
12 O  dz2            22.3       9.4       2.8       0.2      20.4       2.6
12 O  dxz             0.0       0.1       0.8       0.0       0.0       0.1
12 O  dyz             0.1       0.3       0.6       0.0       1.8       0.3
12 O  dxy             0.1       0.0       0.3       0.2       0.1       0.0
13 O  s               0.3       0.1       1.8       0.2       1.7       0.4
13 O  pz              0.4       0.0       1.6       0.1       1.0       0.2
13 O  px              0.1       0.0       0.3       0.1       0.4       0.1
13 O  dz2             6.0       0.5      23.2       1.4      11.5       1.6
13 O  dxz             0.8       0.3       4.9       0.9       4.9       0.7
13 O  dyz             0.1       0.2       0.0       0.0       0.7       0.3
13 O  dx2y2           0.1       0.0       0.0       0.1       0.3       0.0
13 O  dxy             0.0       0.1       0.0       0.0       0.2       0.1
14 O  s               0.3       0.8       0.6       2.4       0.3       0.1
14 O  pz              0.2       0.4       0.4       0.7       0.2       0.0
14 O  px              0.0       0.0       0.0       0.1       0.0       0.0
14 O  py              0.2       0.5       0.3       1.2       0.3       0.0
14 O  dz2             0.3       0.4       0.5       0.0       0.2       0.0
14 O  dxz             2.1       3.2       2.6       5.1       1.9       0.1
14 O  dyz             2.4       5.6       5.0      11.4       2.5       0.2
14 O  dx2y2           0.4       0.7       0.3       1.3       0.9       0.0
14 O  dxy             1.9       3.5       2.3       8.5       1.4       0.2
15 O  s               0.7       0.2       0.4       3.0       0.3       1.4
15 O  px              0.3       0.0       0.3       0.9       0.2       0.3
15 O  py              0.4       0.2       0.2       1.2       0.2       0.7
15 O  dz2             3.7       0.5       1.4       8.7       1.1       3.0
15 O  dxz             0.1       0.0       0.0       0.5       0.0       0.1
15 O  dyz             0.2       0.0       0.0       0.6       0.0       0.5
15 O  dx2y2           0.3       0.3       0.0       0.1       0.0       1.0
15 O  dxy             7.9       1.7       4.7      17.4       3.8       6.7
16 O  s               1.2       2.5       0.3       0.1       0.0       0.0
16 O  pz              0.5       1.0       0.1       0.1       0.1       0.0
16 O  px              0.1       0.1       0.0       0.0       0.0       0.0
16 O  py              0.7       1.6       0.2       0.1       0.0       0.0
16 O  dz2             0.2       0.7       0.0       0.1       0.3       0.1
16 O  dxz             4.1       8.8       0.6       0.5       0.4       0.0
16 O  dyz             8.4      18.3       1.6       0.8       0.6       0.0
16 O  dx2y2           1.0       2.2       0.1       0.1       0.2       0.0
16 O  dxy             6.1      11.5       1.2       0.3       0.1       0.0
19 H  s               0.3       0.1       0.1       0.0       0.3       0.0
20 H  s               0.1       0.0       0.2       0.0       0.2       0.0
21 H  s               0.1       0.2       0.1       0.3       0.1       0.0
22 H  s               0.1       0.0       0.0       0.3       0.0       0.1
23 H  s               0.2       0.5       0.0       0.0       0.0       0.0



                      *****************************
                      * MAYER POPULATION ANALYSIS *
                      *****************************

  NA   - Mulliken gross atomic population
  ZA   - Total nuclear charge
  QA   - Mulliken gross atomic charge
  VA   - Mayer's total valence
  BVA  - Mayer's bonded valence
  FA   - Mayer's free valence

  ATOM       NA         ZA         QA         VA         BVA        FA
  0 C      5.8914     6.0000     0.1086     3.9457     3.9457    -0.0000
  1 C      6.0204     6.0000    -0.0204     4.0353     4.0353    -0.0000
  2 H      0.9412     1.0000     0.0588     0.9805     0.9805     0.0000
  3 C      5.9635     6.0000     0.0365     4.0217     4.0217    -0.0000
  4 H      0.9256     1.0000     0.0744     1.0153     1.0153     0.0000
  5 C      5.9285     6.0000     0.0715     4.1196     4.1196    -0.0000
  6 H      0.9514     1.0000     0.0486     0.9941     0.9941    -0.0000
  7 C      5.9050     6.0000     0.0950     3.9266     3.9266    -0.0000
  8 H      0.9165     1.0000     0.0835     0.9902     0.9902    -0.0000
  9 C      5.8714     6.0000     0.1286     4.2904     4.2904    -0.0000
 10 H      0.9522     1.0000     0.0478     0.9756     0.9756    -0.0000
 11 O      8.3214     8.0000    -0.3214     2.1593     2.1593     0.0000
 12 O      8.3864     8.0000    -0.3864     2.0266     2.0266     0.0000
 13 O      8.4141     8.0000    -0.4141     2.0025     2.0025    -0.0000
 14 O      8.4075     8.0000    -0.4075     2.0332     2.0332    -0.0000
 15 O      8.4094     8.0000    -0.4094     2.0208     2.0208     0.0000
 16 O      8.4302     8.0000    -0.4302     2.0190     2.0190    -0.0000
 17 H      0.9470     1.0000     0.0530     0.9714     0.9714     0.0000
 18 H      0.9162     1.0000     0.0838     0.9820     0.9820     0.0000
 19 H      0.6983     1.0000     0.3017     0.8978     0.8978    -0.0000
 20 H      0.7004     1.0000     0.2996     0.8850     0.8850    -0.0000
 21 H      0.7000     1.0000     0.3000     0.9024     0.9024     0.0000
 22 H      0.6998     1.0000     0.3002     0.8889     0.8889    -0.0000
 23 H      0.7021     1.0000     0.2979     0.8971     0.8971     0.0000

  Mayer bond orders larger than 0.100000
B(  0-C ,  1-C ) :   1.0590 B(  0-C , 16-O ) :   1.0798 B(  0-C , 17-H ) :   0.9010 
B(  0-C , 18-H ) :   0.9110 B(  1-C ,  2-H ) :   0.8735 B(  1-C ,  3-C ) :   0.9918 
B(  1-C , 11-O ) :   0.9477 B(  3-C ,  4-H ) :   0.8274 B(  3-C ,  5-C ) :   1.0918 
B(  3-C , 15-O ) :   1.0059 B(  5-C ,  6-H ) :   0.8597 B(  5-C ,  7-C ) :   0.9794 
B(  5-C , 14-O ) :   1.0980 B(  7-C ,  8-H ) :   0.8676 B(  7-C ,  9-C ) :   1.0285 
B(  7-C , 13-O ) :   1.0587 B(  9-C , 10-H ) :   0.8959 B(  9-C , 11-O ) :   1.0729 
B(  9-C , 12-O ) :   1.1128 B( 12-O , 19-H ) :   0.8382 B( 13-O , 20-H ) :   0.8485 
B( 14-O , 21-H ) :   0.8352 B( 15-O , 22-H ) :   0.8450 B( 16-O , 23-H ) :   0.8448 


-------
TIMINGS
-------

Total SCF time: 0 days 0 hours 0 min 6 sec 

Total time                  ....       6.263 sec
Sum of individual times     ....       6.238 sec  ( 99.6%)

SCF preparation             ....       0.210 sec  (  3.4%)
Fock matrix formation       ....       5.798 sec  ( 92.6%)
  Startup                   ....       0.008 sec  (  0.1% of F)
  Split-RI-J                ....       2.960 sec  ( 51.0% of F)
  XC integration            ....       2.728 sec  ( 47.0% of F)
    XC Preparation          ....       0.000 sec  (  0.0% of XC)
    Basis function eval.    ....       1.078 sec  ( 39.5% of XC)
    Density eval.           ....       0.587 sec  ( 21.5% of XC)
    XC-Functional eval.     ....       0.161 sec  (  5.9% of XC)
    XC-Potential eval.      ....       0.601 sec  ( 22.0% of XC)
Diagonalization             ....       0.000 sec  (  0.0%)
Density matrix formation    ....       0.030 sec  (  0.5%)
Total Energy calculation    ....       0.002 sec  (  0.0%)
Population analysis         ....       0.061 sec  (  1.0%)
Orbital Transformation      ....       0.026 sec  (  0.4%)
Orbital Orthonormalization  ....       0.000 sec  (  0.0%)
DIIS solution               ....       0.089 sec  (  1.4%)
  MO trafo                  ....       0.000 sec  (  0.0 % of DIIS)
  Orb grad                  ....       0.000 sec  (  0.0 % of DIIS)
  Energy W gradient         ....       0.000 sec  (  0.0 % of DIIS)
  DIIS error                ....       0.006 sec  (  6.6 % of DIIS)
  DIIS work                 ....       0.065 sec  ( 73.3 % of DIIS)
  Form Q                    ....       0.000 sec  (  0.0 % of DIIS)
  Form QpQm                 ....       0.000 sec  (  0.0 % of DIIS)
  Exp/Cayley                ....       0.000 sec  (  0.0 % of DIIS)
  Orb update                ....       0.000 sec  (  0.0 % of DIIS)
  Wake-sleep                ....       0.001 sec  (  1.5 % of DIIS)
SOSCF solution              ....       0.022 sec  (  0.3%)
  MO trafo                  ....       0.013 sec  ( 59.1 % of SOSCF)
  Orb grad                  ....       0.000 sec  (  0.9 % of SOSCF)
  Rot update                ....       0.002 sec  (  8.4 % of SOSCF)
  Step                      ....       0.007 sec  ( 31.4 % of SOSCF)
Finished LeanSCF after   6.7 sec

Maximum memory used throughout the entire LEANSCF-calculation: 19.0 MB


-------------------------------------------------------------------------------
                          DFT DISPERSION CORRECTION                            
                                                                               
                                DFTD4 V3.4.0                                   
-------------------------------------------------------------------------------
The PBE functional is recognized
Active option DFTDOPT                   ...         5   

-------------------------   ----------------
Dispersion correction           -0.024378653
-------------------------   ----------------

------------------   -----------------
gCP correction             0.154867911
------------------   -----------------

-------------------------   --------------------
FINAL SINGLE POINT ENERGY      -685.690969409525
-------------------------   --------------------


------------------------------------------------------------------------------
                              ORCA PROPERTY CALCULATIONS
------------------------------------------------------------------------------

GBWName                                 ... sp.gbw
Number of atoms                         ...     24
Number of basis functions               ...    192
Max core memory                         ...   1024 MB

Electric properties:
Dipole moment                           ... YES
Quadrupole moment                       ...  NO
Static polarizability (Dipole/Dipole)   ...  NO
Static polarizability (Dipole/Quad.)    ...  NO
Static polarizability (Quad./Quad.)     ...  NO
Static polarizability (Velocity)        ...  NO

Atomic electric properties:
Dipole moment                           ...  NO
Quadrupole moment                       ...  NO
Static polarizability                   ...  NO

Choice of electric origin               ... Center of mass
Position of electric origin             ...    -0.000002    -0.000000    -0.000000

General magnetic properties:
Magnetizability                         ...  NO

EPR properties:
g-Tensor (aka g-matrix)                 ...  NO
Zero-Field splitting spin-orbit         ...  NO
Zero-field splitting spin-spin          ...  NO
Hyperfine couplings                     ...  NO (   0 nuclei)
Quadrupole couplings                    ...  NO (   0 nuclei)
Contact density                         ...  NO (   0 nuclei)

NMR properties:
Chemical shifts                         ...  NO (   0 nuclei)
Spin-rotation constants                 ...  NO (   0 nuclei)
Spin-spin couplings                     ...  NO (   0 nuclei,    0 pairs)

Choice of magnetic origin               ... GIAO
Position of magnetic origin             ...     0.000000     0.000000     0.000000

Properties with geometric perturbations:
SCF Hessian                             ...  NO
IR spectrum                             ...  NO
VCD spectrum                            ...  NO
X-ray spectroscopy properties:
SCF XES/XAS/RIXS spectra                ...  NO


-------------
DIPOLE MOMENT
-------------

Method             : SCF
Type of density    : Electron Density
Multiplicity       :   1
Irrep              :   0
Energy             :  -685.8214586676696172 Eh
Relativity type    : 
Basis              : AO
                                X                 Y                 Z
Electronic contribution:      1.734389855      -0.082185538       0.413229986
Nuclear contribution   :     -1.340086150      -0.455175875      -0.273053967
                        -----------------------------------------
Total Dipole Moment    :      0.394303705      -0.537361413       0.140176019
                        -----------------------------------------
Magnitude (a.u.)       :      0.681088847
Magnitude (Debye)      :      1.731190268



--------------------
Rotational spectrum 
--------------------
 
Rotational constants in cm-1:             0.040726             0.025618             0.020046 
Rotational constants in MHz :          1220.932850           768.012799           600.973900 

Dipole components along the rotational axes: 
x,y,z [a.u.] :     0.096964    -0.673952    -0.016374 
x,y,z [Debye]:     0.246464    -1.713051    -0.041619 

 

Dipole moment calculation done in   0.0 sec 

Maximum memory used throughout the entire PROP-calculation: 12.5 MB

--------------------------------
SUGGESTED CITATIONS FOR THIS RUN
--------------------------------

Below you find a list of papers that are relevant to this ORCA run
We neither can nor want to force you to cite these papers, but we appreciate if you do
You receive ORCA, which is the product of decades of hard work by many enthusiastic individuals, for free
The only thing we kindly ask in return is that you cite our papers,
We deeply appreciate it, if you show your appreciation for ORCA by not just citing the generic ORCA reference.

Please note that relegating all ORCA citations to the supporting information does *not* help us.
SI sections are not indexed - citations you put there will not count into any citation statistics
But we need these citations in order to attract the funding resources that allow us to do what we are doing

Therefore, if you are a happy ORCA user, please consider citing a few of the papers listed below in the main body of your paper

In addition to the list printed below, the program has created the file sp.bibtex that contains the list in bibtex format
You can import this file easily into all common literature databanks and citation aid programs


List of essential papers. We consider these as the minimum necessary citations

  1. Neese,F.
     Software update: the ORCA program system, version 5.0
     WIRES Comput. Molec. Sci., 2022 12(1)e1606
     doi.org/10.1002/wcms.1606

List of papers to cite with high priority. The work reported in these papers was absolutely
necessary for this run to complete.
Our perspective: the developers of density functionals and basis sets usually get cited in chemistry papers
Good! But without the algorithms to do something with them, the functionals or basis sets would not do anything.
Hence, in our opinion, the algorithm design and method developments papers are equally worthy of getting cited

  1. Neese,F.
     An improvement of the resolution of the identity approximation for the formation of the Coulomb matrix
     J. Comp. Chem., 2003 24(14)1740-1747
     doi.org/10.1002/jcc.10318
  2. Neese,F.
     The SHARK Integral Generation and Digestion System
     J. Comp. Chem., 2022  1-16
     doi.org/10.1002/jcc.26942
  3. Caldeweyher,E.; Bannwarth,C.; Grimme,S.
     Extension of the D3 dispersion coefficient model
     J. Chem. Phys., 2017 147 034112
     doi.org/10.1063/1.4993215
  4. Caldeweyher,E.; Ehlert,S.; Hansen,A.; Neugebauer,H.; Spicher,S.; Bannwarth,C.; Grimme,S.
     A generally applicable atomic-charge dependent London dispersion correction
     J. Chem. Phys., 2019 150 154122
     doi.org/10.1063/1.5090222
  5. Caldeweyher,E.; Mewes,J.; Ehlert,S.; Grimme,S.
     Extension and evaluation of the D4 London-dispersion model for periodic systems
     Phys. Chem. Chem. Phys., 2020 22(16)8499-8512
     doi.org/10.1039/D0CP00502A
  6. Wittmann,L.; Gordiy,I.; Friede,M.; Helmich-Paris,B.; Grimme,S.; Hansen,A.; Bursch,M.
     Extension of the D3 and D4 London Dispersion Corrections to the full Actinides Series
     Phys. Chem. Chem. Phys., 2024 26(32)21379-21394
     doi.org/https://doi.org/10.1039/D4CP01514B 

List of suggested additional citations. These are papers that are important in the 'surrounding' of 
of this run, or papers that preceded the highly important papers. If you like your results we are grateful for a citation.

  1. Neese,F.
     The ORCA program system
     WIRES Comput. Molec. Sci., 2012 2(1)73-78
     doi.org/10.1002/wcms.81
  2. Neese,F.
     Software update: the ORCA program system, version 4.0
     WIRES Comput. Molec. Sci., 2018 8(1)1-6
     doi.org/10.1002/wcms.1327
  3. Neese,F.; Wennmohs,F.; Becker,U.; Riplinger,C.
     The ORCA quantum chemistry program package
     J. Chem. Phys., 2020 152 Art. No. L224108
     doi.org/10.1063/5.0004608

List of optional additional citations

  1. Neese,F.
     Approximate second-order SCF convergence for spin unrestricted wavefunctions
     Chem. Phys. Lett., 2000 325(1-3)93-98
     doi.org/10.1016/s0009-2614(00)00662-x

Timings for individual modules:

Sum of individual times          ...        9.349 sec (=   0.156 min)
Startup calculation              ...        1.645 sec (=   0.027 min)  17.6 %
SCF iterations                   ...        7.636 sec (=   0.127 min)  81.7 %
Property calculations            ...        0.068 sec (=   0.001 min)   0.7 %
                             ****ORCA TERMINATED NORMALLY****
TOTAL RUN TIME: 0 days 0 hours 0 minutes 9 seconds 600 msec
