11
 energy: -727.905183396293 gnorm: 0.003282084410 xtb: 6.7.1 (edcfbbe)
C           -2.35883293007097       -0.82869401253947       -0.28272074945055
O           -0.92667948814642       -0.62849656895238       -0.26593309228024
C           -0.54164106712138        0.61795932737784        0.01677683049136
O           -1.28824153973287        1.54554084959658        0.23471016507069
C            0.95886827897095        0.82716116318303       -0.01596360852448
Cl           1.97641546091108       -0.65607964689918        0.11134010389685
H           -2.50137904282354       -1.86038657957472       -0.60766082289636
H           -2.83035437807286       -0.12908540940463       -0.97868229481519
H           -2.76903366404478       -0.67492827965290        0.71966892782891
H            1.22209351769712        1.49743514122959        0.80343890261501
H            1.20366651839183        1.32036334763540       -0.96163832590801
11
 energy: -727.905199107428 gnorm: 0.001229366294 xtb: 6.7.1 (edcfbbe)
C           -2.36005363677083       -0.82892814153110       -0.28303148308672
O           -0.92745140871656       -0.62879682113099       -0.26843912110612
C           -0.54074890100989        0.61799202463397        0.01313860084521
O           -1.28497764461055        1.54475506209302        0.23764187393108
C            0.95956511917029        0.82781999395659       -0.01621207627214
Cl           1.97698666601610       -0.65555459467847        0.10956339275203
H           -2.50238205100344       -1.86081760067132       -0.60220554423759
H           -2.83241196325284       -0.13339319851400       -0.98086165861954
H           -2.76989942906275       -0.67185482130614        0.71790101410834
H            1.22034620734780        1.49582189344341        0.80578406710918
H            1.20590869870268        1.32374548900899       -0.95994288316992
11
 energy: -727.905206571247 gnorm: 0.001809627169 xtb: 6.7.1 (edcfbbe)
C           -2.36159891597820       -0.82879829927120       -0.28427529618452
O           -0.92828828177269       -0.62966818467969       -0.27098176617610
C           -0.53986771399703        0.61621570790436        0.01551086005788
O           -1.28155622762818        1.54375094803161        0.24106902273251
C            0.96008844440256        0.82809481115941       -0.01674242964964
Cl           1.97968300449740       -0.65414439693866        0.10433584688826
H           -2.50365592786211       -1.86236648767757       -0.59356451636078
H           -2.83379066639334       -0.13979823892057       -0.98729324925014
H           -2.77129297170164       -0.66390735612544        0.71464379670211
H            1.21821470327679        1.49294402616051        0.80857954048718
H            1.20694618198966        1.32846681468786       -0.95794532182130
11
 energy: -727.905216822089 gnorm: 0.001266758420 xtb: 6.7.1 (edcfbbe)
C           -2.36197372183527       -0.82864258080663       -0.28467242299211
O           -0.92831343764046       -0.62981580127211       -0.27460530900074
C           -0.53999951596322        0.61570427692542        0.01414731173042
O           -1.28145809059950        1.54256538768043        0.24442754907123
C            0.96004254391742        0.82779397526990       -0.01596949560758
Cl           1.98155448657967       -0.65389937991205        0.09751097140532
H           -2.50431276929866       -1.86551395797852       -0.58414707258622
H           -2.83357169547428       -0.14612459828537       -0.99488635292463
H           -2.77105206036151       -0.65318362105145        0.71307369584882
H            1.21701810413528        1.48875047867271        0.81288779025208
H            1.20694773662548        1.33315514666778       -0.95442979998597
11
 energy: -727.905229847865 gnorm: 0.002397611229 xtb: 6.7.1 (edcfbbe)
C           -2.36162830234549       -0.82799877564297       -0.28698615509725
O           -0.92703520246188       -0.62953688131495       -0.28567362515207
C           -0.54007539280550        0.61343684940533        0.01425759303539
O           -1.28300134264927        1.53691554142313        0.25704360726345
C            0.95970354634376        0.82801171599003       -0.01262526540827
Cl           1.98288950118074       -0.65537552774717        0.06692347575784
H           -2.50541973782365       -1.87829189463204       -0.54477822487405
H           -2.83087822200280       -0.17393815681718       -1.02795427408424
H           -2.77079936005382       -0.60785978775154        0.70380298835686
H            1.21708362762444        1.47171068095592        0.83002499535978
H            1.20404219173872        1.35371549696004       -0.94069663752563
11
 energy: -727.905236384887 gnorm: 0.001266709419 xtb: 6.7.1 (edcfbbe)
C           -2.36144553018300       -0.82799538225383       -0.28663220097944
O           -0.92731098433933       -0.62916391381083       -0.28340925287814
C           -0.54026128373375        0.61394430263038        0.01479736352438
O           -1.28346334752599        1.53774275216835        0.25524537703892
C            0.95959007753900        0.82767859235032       -0.01274050180535
Cl           1.98312405880087       -0.65506546071403        0.06851402023583
H           -2.50466184453414       -1.87646978090097       -0.54782493384485
H           -2.83070364883788       -0.17241922075548       -1.02502639520161
H           -2.77182230769328       -0.61179397059105        0.70339552497587
H            1.21815540667534        1.47237752130951        0.82850950200847
H            1.20368072749866        1.35195383564325       -0.94149012875193
11
 energy: -727.905241629404 gnorm: 0.000797618738 xtb: 6.7.1 (edcfbbe)
C           -2.36101133792223       -0.82800266044725       -0.28661370724640
O           -0.92777180821405       -0.62863825211710       -0.27960771594123
C           -0.54024124986216        0.61428959136045        0.01656453727081
O           -1.28375368946682        1.53837484379148        0.25442414127456
C            0.95948152903763        0.82744404413662       -0.01234298266626
Cl           1.98250195954624       -0.65548750547809        0.06152602899269
H           -2.50277496311264       -1.87658917642613       -0.54237727181920
H           -2.82868579534720       -0.17758951105022       -1.02910405421923
H           -2.77528767623844       -0.60723109940144        0.69933788840015
H            1.22044614257113        1.46858717431410        0.83069707178960
H            1.20197815378935        1.35563183488368       -0.93916527187616
11
 energy: -727.905245123373 gnorm: 0.000432888677 xtb: 6.7.1 (edcfbbe)
C           -2.36104011691422       -0.82804621912144       -0.28691070024510
O           -0.92790089565451       -0.62881977958289       -0.27864320022557
C           -0.54021373883884        0.61413627121643        0.01754720583705
O           -1.28355839269975        1.53808795251713        0.25545888138610
C            0.95949499097798        0.82743218533845       -0.01153567466118
Cl           1.98274146174499       -0.65589273125470        0.05060583383667
H           -2.50220030611617       -1.87963699547245       -0.53153135293088
H           -2.82650561274679       -0.18565925640261       -1.03817495167841
H           -2.77810492077334       -0.59607875202273        0.69560311644547
H            1.22133133576596        1.46279422142054        0.83578309642000
H            1.20083737663948        1.36247237968294       -0.93486308106217
11
 energy: -727.905245123373 gnorm: 0.000432888677 xtb: 6.7.1 (edcfbbe)
C           -2.36104011691422       -0.82804621912144       -0.28691070024510
O           -0.92790089565451       -0.62881977958289       -0.27864320022557
C           -0.54021373883884        0.61413627121643        0.01754720583705
O           -1.28355839269975        1.53808795251713        0.25545888138610
C            0.95949499097798        0.82743218533845       -0.01153567466118
Cl           1.98274146174499       -0.65589273125470        0.05060583383667
H           -2.50220030611617       -1.87963699547245       -0.53153135293088
H           -2.82650561274679       -0.18565925640261       -1.03817495167841
H           -2.77810492077334       -0.59607875202273        0.69560311644547
H            1.22133133576596        1.46279422142054        0.83578309642000
H            1.20083737663948        1.36247237968294       -0.93486308106217
