      -----------------------------------------------------------      
     |                   =====================                   |     
     |                           x T B                           |     
     |                   =====================                   |     
     |                         S. Grimme                         |     
     |          Mulliken Center for Theoretical Chemistry        |     
     |                    University of Bonn                     |     
      -----------------------------------------------------------      

   * xtb version 6.7.1 (edcfbbe) compiled by 'albert@albert-system' on 2024-07-22

   xtb is free software: you can redistribute it and/or modify it under
   the terms of the GNU Lesser General Public License as published by
   the Free Software Foundation, either version 3 of the License, or
   (at your option) any later version.
   
   xtb is distributed in the hope that it will be useful,
   but WITHOUT ANY WARRANTY; without even the implied warranty of
   MERCHANTABILITY or FITNESS FOR A PARTICULAR PURPOSE.  See the
   GNU Lesser General Public License for more details.
   
   Cite this work as:
   * C. Bannwarth, E. Caldeweyher, S. Ehlert, A. Hansen, P. Pracht,
     J. Seibert, S. Spicher, S. Grimme, WIREs Comput. Mol. Sci., 2020, 11,
     e01493. DOI: 10.1002/wcms.1493
   
   for GFN2-xTB:
   * C. Bannwarth, S. Ehlert and S. Grimme., J. Chem. Theory Comput., 2019,
     15, 1652-1671. DOI: 10.1021/acs.jctc.8b01176
   for GFN1-xTB:
   * S. Grimme, C. Bannwarth, P. Shushkov, J. Chem. Theory Comput., 2017,
     13, 1989-2009. DOI: 10.1021/acs.jctc.7b00118
   for GFN0-xTB:
   * P. Pracht, E. Caldeweyher, S. Ehlert, S. Grimme, ChemRxiv, 2019, preprint.
     DOI: 10.26434/chemrxiv.8326202.v1
   for GFN-FF:
   * S. Spicher and S. Grimme, Angew. Chem. Int. Ed., 2020, 59, 15665-15673.
     DOI: 10.1002/anie.202004239
   
   for ALPB and GBSA implicit solvation:
   * S. Ehlert, M. Stahn, S. Spicher, S. Grimme, J. Chem. Theory Comput.,
     2021, 17, 4250-4261. DOI: 10.1021/acs.jctc.1c00471
   
   for ddCOSMO and CPCM-X implicit solvation:
   * M. Stahn, S. Ehlert, S. Grimme, J. Phys. Chem. A,
     2023, XX, XXXX-XXXX. DOI: 10.1021/acs.jpca.3c04382
   
   for DFT-D4:
   * E. Caldeweyher, C. Bannwarth and S. Grimme, J. Chem. Phys., 2017,
     147, 034112. DOI: 10.1063/1.4993215
   * E. Caldeweyher, S. Ehlert, A. Hansen, H. Neugebauer, S. Spicher,
     C. Bannwarth and S. Grimme, J. Chem. Phys., 2019, 150, 154122.
     DOI: 10.1063/1.5090222
   * E. Caldeweyher, J.-M. Mewes, S. Ehlert and S. Grimme, Phys. Chem. Chem. Phys.
     2020, 22, 8499-8512. DOI: 10.1039/D0CP00502A
   
   for sTDA-xTB:
   * S. Grimme and C. Bannwarth, J. Chem. Phys., 2016, 145, 054103.
     DOI: 10.1063/1.4959605
   
   in the mass-spec context:
   * V. Asgeirsson, C. Bauer and S. Grimme, Chem. Sci., 2017, 8, 4879.
     DOI: 10.1039/c7sc00601b
   * J. Koopman and S. Grimme, ACS Omega 2019, 4, 12, 15120-15133.
     DOI: 10.1021/acsomega.9b02011
   
   for metadynamics refer to:
   * S. Grimme, J. Chem. Theory Comput., 2019, 155, 2847-2862
     DOI: 10.1021/acs.jctc.9b00143
   
   for SPH calculations refer to:
   * S. Spicher and S. Grimme, J. Chem. Theory Comput., 2021, 17, 1701-1714
     DOI: 10.1021/acs.jctc.0c01306
   
   for ONIOM refer to:
   * C. Plett, A. Katbashev, S. Ehlert, S. Grimme, M. Bursch,
     Phys. Chem. Chem. Phys., 2023, 25, 17860-17868. DOI: 10.1039/D3CP02178E
   
   for DIPRO refer to:
   * J. Kohn, N. Gildemeister, S. Grimme, D. Fazzi, A. Hansen,
     J. Chem. Phys., 2023, just accepted.
   
   for PTB refer to:
   * S. Grimme, M. Mueller, A. Hansen, J. Chem. Phys., 2023, 158, 124111.
     DOI: 10.1063/5.0137838
   
   with help from (in alphabetical order)
   P. Atkinson, C. Bannwarth, F. Bohle, G. Brandenburg, E. Caldeweyher
   M. Checinski, S. Dohm, S. Ehlert, S. Ehrlich, I. Gerasimov, C. Hölzer
   A. Katbashev, J. Kohn, J. Koopman, C. Lavigne, S. Lehtola, F. März, M. Müller,
   F. Musil, H. Neugebauer, J. Pisarek, C. Plett, P. Pracht, F. Pultar,
   J. Seibert, P. Shushkov, S. Spicher, M. Stahn, M. Steiner, T. Strunk,
   J. Stückrath, T. Rose, and J. Unsleber
   
 * started run on 2025/04/16 at 11:24:58.297     
   ID    Z sym.   atoms
    1    6 C      1, 2, 4, 6, 8, 10
    2    1 H      3, 5, 7, 9, 11, 18-24
    3    8 O      12-17

           -------------------------------------------------
          |                Calculation Setup                |
           -------------------------------------------------

          program call               : /software/projects/pawsey0265/mwang1/xtb/bin/xtb xtb_rrho.coord --gfn2 --bhess vtight --chrg 0 --enso --norestart -I rrho-xcontrol-inp --parallel 1
          hostname                   : nid002811
          coordinate file            : xtb_rrho.coord
          omp threads                :                     1


           -------------------------------------------------
          |                 G F N 2 - x T B                 |
           -------------------------------------------------

        Reference                      10.1021/acs.jctc.8b01176
      * Hamiltonian:
        H0-scaling (s, p, d)           1.850000    2.230000    2.230000
        zeta-weighting                 0.500000
      * Dispersion:
        s8                             2.700000
        a1                             0.520000
        a2                             5.000000
        s9                             5.000000
      * Repulsion:
        kExp                           1.500000    1.000000
        rExp                           1.000000
      * Coulomb:
        alpha                          2.000000
        third order                    shell-resolved
        anisotropic                    true
        a3                             3.000000
        a5                             4.000000
        cn-shift                       1.200000
        cn-exp                         4.000000
        max-rad                        5.000000


          ...................................................
          :                      SETUP                      :
          :.................................................:
          :  # basis functions                  60          :
          :  # atomic orbitals                  60          :
          :  # shells                           36          :
          :  # electrons                        72          :
          :  max. iterations                   250          :
          :  Hamiltonian                  GFN2-xTB          :
          :  restarted?                      false          :
          :  GBSA solvation                  false          :
          :  PC potential                    false          :
          :  electronic temp.          300.0000000     K    :
          :  accuracy                    1.0000000          :
          :  -> integral cutoff          0.2500000E+02      :
          :  -> integral neglect         0.1000000E-07      :
          :  -> SCF convergence          0.1000000E-05 Eh   :
          :  -> wf. convergence          0.1000000E-03 e    :
          :  Broyden damping             0.4000000          :
          :  net charge                          0          :
          :  unpaired electrons                  0          :
          ...................................................

 iter      E             dE          RMSdq      gap      omega  full diag
   1    -43.6138406 -0.436138E+02  0.456E+00    9.83       0.0  T
   2    -43.6488270 -0.349864E-01  0.248E+00    9.64       1.0  T
   3    -43.6498003 -0.973278E-03  0.721E-01    9.64       1.0  T
   4    -43.6507357 -0.935479E-03  0.136E-01    9.62       1.0  T
   5    -43.6507967 -0.609913E-04  0.544E-02    9.64       1.0  T
   6    -43.6508067 -0.997839E-05  0.184E-02    9.65       1.1  T
   7    -43.6508073 -0.610188E-06  0.594E-03    9.65       3.4  T
   8    -43.6508076 -0.313632E-06  0.152E-03    9.65      13.4  T
   9    -43.6508076 -0.399505E-08  0.668E-04    9.65      30.6  T
  10    -43.6508076 -0.187530E-08  0.271E-04    9.65      75.4  T

   *** convergence criteria satisfied after 10 iterations ***

         #    Occupation            Energy/Eh            Energy/eV
      -------------------------------------------------------------
         1        2.0000           -0.7360253             -20.0283
       ...           ...                  ...                  ...
        30        2.0000           -0.4614969             -12.5580
        31        2.0000           -0.4574281             -12.4473
        32        2.0000           -0.4525557             -12.3147
        33        2.0000           -0.4503725             -12.2553
        34        2.0000           -0.4362485             -11.8709
        35        2.0000           -0.4279654             -11.6455
        36        2.0000           -0.4070773             -11.0771 (HOMO)
        37                         -0.0525454              -1.4298 (LUMO)
        38                         -0.0401445              -1.0924
        39                         -0.0219672              -0.5978
        40                          0.0059118               0.1609
        41                          0.0247559               0.6736
       ...                                ...                  ...
        60                          0.2810798               7.6486
      -------------------------------------------------------------
                  HL-Gap            0.3545319 Eh            9.6473 eV
             Fermi-level           -0.2298114 Eh           -6.2535 eV

 SCC (total)                   0 d,  0 h,  0 min,  0.090 sec
 SCC setup                      ...        0 min,  0.000 sec (  0.345%)
 Dispersion                     ...        0 min,  0.000 sec (  0.265%)
 classical contributions        ...        0 min,  0.000 sec (  0.061%)
 integral evaluation            ...        0 min,  0.005 sec (  5.128%)
 iterations                     ...        0 min,  0.073 sec ( 80.300%)
 molecular gradient             ...        0 min,  0.012 sec ( 13.696%)
 printout                       ...        0 min,  0.000 sec (  0.177%)

         :::::::::::::::::::::::::::::::::::::::::::::::::::::
         ::                     SUMMARY                     ::
         :::::::::::::::::::::::::::::::::::::::::::::::::::::
         :: total energy             -43.358645851014 Eh    ::
         :: gradient norm              0.045461127357 Eh/a0 ::
         :: HOMO-LUMO gap              9.647304392733 eV    ::
         ::.................................................::
         :: SCC energy               -43.650618228804 Eh    ::
         :: -> isotropic ES            0.140170653414 Eh    ::
         :: -> anisotropic ES         -0.003606363732 Eh    ::
         :: -> anisotropic XC         -0.008032684173 Eh    ::
         :: -> dispersion             -0.020796076538 Eh    ::
         :: repulsion energy           0.291972377790 Eh    ::
         :: add. restraining           0.000000000000 Eh    ::
         :: total charge               0.000000000000 e     ::
         :::::::::::::::::::::::::::::::::::::::::::::::::::::

metadynamics with 1 initial structures loaded
           -------------------------------------------------
          |           Optimal kpush determination           |
           -------------------------------------------------
      ----------------------------------------------------------- 
     |                   =====================                   |
     |                        A N C O P T                        |
     |                   =====================                   |
     |               Approximate Normal Coordinate               |
     |                Rational Function Optimizer                |
      ----------------------------------------------------------- 
target rmsd / Å         0.100000
unbiased initial rmsd   0.158456
 
iter. min.        max.        rmsd       kpush
      ----------------------------------------------------------- 
     |                   =====================                   |
     |                        A N C O P T                        |
     |                   =====================                   |
     |               Approximate Normal Coordinate               |
     |                Rational Function Optimizer                |
      ----------------------------------------------------------- 
 1    0.000000    1.090909    0.012259   -0.545455
      ----------------------------------------------------------- 
     |                   =====================                   |
     |                        A N C O P T                        |
     |                   =====================                   |
     |               Approximate Normal Coordinate               |
     |                Rational Function Optimizer                |
      ----------------------------------------------------------- 
 2    0.000000    0.545455    0.015813   -0.272727
      ----------------------------------------------------------- 
     |                   =====================                   |
     |                        A N C O P T                        |
     |                   =====================                   |
     |               Approximate Normal Coordinate               |
     |                Rational Function Optimizer                |
      ----------------------------------------------------------- 
 3    0.000000    0.272727    0.020629   -0.136364
      ----------------------------------------------------------- 
     |                   =====================                   |
     |                        A N C O P T                        |
     |                   =====================                   |
     |               Approximate Normal Coordinate               |
     |                Rational Function Optimizer                |
      ----------------------------------------------------------- 
 4    0.000000    0.136364    0.027066   -0.068182
      ----------------------------------------------------------- 
     |                   =====================                   |
     |                        A N C O P T                        |
     |                   =====================                   |
     |               Approximate Normal Coordinate               |
     |                Rational Function Optimizer                |
      ----------------------------------------------------------- 
 5    0.000000    0.068182    0.035777   -0.034091
      ----------------------------------------------------------- 
     |                   =====================                   |
     |                        A N C O P T                        |
     |                   =====================                   |
     |               Approximate Normal Coordinate               |
     |                Rational Function Optimizer                |
      ----------------------------------------------------------- 
 6    0.000000    0.034091    0.056633   -0.017045
      ----------------------------------------------------------- 
     |                   =====================                   |
     |                        A N C O P T                        |
     |                   =====================                   |
     |               Approximate Normal Coordinate               |
     |                Rational Function Optimizer                |
      ----------------------------------------------------------- 
 7    0.000000    0.017045    0.109409   -0.008523
      ----------------------------------------------------------- 
     |                   =====================                   |
     |                        A N C O P T                        |
     |                   =====================                   |
     |               Approximate Normal Coordinate               |
     |                Rational Function Optimizer                |
      ----------------------------------------------------------- 
 8    0.008523    0.017045    0.082132   -0.012784
      ----------------------------------------------------------- 
     |                   =====================                   |
     |                        A N C O P T                        |
     |                   =====================                   |
     |               Approximate Normal Coordinate               |
     |                Rational Function Optimizer                |
      ----------------------------------------------------------- 
 9    0.008523    0.012784    0.096531   -0.010653
      ----------------------------------------------------------- 
     |                   =====================                   |
     |                        A N C O P T                        |
     |                   =====================                   |
     |               Approximate Normal Coordinate               |
     |                Rational Function Optimizer                |
      ----------------------------------------------------------- 
10    0.008523    0.010653    0.102170   -0.009588
final kpush: -0.009588
           -------------------------------------------------
          |            Biased Numerical Hessian             |
           -------------------------------------------------
kpush                :  -0.00959
alpha                :   1.00000
step length          :   0.00500
SCC accuracy         :   0.30000
Hessian scale factor :   1.00000
frozen atoms in %    :   0.00000    0
RMS gradient         :   0.00005
estimated CPU  time      0.03 min
estimated wall time      0.03 min

writing file <hessian>.

 projected vibrational frequencies (cm⁻¹)
eigval :       -0.00    -0.00     0.00     0.00     0.00     0.00
eigval :       63.31   108.38   153.61   208.48   211.46   254.37
eigval :      266.70   277.70   296.47   286.12   312.47   359.39
eigval :      379.79   442.07   450.32   467.47   537.70   560.49
eigval :      572.76   611.49   674.71   750.73   809.84   867.66
eigval :      870.79   905.02   959.14   992.50  1027.37  1066.60
eigval :     1073.96  1080.79  1090.03  1116.97  1121.59  1123.86
eigval :     1168.33  1180.98  1204.73  1208.73  1235.20  1261.35
eigval :     1271.42  1289.24  1299.11  1308.66  1314.76  1326.93
eigval :     1332.10  1338.43  1353.61  1359.62  1365.95  1459.63
eigval :     2859.32  2882.16  2917.18  2920.02  2921.82  2926.69
eigval :     2978.68  3192.75  3277.46  3438.83  3460.56  3535.69
           -------------------------------------------------
          |                Property Printout                |
           -------------------------------------------------

    * Orbital Energies and Occupations

         #    Occupation            Energy/Eh            Energy/eV
      -------------------------------------------------------------
         1        2.0000           -0.7348166             -19.9954
       ...           ...                  ...                  ...
        24        2.0000           -0.5237535             -14.2521
        25        2.0000           -0.5156261             -14.0309
        26        2.0000           -0.5127605             -13.9529
        27        2.0000           -0.5013488             -13.6424
        28        2.0000           -0.4909188             -13.3586
        29        2.0000           -0.4870300             -13.2528
        30        2.0000           -0.4623847             -12.5821
        31        2.0000           -0.4575858             -12.4515
        32        2.0000           -0.4509046             -12.2697
        33        2.0000           -0.4467444             -12.1565
        34        2.0000           -0.4355921             -11.8531
        35        2.0000           -0.4246043             -11.5541
        36        2.0000           -0.4018098             -10.9338 (HOMO)
        37                         -0.0381146              -1.0372 (LUMO)
        38                         -0.0213872              -0.5820
        39                          0.0051670               0.1406
        40                          0.0151156               0.4113
        41                          0.0267472               0.7278
        42                          0.0445847               1.2132
        43                          0.0597540               1.6260
        44                          0.0692956               1.8856
        45                          0.0837583               2.2792
        46                          0.0939262               2.5559
        47                          0.1059213               2.8823
       ...                                ...                  ...
        60                          0.2922599               7.9528
      -------------------------------------------------------------
                  HL-Gap            0.3636951 Eh            9.8966 eV
             Fermi-level           -0.2199622 Eh           -5.9855 eV

     #   Z          covCN         q      C6AA      α(0)
     1   6 C        3.673     0.065    19.723     6.365
     2   6 C        3.730     0.084    19.279     6.268
     3   1 H        0.923     0.048     2.345     2.395
     4   6 C        3.723     0.093    19.150     6.249
     5   1 H        0.923     0.032     2.556     2.500
     6   6 C        3.726     0.102    19.001     6.224
     7   1 H        0.923     0.064     2.158     2.297
     8   6 C        3.725     0.081    19.328     6.278
     9   1 H        0.924     0.053     2.286     2.364
    10   6 C        3.610     0.230    17.461     6.034
    11   1 H        0.923     0.062     2.180     2.309
    12   8 O        1.700    -0.322    19.384     5.944
    13   8 O        1.655    -0.463    22.118     6.349
    14   8 O        1.656    -0.442    21.688     6.287
    15   8 O        1.654    -0.476    22.380     6.386
    16   8 O        1.656    -0.447    21.779     6.300
    17   8 O        1.654    -0.458    22.002     6.332
    18   1 H        0.924     0.048     2.346     2.395
    19   1 H        0.924     0.046     2.375     2.410
    20   1 H        0.805     0.322     0.660     1.276
    21   1 H        0.804     0.321     0.660     1.276
    22   1 H        0.803     0.327     0.644     1.261
    23   1 H        0.805     0.299     0.723     1.335
    24   1 H        0.803     0.332     0.631     1.248

 Mol. C6AA /au·bohr⁶  :       4698.695075
 Mol. C8AA /au·bohr⁸  :     100002.687877
 Mol. α(0) /au        :         98.083266


Wiberg/Mayer (AO) data.
largest (>0.10) Wiberg bond orders for each atom

 ---------------------------------------------------------------------------
     #   Z sym  total        # sym  WBO       # sym  WBO       # sym  WBO
 ---------------------------------------------------------------------------
     1   6 C    3.960 --    17 O    1.009    18 H    0.971    19 H    0.969
                             2 C    0.968
     2   6 C    3.952 --    12 O    0.970     1 C    0.968     4 C    0.967
                             3 H    0.954
     3   1 H    0.998 --     2 C    0.954
     4   6 C    3.953 --    16 O    0.987     6 C    0.970     2 C    0.967
                             5 H    0.958
     5   1 H    0.999 --     4 C    0.958
     6   6 C    3.961 --    15 O    1.010     4 C    0.970     8 C    0.958
                             7 H    0.955
     7   1 H    0.996 --     6 C    0.955
     8   6 C    3.966 --    14 O    1.016     6 C    0.958     9 H    0.956
                            10 C    0.954
     9   1 H    0.997 --     8 C    0.956
    10   6 C    3.923 --    12 O    0.984    13 O    0.974     8 C    0.954
                            11 H    0.947
    11   1 H    0.996 --    10 C    0.947
    12   8 O    2.107 --    10 C    0.984     2 C    0.970
    13   8 O    1.996 --    10 C    0.974    20 H    0.869
    14   8 O    1.968 --     8 C    1.016    21 H    0.861
    15   8 O    1.949 --     6 C    1.010    22 H    0.824
    16   8 O    1.975 --     4 C    0.987    23 H    0.890
    17   8 O    2.000 --     1 C    1.009    24 H    0.836
    18   1 H    0.998 --     1 C    0.971
    19   1 H    0.998 --     1 C    0.969
    20   1 H    0.897 --    13 O    0.869
    21   1 H    0.897 --    14 O    0.861
    22   1 H    0.893 --    15 O    0.824
    23   1 H    0.910 --    16 O    0.890
    24   1 H    0.889 --    17 O    0.836
 ---------------------------------------------------------------------------

Topologies differ in total number of bonds
Writing topology from bond orders to xtbtopo.mol

molecular dipole:
                 x           y           z       tot (Debye)
 q only:       -0.886       0.063       0.364
   full:       -1.279       0.064       0.584       3.577
molecular quadrupole (traceless):
                xx          xy          yy          xz          yz          zz
 q only:        1.395      -2.913      -3.433      -7.420       3.833       2.038
  q+dip:        2.320      -4.674      -1.992     -10.842       3.089      -0.327
   full:        1.959      -4.495      -3.237     -10.856       4.035       1.277

           -------------------------------------------------
          |                Geometry Summary                 |
           -------------------------------------------------

      molecular mass/u    :      180.1561339
   center of mass at/Å    :        0.0232166      -0.0194635       0.0011268
  moments of inertia/u·Å² :        0.4091783E+03   0.5341402E+03   0.6124108E+03
rotational constants/cm⁻¹ :        0.4119874E-01   0.3156031E-01   0.2752667E-01

 * 20 selected distances

     #   Z          #   Z                                           value/Å
     2   6 C        3   1 H                                       1.1007002
     4   6 C        5   1 H                                       1.1019576
     4   6 C        6   6 C                                       1.5395418 (max)
     6   6 C        7   1 H                                       1.0983951
     8   6 C        9   1 H                                       1.0977209
    10   6 C       11   1 H                                       1.0988035
     2   6 C       12   8 O                                       1.4209105
    10   6 C       12   8 O                                       1.4004547
    10   6 C       13   8 O                                       1.4119587
     8   6 C       14   8 O                                       1.3962261
     6   6 C       15   8 O                                       1.4016954
     4   6 C       16   8 O                                       1.4147390
     1   6 C       17   8 O                                       1.4021050
     1   6 C       18   1 H                                       1.0930808
     1   6 C       19   1 H                                       1.0965681
    13   8 O       20   1 H                                       0.9680284
    14   8 O       21   1 H                                       0.9694354
    15   8 O       22   1 H                                       0.9807098
    16   8 O       23   1 H                                       0.9638621 (min)
    17   8 O       24   1 H                                       0.9787170

 * 4 distinct bonds (by element types)

   Z      Z             #   av. dist./Å        max./Å        min./Å
   1 H    6 C           7     1.0981752     1.1019576     1.0930808
   6 C    6 C           1     1.5395418     1.5395418     1.5395418
   1 H    8 O           5     0.9721505     0.9807098     0.9638621
   6 C    8 O           7     1.4068699     1.4209105     1.3962261

           -------------------------------------------------
          |               Frequency Printout                |
           -------------------------------------------------
 projected vibrational frequencies (cm⁻¹)
eigval :       -0.00    -0.00     0.00     0.00     0.00     0.00
eigval :       63.31   108.38   153.61   208.48   211.46   254.37
eigval :      266.70   277.70   296.47   286.12   312.47   359.39
eigval :      379.79   442.07   450.32   467.47   537.70   560.49
eigval :      572.76   611.49   674.71   750.73   809.84   867.66
eigval :      870.79   905.02   959.14   992.50  1027.37  1066.60
eigval :     1073.96  1080.79  1090.03  1116.97  1121.59  1123.86
eigval :     1168.33  1180.98  1204.73  1208.73  1235.20  1261.35
eigval :     1271.42  1289.24  1299.11  1308.66  1314.76  1326.93
eigval :     1332.10  1338.43  1353.61  1359.62  1365.95  1459.63
eigval :     2859.32  2882.16  2917.18  2920.02  2921.82  2926.69
eigval :     2978.68  3192.75  3277.46  3438.83  3460.56  3535.69
 reduced masses (amu)
   1: 13.50   2: 13.62   3: 13.29   4: 13.43   5: 13.41   6: 13.02   7: 13.01   8: 12.15
   9: 13.55  10: 13.79  11: 13.80  12: 13.62  13: 12.54  14:  9.17  15: 11.79  16:  3.67
  17: 10.91  18: 10.70  19: 12.11  20:  7.39  21:  8.44  22: 13.17  23:  5.09  24:  9.44
  25: 12.63  26: 12.76  27: 10.89  28:  2.67  29: 11.23  30: 10.00  31:  8.95  32: 10.37
  33:  6.98  34:  9.86  35: 12.35  36:  9.72  37:  7.55  38: 10.63  39:  9.56  40: 11.09
  41: 10.68  42: 10.21  43:  4.14  44:  2.84  45:  3.37  46:  3.11  47:  4.29  48:  4.98
  49:  3.47  50:  4.05  51:  3.72  52:  3.08  53:  4.03  54:  4.22  55:  4.32  56:  3.12
  57:  4.61  58:  3.47  59:  3.67  60:  1.75  61:  1.73  62:  1.74  63:  1.74  64:  1.73
  65:  1.75  66:  1.76  67:  1.68  68:  1.91  69:  1.87  70:  1.87  71:  1.88  72:  1.87
 IR intensities (km·mol⁻¹)
   1:  0.14   2:  0.24   3:  0.06   4:  0.67   5:  0.40   6:  0.69   7: 29.08   8: 26.32
   9: 10.55  10: 10.82  11:  2.17  12: 26.03  13: 11.90  14: 81.31  15:  2.49  16: 63.47
  17: 38.53  18:  1.68  19: 46.18  20:137.66  21: 98.47  22: 22.47  23:136.70  24:138.33
  25:  5.56  26:  0.65  27:  6.79  28:132.92  29: 24.12  30:  2.71  31: 29.31  32: 26.71
  33: 37.09  34: 11.10  35:146.81  36: 59.26  37: 51.01  38: 48.14  39:109.07  40: 73.39
  41:105.60  42: 73.39  43: 44.46  44:  3.01  45: 20.69  46: 26.05  47: 57.84  48: 48.78
  49: 13.28  50: 19.80  51: 20.59  52: 16.10  53: 13.19  54: 25.75  55: 24.11  56: 11.55
  57: 20.56  58:137.54  59:172.71  60:  2.86  61: 53.64  62: 33.11  63: 31.46  64: 29.15
  65: 35.02  66: 46.09  67: 35.65  68:355.18  69:318.32  70:111.59  71: 62.98  72:  8.61
 Raman intensities (Ä⁴*amu⁻¹)
   1:  0.00   2:  0.00   3:  0.00   4:  0.00   5:  0.00   6:  0.00   7:  0.00   8:  0.00
   9:  0.00  10:  0.00  11:  0.00  12:  0.00  13:  0.00  14:  0.00  15:  0.00  16:  0.00
  17:  0.00  18:  0.00  19:  0.00  20:  0.00  21:  0.00  22:  0.00  23:  0.00  24:  0.00
  25:  0.00  26:  0.00  27:  0.00  28:  0.00  29:  0.00  30:  0.00  31:  0.00  32:  0.00
  33:  0.00  34:  0.00  35:  0.00  36:  0.00  37:  0.00  38:  0.00  39:  0.00  40:  0.00
  41:  0.00  42:  0.00  43:  0.00  44:  0.00  45:  0.00  46:  0.00  47:  0.00  48:  0.00
  49:  0.00  50:  0.00  51:  0.00  52:  0.00  53:  0.00  54:  0.00  55:  0.00  56:  0.00
  57:  0.00  58:  0.00  59:  0.00  60:  0.00  61:  0.00  62:  0.00  63:  0.00  64:  0.00
  65:  0.00  66:  0.00  67:  0.00  68:  0.00  69:  0.00  70:  0.00  71:  0.00  72:  0.00
 output can be read by thermo (or use thermo option).
 writing <g98.out> molden fake output.
 recommended (thermochemical) frequency scaling factor: 1.0
           -------------------------------------------------
          |             Thermodynamic Functions             |
           -------------------------------------------------

Molecule has no symmetry elements
It seems to be the C1 point group
c1  symmetry found (for desy threshold:  0.10E+00) used in thermo

          ...................................................
          :                      SETUP                      :
          :.................................................:
          :  # frequencies                          66      :
          :  # imaginary freq.                       0      :
          :  linear?                             false      :
          :  only rotor calc.                    false      :
          :  symmetry                               c1      :
          :  rotational number                       1      :
          :  scaling factor                  1.0000000      :
          :  rotor cutoff                    0.0000000 cm⁻¹ :
          :  imag. cutoff                 -100.0000000 cm⁻¹ :
          :.................................................:

    mode    ω/cm⁻¹     T·S(HO)/kcal·mol⁻¹    T·S(FR)/kcal·mol⁻¹   T·S(vib)
   ------------------------------------------------------------------------
       1     63.31    -1.29729 (100.00%)    -0.98646 (  0.00%)    -1.29729
       2    108.38    -0.98323 (100.00%)    -0.82729 (  0.00%)    -0.98323
       3    153.61    -0.78323 (100.00%)    -0.72398 (  0.00%)    -0.78323
       4    208.48    -0.61327 (100.00%)    -0.63352 (  0.00%)    -0.61327
       5    211.46    -0.60555 (100.00%)    -0.62932 (  0.00%)    -0.60555
       6    254.37    -0.50688 (100.00%)    -0.57459 (  0.00%)    -0.50688
       7    266.70    -0.48227 (100.00%)    -0.56058 (  0.00%)    -0.48227
       8    277.70    -0.46148 (100.00%)    -0.54861 (  0.00%)    -0.46148
       9    296.47    -0.42836 (100.00%)    -0.52923 (  0.00%)    -0.42836
      10    286.12    -0.44628 (100.00%)    -0.53976 (  0.00%)    -0.44628
   ------------------------------------------------------------------------

   temp. (K)  partition function   enthalpy   heat capacity  entropy
                                   cal/mol     cal/K/mol   cal/K/mol   J/K/mol
 298.15  VIB   888.                 5686.807     40.980     32.564
         ROT  0.884E+06              888.752      2.981     30.190
         INT  0.784E+09             6575.559     43.961     62.754
         TR   0.234E+28             1481.254      4.968     41.454
         TOT                        8056.8130    48.9287   104.2083   436.0074

       T/K    H(0)-H(T)+PV         H(T)/Eh          T*S/Eh         G(T)/Eh
   ------------------------------------------------------------------------
    298.15    0.128393E-01    0.201795E+00    0.495127E-01    0.152283E+00
   ------------------------------------------------------------------------

         :::::::::::::::::::::::::::::::::::::::::::::::::::::
         ::                  THERMODYNAMIC                  ::
         :::::::::::::::::::::::::::::::::::::::::::::::::::::
         :: total free energy         -43.218786510013 Eh   ::
         ::.................................................::
         :: total energy              -43.371069032376 Eh   ::
         :: zero point energy           0.188955890261 Eh   ::
         :: G(RRHO) w/o ZPVE           -0.036673367899 Eh   ::
         :: G(RRHO) contrib.            0.152282522362 Eh   ::
         :::::::::::::::::::::::::::::::::::::::::::::::::::::

optimized geometry written to: xtbopt.coord


           -------------------------------------------------
          | TOTAL ENERGY              -43.371069032376 Eh   |
          | TOTAL ENTHALPY            -43.169273793405 Eh   |
          | TOTAL FREE ENERGY         -43.218786510013 Eh   |
          | GRADIENT NORM               0.000046655866 Eh/α |
          | HOMO-LUMO GAP               9.896648634859 eV   |
           -------------------------------------------------

------------------------------------------------------------------------
 * finished run on 2025/04/16 at 11:25:05.041     
------------------------------------------------------------------------
 total:
 * wall-time:     0 d,  0 h,  0 min,  6.742 sec
 *  cpu-time:     0 d,  0 h,  0 min,  6.623 sec
 * ratio c/w:     0.982 speedup
 SCF:
 * wall-time:     0 d,  0 h,  0 min,  0.091 sec
 *  cpu-time:     0 d,  0 h,  0 min,  0.038 sec
 * ratio c/w:     0.416 speedup
 analytical hessian:
 * wall-time:     0 d,  0 h,  0 min,  1.851 sec
 *  cpu-time:     0 d,  0 h,  0 min,  1.849 sec
 * ratio c/w:     0.999 speedup

