      -----------------------------------------------------------      
     |                   =====================                   |     
     |                           x T B                           |     
     |                   =====================                   |     
     |                         S. Grimme                         |     
     |          Mulliken Center for Theoretical Chemistry        |     
     |                    University of Bonn                     |     
      -----------------------------------------------------------      

   * xtb version 6.7.1 (edcfbbe) compiled by 'albert@albert-system' on 2024-07-22

   xtb is free software: you can redistribute it and/or modify it under
   the terms of the GNU Lesser General Public License as published by
   the Free Software Foundation, either version 3 of the License, or
   (at your option) any later version.
   
   xtb is distributed in the hope that it will be useful,
   but WITHOUT ANY WARRANTY; without even the implied warranty of
   MERCHANTABILITY or FITNESS FOR A PARTICULAR PURPOSE.  See the
   GNU Lesser General Public License for more details.
   
   Cite this work as:
   * C. Bannwarth, E. Caldeweyher, S. Ehlert, A. Hansen, P. Pracht,
     J. Seibert, S. Spicher, S. Grimme, WIREs Comput. Mol. Sci., 2020, 11,
     e01493. DOI: 10.1002/wcms.1493
   
   for GFN2-xTB:
   * C. Bannwarth, S. Ehlert and S. Grimme., J. Chem. Theory Comput., 2019,
     15, 1652-1671. DOI: 10.1021/acs.jctc.8b01176
   for GFN1-xTB:
   * S. Grimme, C. Bannwarth, P. Shushkov, J. Chem. Theory Comput., 2017,
     13, 1989-2009. DOI: 10.1021/acs.jctc.7b00118
   for GFN0-xTB:
   * P. Pracht, E. Caldeweyher, S. Ehlert, S. Grimme, ChemRxiv, 2019, preprint.
     DOI: 10.26434/chemrxiv.8326202.v1
   for GFN-FF:
   * S. Spicher and S. Grimme, Angew. Chem. Int. Ed., 2020, 59, 15665-15673.
     DOI: 10.1002/anie.202004239
   
   for ALPB and GBSA implicit solvation:
   * S. Ehlert, M. Stahn, S. Spicher, S. Grimme, J. Chem. Theory Comput.,
     2021, 17, 4250-4261. DOI: 10.1021/acs.jctc.1c00471
   
   for ddCOSMO and CPCM-X implicit solvation:
   * M. Stahn, S. Ehlert, S. Grimme, J. Phys. Chem. A,
     2023, XX, XXXX-XXXX. DOI: 10.1021/acs.jpca.3c04382
   
   for DFT-D4:
   * E. Caldeweyher, C. Bannwarth and S. Grimme, J. Chem. Phys., 2017,
     147, 034112. DOI: 10.1063/1.4993215
   * E. Caldeweyher, S. Ehlert, A. Hansen, H. Neugebauer, S. Spicher,
     C. Bannwarth and S. Grimme, J. Chem. Phys., 2019, 150, 154122.
     DOI: 10.1063/1.5090222
   * E. Caldeweyher, J.-M. Mewes, S. Ehlert and S. Grimme, Phys. Chem. Chem. Phys.
     2020, 22, 8499-8512. DOI: 10.1039/D0CP00502A
   
   for sTDA-xTB:
   * S. Grimme and C. Bannwarth, J. Chem. Phys., 2016, 145, 054103.
     DOI: 10.1063/1.4959605
   
   in the mass-spec context:
   * V. Asgeirsson, C. Bauer and S. Grimme, Chem. Sci., 2017, 8, 4879.
     DOI: 10.1039/c7sc00601b
   * J. Koopman and S. Grimme, ACS Omega 2019, 4, 12, 15120-15133.
     DOI: 10.1021/acsomega.9b02011
   
   for metadynamics refer to:
   * S. Grimme, J. Chem. Theory Comput., 2019, 155, 2847-2862
     DOI: 10.1021/acs.jctc.9b00143
   
   for SPH calculations refer to:
   * S. Spicher and S. Grimme, J. Chem. Theory Comput., 2021, 17, 1701-1714
     DOI: 10.1021/acs.jctc.0c01306
   
   for ONIOM refer to:
   * C. Plett, A. Katbashev, S. Ehlert, S. Grimme, M. Bursch,
     Phys. Chem. Chem. Phys., 2023, 25, 17860-17868. DOI: 10.1039/D3CP02178E
   
   for DIPRO refer to:
   * J. Kohn, N. Gildemeister, S. Grimme, D. Fazzi, A. Hansen,
     J. Chem. Phys., 2023, just accepted.
   
   for PTB refer to:
   * S. Grimme, M. Mueller, A. Hansen, J. Chem. Phys., 2023, 158, 124111.
     DOI: 10.1063/5.0137838
   
   with help from (in alphabetical order)
   P. Atkinson, C. Bannwarth, F. Bohle, G. Brandenburg, E. Caldeweyher
   M. Checinski, S. Dohm, S. Ehlert, S. Ehrlich, I. Gerasimov, C. Hölzer
   A. Katbashev, J. Kohn, J. Koopman, C. Lavigne, S. Lehtola, F. März, M. Müller,
   F. Musil, H. Neugebauer, J. Pisarek, C. Plett, P. Pracht, F. Pultar,
   J. Seibert, P. Shushkov, S. Spicher, M. Stahn, M. Steiner, T. Strunk,
   J. Stückrath, T. Rose, and J. Unsleber
   
 * started run on 2025/04/16 at 11:11:50.851     
   ID    Z sym.   atoms
    1    6 C      1, 2, 4, 6, 8, 10
    2    1 H      3, 5, 7, 9, 11, 18-24
    3    8 O      12-17

           -------------------------------------------------
          |                Calculation Setup                |
           -------------------------------------------------

          program call               : /software/projects/pawsey0265/mwang1/xtb/bin/xtb xtb_opt.coord --opt normal --orca -I xtb_opt-xcontrol-inp
          hostname                   : nid002811
          coordinate file            : xtb_opt.coord
          omp threads                :                   128

           -------------------------------------------------
          |                   Orca driver                   |
           -------------------------------------------------
orca executable           : /software/projects/pawsey0265/mwang1/orca_avx2/orca
orca input file           : xtb_opt.inp
orca input line           : 
orca parallel             : true
orca number of threads    : 128
                         * ORCA takes the control...
  ------------------------------------------------------------------------

                                 *****************
                                 * O   R   C   A *
                                 *****************

                                            #,                                       
                                            ###                                      
                                            ####                                     
                                            #####                                    
                                            ######                                   
                                           ########,                                 
                                     ,,################,,,,,                         
                               ,,#################################,,                 
                          ,,##########################################,,             
                       ,#########################################, ''#####,          
                    ,#############################################,,   '####,        
                  ,##################################################,,,,####,       
                ,###########''''           ''''###############################       
              ,#####''   ,,,,##########,,,,          '''####'''          '####       
            ,##' ,,,,###########################,,,                        '##       
           ' ,,###''''                  '''############,,,                           
         ,,##''                                '''############,,,,        ,,,,,,###''
      ,#''                                            '''#######################'''  
     '                                                          ''''####''''         
             ,#######,   #######,   ,#######,      ##                                
            ,#'     '#,  ##    ##  ,#'     '#,    #''#        ,####,   ,####,        
            ##       ##  ##   ,#'  ##            #'  '#       #'       #'  '#        
            ##       ##  #######   ##           ,######,      #####,   #    #        
            '#,     ,#'  ##    ##  '#,     ,#' ,#      #,     #,   #   #,  ,#        
             '#######'   ##     ##  '#######'  #'      '#     '####' # '####'        



                #########################################################
                #                        -***-                          #
                #          Department of theory and spectroscopy        #
                #                                                       #
                #                      Frank Neese                      #
                #                                                       #
                #     Directorship, Architecture, Infrastructure        #
                #                    SHARK, DRIVERS                     #
                #        Core code/Algorithms in most modules           #
                #                                                       #
                #        Max Planck Institute fuer Kohlenforschung      #
                #                Kaiser Wilhelm Platz 1                 #
                #                 D-45470 Muelheim/Ruhr                 #
                #                      Germany                          #
                #                                                       #
                #                  All rights reserved                  #
                #                        -***-                          #
                #########################################################


                         Program Version 6.0.1  -  RELEASE   -


 With contributions from (in alphabetic order):
[Max-Planck-Institut fuer Kohlenforschung]                               
  Daniel Aravena         : Magnetic Suceptibility                        
  Michael Atanasov       : Ab Initio Ligand Field Theory (pilot matlab implementation)
  Alexander A. Auer      : GIAO ZORA, VPT2 properties, NMR spectrum      
  Ute Becker             : All parallelization in ORCA, NUMFREQ, NUMCALC 
  Giovanni Bistoni       : ED, misc. LED, open-shell LED, HFLD           
  Martin Brehm           : Molecular dynamics                            
  Dmytro Bykov           : pre 5.0 version of the SCF Hessian            
  Marcos Casanova-Páez   : Triplet and SCS-CIS(D). UHF-(DLPNO)-IP/EA/STEOM-CCSD. UHF-CVS-IP/STEOM-CCSD   
  Vijay G. Chilkuri      : MRCI spin determinant printing, contributions to CSF-ICE 
  Pauline Colinet        : FMM embedding                                 
  Dipayan Datta          : RHF DLPNO-CCSD density                        
  Achintya Kumar Dutta   : EOM-CC, STEOM-CC                              
  Nicolas Foglia         : Exact transition moments, OPA infrastructure, MCD improvements    
  Dmitry Ganyushin       : Spin-Orbit,Spin-Spin,Magnetic field MRCI      
  Miquel Garcia-Rates    : C-PCM and meta-GGA Hessian, CCSD/C-PCM, Gaussian charge scheme 
  Tiago L. C. Gouveia    : GS-ROHF, GS-ROCIS                             
  Yang Guo               : DLPNO-NEVPT2, F12-NEVPT2, CIM, IAO-localization        
  Andreas Hansen         : Spin unrestricted coupled pair/coupled cluster methods 
  Ingolf Harden          : AUTO-CI MPn and infrastructure                
  Benjamin Helmich-Paris : MC-RPA, TRAH-(SCF,CASSCF), AVAS, COSX integrals, SCF dyn. polar. 
  Lee Huntington         : MR-EOM, pCC                                   
  Robert Izsak           : Overlap fitted RIJCOSX, COSX-SCS-MP3, EOM     
  Riya Kayal             : Wick's Theorem for AUTO-CI, AUTO-CI UHF-CCSDT 
  Emily Kempfer          : AUTO-CI, RHF CISDT and CCSDT                  
  Christian Kollmar      : KDIIS, OOCD, Brueckner-CCSD(T), CCSD density, CASPT2, CASPT2-K, improved NEVPT2 
  Axel Koslowski         : Symmetry handling                             
  Simone Kossmann        : meta-GGA functionals, TD-DFT gradient, OOMP2, (MP2 Hessian; deprecated post 5.0) 
  Lucas Lang             : DCDCAS                                        
  Marvin Lechner         : AUTO-CI (C++ implementation), FIC-MRCC        
  Spencer Leger          : CASSCF response                               
  Dagmar Lenk            : GEPOL surface, SMD, ORCA-2-JSON               
  Dimitrios Liakos       : Extrapolation schemes; Compound Job, initial MDCI parallelization 
  Dimitrios Manganas     : Further ROCIS development; embedding schemes. LFT, Crystal Embedding 
  Dimitrios Pantazis     : SARC Basis sets                               
  Anastasios Papadopoulos: AUTO-CI, single reference methods and gradients 
  Taras Petrenko         : pre 6.0 DFT Hessian and TD-DFT gradient, (ASA, deprecated), ECA, 1-Electron XAS/XES, NRVS 
  Peter Pinski           : DLPNO-MP2, DLPNO-MP2 Gradient                 
  Christoph Reimann      : Effective Core Potentials                     
  Marius Retegan         : Local ZFS, SOC                                
  Christoph Riplinger    : Optimizer, TS searches, QM/MM, DLPNO-CCSD(T), (RO)-DLPNO pert. Triples 
  Michael Roemelt        : Original ROCIS implementation                 
  Masaaki Saitow         : Open-shell DLPNO-CCSD energy and density      
  Barbara Sandhoefer     : DKH picture change effects                    
  Kantharuban Sivalingam : CASSCF convergence/infrastructure, NEVPT2 and variants, FIC-MRCI 
  Bernardo de Souza      : ESD, SOC TD-DFT                               
  Georgi L. Stoychev     : AutoAux, RI-MP2 NMR, DLPNO-MP2 response, X2C  
  Van Anh Tran           : RI-MP2 g-tensors                              
  Willem Van den Heuvel  : Paramagnetic NMR                              
  Zikuan Wang            : NOTCH, Electric field optimization            
  Frank Wennmohs         : Technical directorship and infrastructure     
  Hang Xu                : AUTO-CI-Response properties                   
                                                                         
[FACCTs GmbH]                                                            
  Markus Bursch, Miquel Garcia-Rates, Christoph Riplinger, Bernardo de Souza, Georgi L. Stoychev 
                                                                 
  APM, Basis sets (HGBS, AHGBS, def-TZVP (Ac-Lr), def2-XVPD (La-Lu)), CI-OPT, improved COSX, DLPNO-Multilevel,           
  DOCKER, DRACO, updates on ESD, GOAT, IRC, LR-CPCM, MBIS, meta-GGA TD-DFT gradient, ML-optimized integration grids, 
  MM, NACMEs, nearIR, NEB, NEB-TS, NL-DFT gradient (VV10), 2- and 3-layer-ONIOM, interface openCOSMO-RS, QMMM,   
  Crystal-QMMM, SF, symmetry and pop. for TD-DFT, r2SCAN hybrids, SOLVATOR                                   
                                                                         
[Other institutions]                                                     
  V. Asgeirsson          : NEB                                           
  Christoph Bannwarth    : sTDA-DFT, sTD-DFT, PBEh-3c, B97-3c, D3        
  Sebastian Ehlert       : rSCAN, r2SCAN, r2SCAN-3c, D4, dhf basis sets  
  Marvin Friede          : D4 for Fr, Ra, Ac-Lr                          
  Lars Goerigk           : TD-DFT with DH, B97 family of functionals     
  Stefan Grimme          : VdW corrections, initial TS optimization, DFT functionals, gCP, sTDA/sTD-DF 
  Waldemar Hujo          : DFT-NL                                        
  H. Jonsson             : NEB                                           
  Holger Kruse           : gCP                                           
  Marcel Mueller         : wB97X-3c, vDZP basis set                      
  Hagen Neugebauer       : wr2SCAN                                       
  Tobias Risthaus        : range-separated hybrid DFT                    
  Lukas Wittmann         : regularized MP2, r2SCAN double-hybrids, wr2SCAN        
                                                                         
We gratefully acknowledge several colleagues who have allowed us to      
interface, adapt or use parts of their codes:                            
  Ed Valeev, F. Pavosevic, A. Kumar             : LibInt (2-el integral package), F12 methods 
  Garnet Chan, S. Sharma, J. Yang, R. Olivares  : DMRG                   
  Ulf Ekstrom                                   : XCFun DFT Library      
  Mihaly Kallay                                 : mrcc  (arbitrary order and MRCC methods)
  Frank Weinhold                                : gennbo (NPA and NBO analysis)           
  Simon Mueller                                 : openCOSMO-RS                            
  Christopher J. Cramer and Donald G. Truhlar   : smd solvation model                     
  S Lehtola, MJT Oliveira, MAL Marques          : LibXC Library                           
  Liviu Ungur et al                             : ANISO software                          


 Your calculation uses the libint2 library for the computation of 2-el integrals
 For citations please refer to: http://libint.valeyev.net

 Your ORCA version has been built with support for libXC version: 6.2.2
 For citations please refer to: https://libxc.gitlab.io

 This ORCA versions uses:
   CBLAS   interface :  Fast vector & matrix operations
   LAPACKE interface :  Fast linear algebra routines
   SCALAPACK package :  Parallel linear algebra routines
   Shared memory     :  Shared parallel matrices
   BLAS/LAPACK       :  OpenBLAS 0.3.27  USE64BITINT DYNAMIC_ARCH NO_AFFINITY Zen SINGLE_THREADED
        Core in use  :  Zen
   Copyright (c) 2011-2014, The OpenBLAS Project




***************************************
The coordinates will be read from file: xtb_opt.xyz
***************************************


Your calculation utilizes the geometrical counterpoise correction gCP
Please cite in your paper:
H.Kruse, S. Grimme J.Chem.Phys., 136, (2012), 154101 
   

Your calculation utilizes the atom-pairwise dispersion correction
based on EEQ partial charges (D4)


================================================================================

----- Orbital basis set information -----
Your calculation utilizes the basis: def2-mTZVPP
   Stefan Grimme, Andreas Hansen, Sebastian Ehlert, and Jan-Michael Mewes 
   J. Chem. Phys. 154, 064103 (2021). DOI: 10.1063/5.0040021

----- AuxJ basis set information -----
Your calculation utilizes the auxiliary basis: def2/J
   F. Weigend, Phys. Chem. Chem. Phys. 8, 1057 (2006).

================================================================================
                                        WARNINGS
                       Please study these warnings very carefully!
================================================================================



WARNING: SCAN, rSCAN, or r2SCAN functional requested.
  ===> : libXC variant has now been activated.



================================================================================
                                       INPUT FILE
================================================================================
NAME = xtb_opt.inp
|  1> ! r2scan-3c def2/J RI DEFGRID2 scfconv7 ENGRAD tightSCF miniprint
|  2> * xyzfile 0 1 xtb_opt.xyz
|  3> 
|  4>                          ****END OF INPUT****
================================================================================

                     *******************************
                     * Energy+Gradient Calculation *
                     *******************************

---------------------------------
CARTESIAN COORDINATES (ANGSTROEM)
---------------------------------
  C     -2.549317   -0.912319    0.255415
  C     -1.137496   -0.444509    0.639893
  H     -1.048762   -0.371535    1.734156
  C     -0.853733    0.943080    0.040869
  H     -1.115882    0.914924   -1.031910
  C      0.632227    1.299101    0.181315
  H      0.861348    1.478699    1.238839
  C      1.503624    0.153118   -0.332988
  H      1.327479    0.015224   -1.414967
  C      1.094045   -1.148184    0.381468
  H      1.253827   -1.010904    1.473215
  O     -0.251716   -1.422456    0.131609
  O      1.817270   -2.231024   -0.086375
  O      2.870211    0.380321   -0.091408
  O      0.941160    2.514527   -0.467994
  O     -1.654417    1.878573    0.715651
  O     -2.641350   -1.157084   -1.119278
  H     -3.264981   -0.124462    0.493861
  H     -2.788436   -1.816277    0.830337
  H      2.728401   -1.935981   -0.213673
  H      3.038851    1.325673   -0.199782
  H      0.718482    2.436699   -1.404948
  H     -1.320270    2.761685    0.510097
  H     -1.933535   -1.776701   -1.340870

----------------------------
CARTESIAN COORDINATES (A.U.)
----------------------------
  NO LB      ZA    FRAG     MASS         X           Y           Z
   0 C     6.0000    0    12.011   -4.817512   -1.724033    0.482665
   1 C     6.0000    0    12.011   -2.149556   -0.840001    1.209222
   2 H     1.0000    0     1.008   -1.981873   -0.702099    3.277080
   3 C     6.0000    0    12.011   -1.613322    1.782164    0.077231
   4 H     1.0000    0     1.008   -2.108711    1.728956   -1.950027
   5 C     6.0000    0    12.011    1.194736    2.454945    0.342636
   6 H     1.0000    0     1.008    1.627712    2.794336    2.341066
   7 C     6.0000    0    12.011    2.841438    0.289352   -0.629255
   8 H     1.0000    0     1.008    2.508571    0.028770   -2.673901
   9 C     6.0000    0    12.011    2.067446   -2.169753    0.720870
  10 H     1.0000    0     1.008    2.369389   -1.910333    2.783973
  11 O     8.0000    0    15.999   -0.475673   -2.688052    0.248705
  12 O     8.0000    0    15.999    3.434143   -4.216024   -0.163226
  13 O     8.0000    0    15.999    5.423913    0.718702   -0.172736
  14 O     8.0000    0    15.999    1.778534    4.751767   -0.884380
  15 O     8.0000    0    15.999   -3.126395    3.549988    1.352384
  16 O     8.0000    0    15.999   -4.991428   -2.186572   -2.115129
  17 H     1.0000    0     1.008   -6.169919   -0.235200    0.933262
  18 H     1.0000    0     1.008   -5.269380   -3.432265    1.569110
  19 H     1.0000    0     1.008    5.155930   -3.658473   -0.403784
  20 H     1.0000    0     1.008    5.742597    2.505159   -0.377533
  21 H     1.0000    0     1.008    1.357734    4.604693   -2.654967
  22 H     1.0000    0     1.008   -2.494949    5.218829    0.963943
  23 H     1.0000    0     1.008   -3.653852   -3.357479   -2.533876

------------------------------------------------------------------------------
                   ___                                                        
                  /   \      - P O W E R E D   B Y -                         
                 /     \                                                     
                 |  |  |   _    _      __       _____    __    __             
                 |  |  |  | |  | |    /  \     |  _  \  |  |  /  |          
                  \  \/   | |  | |   /    \    | | | |  |  | /  /          
                 / \  \   | |__| |  /  /\  \   | |_| |  |  |/  /          
                |  |  |   |  __  | /  /__\  \  |    /   |      \           
                |  |  |   | |  | | |   __   |  |    \   |  |\   \          
                \     /   | |  | | |  |  |  |  | |\  \  |  | \   \       
                 \___/    |_|  |_| |__|  |__|  |_| \__\ |__|  \__/        
                                                                              
                      - O R C A' S   B I G   F R I E N D -                    
                                      &                                       
                       - I N T E G R A L  F E E D E R -                       
                                                                              
 v1 FN, 2020, v2 2021, v3 2022-2024                                           
------------------------------------------------------------------------------


----------------------
SHARK INTEGRAL PACKAGE
----------------------

Number of atoms                             ...     24
Number of basis functions                   ...    318
Number of shells                            ...    150
Maximum angular momentum                    ...      2
Integral batch strategy                     ... SHARK/LIBINT Hybrid
RI-J (if used) integral strategy            ... SPLIT-RIJ (Revised 2003 algorithm where possible)
Printlevel                                  ...      1
Contraction scheme used                     ... SEGMENTED contraction
Prescreening option                         ... SCHWARTZ
   Thresh                                   ... 3.000e-11
   Tcut                                     ... 1.000e-12
   Tpresel                                  ... 1.000e-12 
Coulomb Range Separation                    ... NOT USED
Exchange Range Separation                   ... NOT USED
Multipole approximations                    ... NOT USED
Finite Nucleus Model                        ... NOT USED
CABS basis                                  ... NOT available
Auxiliary Coulomb fitting basis             ... AVAILABLE
   # of basis functions in Aux-J            ...    720
   # of shells in Aux-J                     ...    240
   Maximum angular momentum in Aux-J        ...      4
Auxiliary J/K fitting basis                 ... NOT available
Auxiliary Correlation fitting basis         ... NOT available
Auxiliary 'external' fitting basis          ... NOT available

Checking pre-screening integrals            ... done (  0.0 sec) Dimension = 150
Check shell pair data                       ... done (  0.0 sec)
Shell pair information
Shell pair cut-off parameter TPreSel        ...   1.0e-12
Total number of shell pairs                 ...     11325
Shell pairs after pre-screening             ...      9860
Total number of primitive shell pairs       ...     40203
Primitive shell pairs kept                  ...     24081
          la=0 lb=0:   2989 shell pairs
          la=1 lb=0:   3513 shell pairs
          la=1 lb=1:   1060 shell pairs
          la=2 lb=0:   1343 shell pairs
          la=2 lb=1:    794 shell pairs
          la=2 lb=2:    161 shell pairs

Calculating one electron integrals          ... done (  0.1 sec)
Calculating RI/J V-Matrix + Cholesky decomp.... done (  0.0 sec)
Calculating Nuclear repulsion               ... done (  0.0 sec) ENN=    834.374537220166 Eh

Diagonalization of the overlap matrix:
Smallest eigenvalue                        ... 2.639e-05
Time for diagonalization                   ...    0.010 sec
Threshold for overlap eigenvalues          ... 1.000e-07
Number of eigenvalues below threshold      ... 0
Time for construction of square roots      ...    0.006 sec
Total time needed                          ...    0.017 sec

-------------------
DFT GRID GENERATION
-------------------

General Integration Accuracy     IntAcc      ... 4.388
Radial Grid Type                 RadialGrid  ... OptM3 with GC (2021)
Angular Grid (max. ang.)         AngularGrid ... 4 (Lebedev-302)
Angular grid pruning method      GridPruning ... 4 (adaptive)
Weight generation scheme         WeightScheme... mBecke (2022)
Basis function cutoff            BFCut       ... 1.0000e-11
Integration weight cutoff        WCut        ... 1.0000e-14
Partially contracted basis set               ... off
Rotationally invariant grid construction     ... off
Angular grids for H and He will be reduced by one unit
Diffuse basis detected: some atoms will have their outermost
                        angular grid increased by 1.

Total number of grid points                  ...   111969
Total number of batches                      ...     1763
Average number of points per batch           ...       63
Average number of grid points per atom       ...     4665
Initializing property integral containers    ... done (  0.0 sec)

SHARK setup successfully completed in   1.4 seconds

Maximum memory used throughout the entire STARTUP-calculation: 56.7 MB
Occupation numbers will be reassigned to an Aufbau configuration
             **** ENERGY FILE WAS UPDATED (xtb_opt.en.tmp) ****
Finished Guess after   0.1 sec
Maximum memory used throughout the entire GUESS-calculation: 27.5 MB
----------------------------------------D-I-I-S--------------------------------------------
Iteration    Energy (Eh)           Delta-E    RMSDP     MaxDP     DIISErr   Damp  Time(sec)
-------------------------------------------------------------------------------------------
               ***  Starting incremental Fock matrix formation  ***
                              *** Initializing SOSCF ***
---------------------------------------S-O-S-C-F--------------------------------------
Iteration    Energy (Eh)           Delta-E    RMSDP     MaxDP     MaxGrad    Time(sec)
--------------------------------------------------------------------------------------
    1    -687.0876549947737431     0.00e+00  9.30e-06  5.77e-04  1.04e-05     4.3
               *** Restarting incremental Fock matrix formation ***
    2    -687.0876549612750068     3.35e-08  1.54e-05  1.14e-03  4.33e-05     4.4
    3    -687.0876544435069491     5.18e-07  1.26e-05  9.82e-04  8.18e-05     3.1
    4    -687.0876551762165718    -7.33e-07  4.96e-06  3.45e-04  4.29e-06     3.0
                  *** Gradient check signals convergence ***

               *****************************************************
               *                     SUCCESS                       *
               *           SCF CONVERGED AFTER   4 CYCLES          *
               *****************************************************

             **** ENERGY FILE WAS UPDATED (xtb_opt.en.tmp) ****

----------------
TOTAL SCF ENERGY
----------------

Total Energy       :       -687.08765517621657 Eh          -18696.60561 eV

Components:
Nuclear Repulsion  :        834.37453722016573 Eh           22704.48543 eV
Electronic Energy  :      -1521.46219239638231 Eh          -41401.09105 eV
One Electron Energy:      -2598.32994342958409 Eh          -70704.15229 eV
Two Electron Energy:       1076.86775103320178 Eh           29303.06124 eV

Virial components:
Potential Energy   :      -1371.53776400910147 Eh          -37321.43994 eV
Kinetic Energy     :        684.45010883288489 Eh           18624.83433 eV
Virial Ratio       :          2.00385352607779

DFT components:
N(Alpha)           :       47.999905926605 electrons
N(Beta)            :       47.999905926605 electrons
N(Total)           :       95.999811853209 electrons
E(X)               :      -85.284978129711 Eh       
E(C)               :       -3.195096700053 Eh       
E(XC)              :      -88.480074829764 Eh       

---------------
SCF CONVERGENCE
---------------

  Last Energy change         ...    7.3271e-07  Tolerance :   1.0000e-07
  Last MAX-Density change    ...    3.4487e-04  Tolerance :   1.0000e-07
  Last RMS-Density change    ...    4.9601e-06  Tolerance :   5.0000e-09
  Last DIIS Error            ...    1.9941e-04  Tolerance :   1.0000e-07
  Last Orbital Gradient      ...    4.2939e-06  Tolerance :   1.0000e-04
  Last Orbital Rotation      ...    8.2375e-06  Tolerance :   1.0000e-04


----------------
ORBITAL ENERGIES
----------------

  NO   OCC          E(Eh)            E(eV) 
   0   2.0000     -18.987365      -516.6725 
   1   2.0000     -18.981797      -516.5210 
   2   2.0000     -18.975437      -516.3479 
   3   2.0000     -18.966647      -516.1087 
   4   2.0000     -18.966145      -516.0951 
   5   2.0000     -18.949963      -515.6547 
   6   2.0000     -10.147811      -276.1360 
   7   2.0000     -10.105324      -274.9798 
   8   2.0000     -10.100424      -274.8465 
   9   2.0000     -10.100146      -274.8390 
  10   2.0000     -10.098580      -274.7963 
  11   2.0000     -10.080239      -274.2972 
  12   2.0000      -1.060907       -28.8687 
  13   2.0000      -1.033367       -28.1193 
  14   2.0000      -1.015620       -27.6364 
  15   2.0000      -1.000641       -27.2288 
  16   2.0000      -0.997352       -27.1393 
  17   2.0000      -0.983878       -26.7727 
  18   2.0000      -0.761488       -20.7211 
  19   2.0000      -0.744284       -20.2530 
  20   2.0000      -0.660405       -17.9705 
  21   2.0000      -0.626129       -17.0378 
  22   2.0000      -0.611919       -16.6512 
  23   2.0000      -0.568424       -15.4676 
  24   2.0000      -0.524680       -14.2773 
  25   2.0000      -0.517769       -14.0892 
  26   2.0000      -0.507130       -13.7997 
  27   2.0000      -0.480456       -13.0739 
  28   2.0000      -0.474537       -12.9128 
  29   2.0000      -0.467094       -12.7103 
  30   2.0000      -0.460689       -12.5360 
  31   2.0000      -0.445904       -12.1337 
  32   2.0000      -0.402050       -10.9403 
  33   2.0000      -0.395757       -10.7691 
  34   2.0000      -0.391155       -10.6439 
  35   2.0000      -0.386619       -10.5204 
  36   2.0000      -0.360402        -9.8070 
  37   2.0000      -0.358292        -9.7496 
  38   2.0000      -0.341938        -9.3046 
  39   2.0000      -0.330129        -8.9833 
  40   2.0000      -0.311248        -8.4695 
  41   2.0000      -0.300206        -8.1690 
  42   2.0000      -0.292080        -7.9479 
  43   2.0000      -0.272792        -7.4230 
  44   2.0000      -0.269615        -7.3366 
  45   2.0000      -0.243103        -6.6152 
  46   2.0000      -0.242151        -6.5893 
  47   2.0000      -0.234162        -6.3719 
  48   0.0000       0.019073         0.5190 
  49   0.0000       0.049248         1.3401 
  50   0.0000       0.052439         1.4269 
  51   0.0000       0.070438         1.9167 
  52   0.0000       0.079219         2.1557 
  53   0.0000       0.087857         2.3907 
  54   0.0000       0.097278         2.6471 
  55   0.0000       0.110569         3.0087 
  56   0.0000       0.120182         3.2703 
  57   0.0000       0.131276         3.5722 
  58   0.0000       0.139258         3.7894 
*Only the first 10 virtual orbitals were printed.
Total SCF time: 0 days 0 hours 0 min 16 sec 
Finished LeanSCF after  16.2 sec

Maximum memory used throughout the entire LEANSCF-calculation: 40.1 MB


-------------------------------------------------------------------------------
                          DFT DISPERSION CORRECTION                            
                                                                               
                                DFTD4 V3.4.0                                   
-------------------------------------------------------------------------------
-------------------------   ----------------
Dispersion correction           -0.008117456
-------------------------   ----------------

------------------   -----------------
gCP correction             0.019714535
------------------   -----------------

-------------------------   --------------------
FINAL SINGLE POINT ENERGY      -687.076058097080
-------------------------   --------------------

------------------------------------------------------------------------------
                         ORCA SCF GRADIENT CALCULATION
------------------------------------------------------------------------------

Nuc. rep. gradient        (SHARK) ... done (  0.0 sec)
HCore & Overlap gradient  (SHARK) ... done (  1.1 sec)
Split-RIJ-J gradient      (SHARK) ... done (  6.1 sec)
XC gradient                       ... done ( 16.9 sec)
Dispersion correction             ... done (  0.0 sec)

-------------------
DISPERSION GRADIENT
-------------------

   1   C   :   -0.000108557   -0.000044740    0.000015521
   2   C   :   -0.000042682   -0.000034139    0.000030162
   3   H   :   -0.000028964   -0.000011709    0.000037942
   4   C   :   -0.000040704    0.000049149    0.000000770
   5   H   :   -0.000031761    0.000026534   -0.000014851
   6   C   :    0.000036639    0.000062738    0.000007506
   7   H   :    0.000018619    0.000042158    0.000014874
   8   C   :    0.000079641   -0.000001413   -0.000015234
   9   H   :    0.000046313   -0.000001640   -0.000026027
  10   C   :    0.000049973   -0.000044634    0.000027877
  11   H   :    0.000033843   -0.000038837    0.000016099
  12   O   :   -0.000009098   -0.000080315    0.000012557
  13   O   :    0.000097772   -0.000091363   -0.000003567
  14   O   :    0.000109466    0.000027160   -0.000011577
  15   O   :    0.000029476    0.000103838   -0.000048860
  16   O   :   -0.000060860    0.000112296    0.000030023
  17   O   :   -0.000085505   -0.000068297   -0.000057246
  18   H   :   -0.000043266   -0.000010933   -0.000000212
  19   H   :   -0.000040676   -0.000026043    0.000003491
  20   H   :    0.000015480   -0.000036933   -0.000001958
  21   H   :    0.000039753    0.000001787   -0.000003009
  22   H   :    0.000018919    0.000050171   -0.000005863
  23   H   :   -0.000025975    0.000032825    0.000013410
  24   H   :   -0.000057845   -0.000017662   -0.000021830

Difference to translation invariance:
           :   -0.0000000000    0.0000000000    0.0000000000

Difference to rotation invariance:
           :   -0.0000000000   -0.0000000000    0.0000000000

Norm of the Dispersion gradient    ...    0.0003899894
RMS gradient                       ...    0.0000459607
MAX gradient                       ...    0.0001122958
gCP correction                   ... done

------------------
CARTESIAN GRADIENT
------------------

   1   C   :   -0.007838770    0.000169977   -0.010923072
   2   C   :    0.011427442   -0.009346093   -0.001070600
   3   H   :    0.000521491   -0.000256646   -0.002424711
   4   C   :   -0.013212123    0.004325035    0.004304295
   5   H   :   -0.001100878    0.001771167    0.001127721
   6   C   :    0.005460471    0.016934344   -0.000112962
   7   H   :    0.000425114    0.001080453   -0.001592898
   8   C   :    0.013166506   -0.001414565   -0.000044246
   9   H   :    0.002205114    0.001548362    0.000483778
  10   C   :   -0.009282843   -0.015888351   -0.004997957
  11   H   :    0.001045854    0.000026641   -0.000442722
  12   O   :    0.002102996    0.007980813    0.007239912
  13   O   :   -0.002975995    0.010134639    0.004072999
  14   O   :   -0.010382302   -0.001075725   -0.004016578
  15   O   :   -0.004224382   -0.014862445    0.003863728
  16   O   :    0.007758472   -0.006994267   -0.006966394
  17   O   :    0.000943689    0.001848874    0.014577871
  18   H   :    0.001049343   -0.000545008   -0.002265289
  19   H   :    0.001206109    0.000845569   -0.002889279
  20   H   :    0.000393702    0.000154099   -0.000269664
  21   H   :   -0.000187156    0.000937739    0.000983527
  22   H   :    0.000354477    0.001466591    0.000352179
  23   H   :    0.000307301    0.001325001    0.000530318
  24   H   :    0.000836364   -0.000166205    0.000480043

Difference to translation invariance:
           :    0.0000000000    0.0000000000   -0.0000000000

Difference to rotation invariance:
           :   -0.0000915180   -0.0000608684    0.0002151866

Norm of the Cartesian gradient     ...    0.0501826490
RMS gradient                       ...    0.0059140819
MAX gradient                       ...    0.0169343445

-------
TIMINGS
-------

Total SCF gradient time     ....       24.104 sec

Densities                   ....       0.001 sec  (  0.0%)
One electron gradient       ....       1.110 sec  (  4.6%)
RI-J Coulomb gradient       ....       6.105 sec  ( 25.3%)
XC gradient                 ....      16.851 sec  ( 69.9%)

Maximum memory used throughout the entire SCFGRAD-calculation: 48.2 MB

------------------------------------------------------------------------------
                              ORCA PROPERTY CALCULATIONS
------------------------------------------------------------------------------

GBWName                                 ... xtb_opt.gbw
Number of atoms                         ...     24
Number of basis functions               ...    318
Max core memory                         ...   1024 MB

Electric properties:
Dipole moment                           ... YES
Quadrupole moment                       ...  NO
Static polarizability (Dipole/Dipole)   ...  NO
Static polarizability (Dipole/Quad.)    ...  NO
Static polarizability (Quad./Quad.)     ...  NO
Static polarizability (Velocity)        ...  NO

Atomic electric properties:
Dipole moment                           ...  NO
Quadrupole moment                       ...  NO
Static polarizability                   ...  NO

Choice of electric origin               ... Center of mass
Position of electric origin             ...    -0.000006     0.000002     0.000005

General magnetic properties:
Magnetizability                         ...  NO

EPR properties:
g-Tensor (aka g-matrix)                 ...  NO
Zero-Field splitting spin-orbit         ...  NO
Zero-field splitting spin-spin          ...  NO
Hyperfine couplings                     ...  NO (   0 nuclei)
Quadrupole couplings                    ...  NO (   0 nuclei)
Contact density                         ...  NO (   0 nuclei)

NMR properties:
Chemical shifts                         ...  NO (   0 nuclei)
Spin-rotation constants                 ...  NO (   0 nuclei)
Spin-spin couplings                     ...  NO (   0 nuclei,    0 pairs)

Choice of magnetic origin               ... GIAO
Position of magnetic origin             ...     0.000000     0.000000     0.000000

Properties with geometric perturbations:
SCF Hessian                             ...  NO
IR spectrum                             ...  NO
VCD spectrum                            ...  NO
X-ray spectroscopy properties:
SCF XES/XAS/RIXS spectra                ...  NO


-------------
DIPOLE MOMENT
-------------

Method             : SCF
Type of density    : Electron Density
Multiplicity       :   1
Irrep              :   0
Energy             :  -687.0876551762165718 Eh
Relativity type    : 
Basis              : AO
                                X                 Y                 Z
Electronic contribution:      2.079441642      -0.888415332      -0.719717850
Nuclear contribution   :     -1.432028896       1.779199275       0.619063509
                        -----------------------------------------
Total Dipole Moment    :      0.647412746       0.890783943      -0.100654341
                        -----------------------------------------
Magnitude (a.u.)       :      1.105789579
Magnitude (Debye)      :      2.810693741



--------------------
Rotational spectrum 
--------------------
 
Rotational constants in cm-1:             0.038646             0.027604             0.018027 
Rotational constants in MHz :          1158.579780           827.547770           540.437430 

Dipole components along the rotational axes: 
x,y,z [a.u.] :     0.757582     0.795881    -0.124152 
x,y,z [Debye]:     1.925620     2.022968    -0.315569 

 

Dipole moment calculation done in   0.0 sec 

Maximum memory used throughout the entire PROP-calculation: 26.1 MB

--------------------------------
SUGGESTED CITATIONS FOR THIS RUN
--------------------------------

Below you find a list of papers that are relevant to this ORCA run
We neither can nor want to force you to cite these papers, but we appreciate if you do
You receive ORCA, which is the product of decades of hard work by many enthusiastic individuals, for free
The only thing we kindly ask in return is that you cite our papers,
We deeply appreciate it, if you show your appreciation for ORCA by not just citing the generic ORCA reference.

Please note that relegating all ORCA citations to the supporting information does *not* help us.
SI sections are not indexed - citations you put there will not count into any citation statistics
But we need these citations in order to attract the funding resources that allow us to do what we are doing

Therefore, if you are a happy ORCA user, please consider citing a few of the papers listed below in the main body of your paper

In addition to the list printed below, the program has created the file xtb_opt.bibtex that contains the list in bibtex format
You can import this file easily into all common literature databanks and citation aid programs


List of essential papers. We consider these as the minimum necessary citations

  1. Neese,F.
     Software update: the ORCA program system, version 5.0
     WIRES Comput. Molec. Sci., 2022 12(1)e1606
     doi.org/10.1002/wcms.1606
  2. Grimme,S.; Hansen,A.; Ehlert,S.; Mewes,J.
     r2SCAN-3c: A 'Swiss army knife' composite electronic-structure method
     J. Chem. Phys., 2021 154 064103
     doi.org/10.1063/5.0040021

List of papers to cite with high priority. The work reported in these papers was absolutely
necessary for this run to complete.
Our perspective: the developers of density functionals and basis sets usually get cited in chemistry papers
Good! But without the algorithms to do something with them, the functionals or basis sets would not do anything.
Hence, in our opinion, the algorithm design and method developments papers are equally worthy of getting cited

  1. Neese,F.
     An improvement of the resolution of the identity approximation for the formation of the Coulomb matrix
     J. Comp. Chem., 2003 24(14)1740-1747
     doi.org/10.1002/jcc.10318
  2. Neese,F.
     The SHARK Integral Generation and Digestion System
     J. Comp. Chem., 2022  1-16
     doi.org/10.1002/jcc.26942
  3. Lehtola,S.; Steigemann,C.; Oliveira,M.; Marques,M.
     Recent developments in Libxc - A comprehensive library of functionals for density functional theory
     Software X, 2018 7 
     doi.org/10.1016/j.softx.2017.11.002
  4. Caldeweyher,E.; Bannwarth,C.; Grimme,S.
     Extension of the D3 dispersion coefficient model
     J. Chem. Phys., 2017 147 034112
     doi.org/10.1063/1.4993215
  5. Caldeweyher,E.; Ehlert,S.; Hansen,A.; Neugebauer,H.; Spicher,S.; Bannwarth,C.; Grimme,S.
     A generally applicable atomic-charge dependent London dispersion correction
     J. Chem. Phys., 2019 150 154122
     doi.org/10.1063/1.5090222
  6. Caldeweyher,E.; Mewes,J.; Ehlert,S.; Grimme,S.
     Extension and evaluation of the D4 London-dispersion model for periodic systems
     Phys. Chem. Chem. Phys., 2020 22(16)8499-8512
     doi.org/10.1039/D0CP00502A
  7. Wittmann,L.; Gordiy,I.; Friede,M.; Helmich-Paris,B.; Grimme,S.; Hansen,A.; Bursch,M.
     Extension of the D3 and D4 London Dispersion Corrections to the full Actinides Series
     Phys. Chem. Chem. Phys., 2024 26(32)21379-21394
     doi.org/https://doi.org/10.1039/D4CP01514B 

List of suggested additional citations. These are papers that are important in the 'surrounding' of 
of this run, or papers that preceded the highly important papers. If you like your results we are grateful for a citation.

  1. Neese,F.
     The ORCA program system
     WIRES Comput. Molec. Sci., 2012 2(1)73-78
     doi.org/10.1002/wcms.81
  2. Neese,F.
     Software update: the ORCA program system, version 4.0
     WIRES Comput. Molec. Sci., 2018 8(1)1-6
     doi.org/10.1002/wcms.1327
  3. Neese,F.; Wennmohs,F.; Becker,U.; Riplinger,C.
     The ORCA quantum chemistry program package
     J. Chem. Phys., 2020 152 Art. No. L224108
     doi.org/10.1063/5.0004608

List of optional additional citations

  1. Neese,F.
     Approximate second-order SCF convergence for spin unrestricted wavefunctions
     Chem. Phys. Lett., 2000 325(1-3)93-98
     doi.org/10.1016/s0009-2614(00)00662-x

Timings for individual modules:

Sum of individual times          ...       42.153 sec (=   0.703 min)
Startup calculation              ...        1.430 sec (=   0.024 min)   3.4 %
SCF iterations                   ...       16.342 sec (=   0.272 min)  38.8 %
Property calculations            ...        0.083 sec (=   0.001 min)   0.2 %
SCF Gradient evaluation          ...       24.298 sec (=   0.405 min)  57.6 %
                             ****ORCA TERMINATED NORMALLY****
TOTAL RUN TIME: 0 days 0 hours 0 minutes 42 seconds 742 msec
  ------------------------------------------------------------------------
          * successful ORCA run, taking over control again...

         :::::::::::::::::::::::::::::::::::::::::::::::::::::
         ::                  ORCA SUMMARY                   ::
         :::::::::::::::::::::::::::::::::::::::::::::::::::::
         :: total energy            -687.076058097080 Eh    ::
         :: gradient norm              0.050182648966 Eh/a0 ::
         :: HOMO-LUMO gap              0.000000000000 eV    ::
         :::::::::::::::::::::::::::::::::::::::::::::::::::::

      ----------------------------------------------------------- 
     |                       L-ANC optimizer                     |
      ----------------------------------------------------------- 
          low memory version by Sebastian Ehlert

          ...................................................
          :                      SETUP                      :
          :.................................................:
          :   energy convergence        0.5000000E-05 Eh    :
          :   grad. convergence         0.1000000E-02 Eh/a0 :
          :   optimization log               true           :
          :   writing optlog all                1     steps :
          :   Hessian reset                     8     steps :
          :   maximium step len.        1.0000000     a0    :
          :   LBFGS images                      8           :
          ...................................................
 * calculating model hessian...
Using Lindh-Hessian (1995)
 Shifting diagonal of input Hessian by   1.000000000000000E-002
 Lowest  eigenvalues of input Hessian
    0.000000    0.000000    0.000000    0.000000    0.000000    0.000000
    0.012893    0.013960    0.016578    0.016853    0.018999    0.023056
    0.025199    0.026359    0.029330    0.033569    0.034820    0.036950
 Highest eigenvalues
    1.493110    1.505773    1.508461    1.520687    1.563099    1.665208
 

........................................................................
.............................. CYCLE    1 ..............................
........................................................................
                         * ORCA takes the control...
  ------------------------------------------------------------------------

                                 *****************
                                 * O   R   C   A *
                                 *****************

                                            #,                                       
                                            ###                                      
                                            ####                                     
                                            #####                                    
                                            ######                                   
                                           ########,                                 
                                     ,,################,,,,,                         
                               ,,#################################,,                 
                          ,,##########################################,,             
                       ,#########################################, ''#####,          
                    ,#############################################,,   '####,        
                  ,##################################################,,,,####,       
                ,###########''''           ''''###############################       
              ,#####''   ,,,,##########,,,,          '''####'''          '####       
            ,##' ,,,,###########################,,,                        '##       
           ' ,,###''''                  '''############,,,                           
         ,,##''                                '''############,,,,        ,,,,,,###''
      ,#''                                            '''#######################'''  
     '                                                          ''''####''''         
             ,#######,   #######,   ,#######,      ##                                
            ,#'     '#,  ##    ##  ,#'     '#,    #''#        ,####,   ,####,        
            ##       ##  ##   ,#'  ##            #'  '#       #'       #'  '#        
            ##       ##  #######   ##           ,######,      #####,   #    #        
            '#,     ,#'  ##    ##  '#,     ,#' ,#      #,     #,   #   #,  ,#        
             '#######'   ##     ##  '#######'  #'      '#     '####' # '####'        



                #########################################################
                #                        -***-                          #
                #          Department of theory and spectroscopy        #
                #                                                       #
                #                      Frank Neese                      #
                #                                                       #
                #     Directorship, Architecture, Infrastructure        #
                #                    SHARK, DRIVERS                     #
                #        Core code/Algorithms in most modules           #
                #                                                       #
                #        Max Planck Institute fuer Kohlenforschung      #
                #                Kaiser Wilhelm Platz 1                 #
                #                 D-45470 Muelheim/Ruhr                 #
                #                      Germany                          #
                #                                                       #
                #                  All rights reserved                  #
                #                        -***-                          #
                #########################################################


                         Program Version 6.0.1  -  RELEASE   -


 With contributions from (in alphabetic order):
[Max-Planck-Institut fuer Kohlenforschung]                               
  Daniel Aravena         : Magnetic Suceptibility                        
  Michael Atanasov       : Ab Initio Ligand Field Theory (pilot matlab implementation)
  Alexander A. Auer      : GIAO ZORA, VPT2 properties, NMR spectrum      
  Ute Becker             : All parallelization in ORCA, NUMFREQ, NUMCALC 
  Giovanni Bistoni       : ED, misc. LED, open-shell LED, HFLD           
  Martin Brehm           : Molecular dynamics                            
  Dmytro Bykov           : pre 5.0 version of the SCF Hessian            
  Marcos Casanova-Páez   : Triplet and SCS-CIS(D). UHF-(DLPNO)-IP/EA/STEOM-CCSD. UHF-CVS-IP/STEOM-CCSD   
  Vijay G. Chilkuri      : MRCI spin determinant printing, contributions to CSF-ICE 
  Pauline Colinet        : FMM embedding                                 
  Dipayan Datta          : RHF DLPNO-CCSD density                        
  Achintya Kumar Dutta   : EOM-CC, STEOM-CC                              
  Nicolas Foglia         : Exact transition moments, OPA infrastructure, MCD improvements    
  Dmitry Ganyushin       : Spin-Orbit,Spin-Spin,Magnetic field MRCI      
  Miquel Garcia-Rates    : C-PCM and meta-GGA Hessian, CCSD/C-PCM, Gaussian charge scheme 
  Tiago L. C. Gouveia    : GS-ROHF, GS-ROCIS                             
  Yang Guo               : DLPNO-NEVPT2, F12-NEVPT2, CIM, IAO-localization        
  Andreas Hansen         : Spin unrestricted coupled pair/coupled cluster methods 
  Ingolf Harden          : AUTO-CI MPn and infrastructure                
  Benjamin Helmich-Paris : MC-RPA, TRAH-(SCF,CASSCF), AVAS, COSX integrals, SCF dyn. polar. 
  Lee Huntington         : MR-EOM, pCC                                   
  Robert Izsak           : Overlap fitted RIJCOSX, COSX-SCS-MP3, EOM     
  Riya Kayal             : Wick's Theorem for AUTO-CI, AUTO-CI UHF-CCSDT 
  Emily Kempfer          : AUTO-CI, RHF CISDT and CCSDT                  
  Christian Kollmar      : KDIIS, OOCD, Brueckner-CCSD(T), CCSD density, CASPT2, CASPT2-K, improved NEVPT2 
  Axel Koslowski         : Symmetry handling                             
  Simone Kossmann        : meta-GGA functionals, TD-DFT gradient, OOMP2, (MP2 Hessian; deprecated post 5.0) 
  Lucas Lang             : DCDCAS                                        
  Marvin Lechner         : AUTO-CI (C++ implementation), FIC-MRCC        
  Spencer Leger          : CASSCF response                               
  Dagmar Lenk            : GEPOL surface, SMD, ORCA-2-JSON               
  Dimitrios Liakos       : Extrapolation schemes; Compound Job, initial MDCI parallelization 
  Dimitrios Manganas     : Further ROCIS development; embedding schemes. LFT, Crystal Embedding 
  Dimitrios Pantazis     : SARC Basis sets                               
  Anastasios Papadopoulos: AUTO-CI, single reference methods and gradients 
  Taras Petrenko         : pre 6.0 DFT Hessian and TD-DFT gradient, (ASA, deprecated), ECA, 1-Electron XAS/XES, NRVS 
  Peter Pinski           : DLPNO-MP2, DLPNO-MP2 Gradient                 
  Christoph Reimann      : Effective Core Potentials                     
  Marius Retegan         : Local ZFS, SOC                                
  Christoph Riplinger    : Optimizer, TS searches, QM/MM, DLPNO-CCSD(T), (RO)-DLPNO pert. Triples 
  Michael Roemelt        : Original ROCIS implementation                 
  Masaaki Saitow         : Open-shell DLPNO-CCSD energy and density      
  Barbara Sandhoefer     : DKH picture change effects                    
  Kantharuban Sivalingam : CASSCF convergence/infrastructure, NEVPT2 and variants, FIC-MRCI 
  Bernardo de Souza      : ESD, SOC TD-DFT                               
  Georgi L. Stoychev     : AutoAux, RI-MP2 NMR, DLPNO-MP2 response, X2C  
  Van Anh Tran           : RI-MP2 g-tensors                              
  Willem Van den Heuvel  : Paramagnetic NMR                              
  Zikuan Wang            : NOTCH, Electric field optimization            
  Frank Wennmohs         : Technical directorship and infrastructure     
  Hang Xu                : AUTO-CI-Response properties                   
                                                                         
[FACCTs GmbH]                                                            
  Markus Bursch, Miquel Garcia-Rates, Christoph Riplinger, Bernardo de Souza, Georgi L. Stoychev 
                                                                 
  APM, Basis sets (HGBS, AHGBS, def-TZVP (Ac-Lr), def2-XVPD (La-Lu)), CI-OPT, improved COSX, DLPNO-Multilevel,           
  DOCKER, DRACO, updates on ESD, GOAT, IRC, LR-CPCM, MBIS, meta-GGA TD-DFT gradient, ML-optimized integration grids, 
  MM, NACMEs, nearIR, NEB, NEB-TS, NL-DFT gradient (VV10), 2- and 3-layer-ONIOM, interface openCOSMO-RS, QMMM,   
  Crystal-QMMM, SF, symmetry and pop. for TD-DFT, r2SCAN hybrids, SOLVATOR                                   
                                                                         
[Other institutions]                                                     
  V. Asgeirsson          : NEB                                           
  Christoph Bannwarth    : sTDA-DFT, sTD-DFT, PBEh-3c, B97-3c, D3        
  Sebastian Ehlert       : rSCAN, r2SCAN, r2SCAN-3c, D4, dhf basis sets  
  Marvin Friede          : D4 for Fr, Ra, Ac-Lr                          
  Lars Goerigk           : TD-DFT with DH, B97 family of functionals     
  Stefan Grimme          : VdW corrections, initial TS optimization, DFT functionals, gCP, sTDA/sTD-DF 
  Waldemar Hujo          : DFT-NL                                        
  H. Jonsson             : NEB                                           
  Holger Kruse           : gCP                                           
  Marcel Mueller         : wB97X-3c, vDZP basis set                      
  Hagen Neugebauer       : wr2SCAN                                       
  Tobias Risthaus        : range-separated hybrid DFT                    
  Lukas Wittmann         : regularized MP2, r2SCAN double-hybrids, wr2SCAN        
                                                                         
We gratefully acknowledge several colleagues who have allowed us to      
interface, adapt or use parts of their codes:                            
  Ed Valeev, F. Pavosevic, A. Kumar             : LibInt (2-el integral package), F12 methods 
  Garnet Chan, S. Sharma, J. Yang, R. Olivares  : DMRG                   
  Ulf Ekstrom                                   : XCFun DFT Library      
  Mihaly Kallay                                 : mrcc  (arbitrary order and MRCC methods)
  Frank Weinhold                                : gennbo (NPA and NBO analysis)           
  Simon Mueller                                 : openCOSMO-RS                            
  Christopher J. Cramer and Donald G. Truhlar   : smd solvation model                     
  S Lehtola, MJT Oliveira, MAL Marques          : LibXC Library                           
  Liviu Ungur et al                             : ANISO software                          


 Your calculation uses the libint2 library for the computation of 2-el integrals
 For citations please refer to: http://libint.valeyev.net

 Your ORCA version has been built with support for libXC version: 6.2.2
 For citations please refer to: https://libxc.gitlab.io

 This ORCA versions uses:
   CBLAS   interface :  Fast vector & matrix operations
   LAPACKE interface :  Fast linear algebra routines
   SCALAPACK package :  Parallel linear algebra routines
   Shared memory     :  Shared parallel matrices
   BLAS/LAPACK       :  OpenBLAS 0.3.27  USE64BITINT DYNAMIC_ARCH NO_AFFINITY Zen SINGLE_THREADED
        Core in use  :  Zen
   Copyright (c) 2011-2014, The OpenBLAS Project




***************************************
The coordinates will be read from file: xtb_opt.xyz
***************************************


Your calculation utilizes the geometrical counterpoise correction gCP
Please cite in your paper:
H.Kruse, S. Grimme J.Chem.Phys., 136, (2012), 154101 
   

Your calculation utilizes the atom-pairwise dispersion correction
based on EEQ partial charges (D4)


================================================================================

----- Orbital basis set information -----
Your calculation utilizes the basis: def2-mTZVPP
   Stefan Grimme, Andreas Hansen, Sebastian Ehlert, and Jan-Michael Mewes 
   J. Chem. Phys. 154, 064103 (2021). DOI: 10.1063/5.0040021

----- AuxJ basis set information -----
Your calculation utilizes the auxiliary basis: def2/J
   F. Weigend, Phys. Chem. Chem. Phys. 8, 1057 (2006).

================================================================================
                                        WARNINGS
                       Please study these warnings very carefully!
================================================================================

WARNING: Old DensityContainer found on disk!
         Will remove this file - 
         If you want to keep old densities, please start your calculation with a different basename. 



WARNING: SCAN, rSCAN, or r2SCAN functional requested.
  ===> : libXC variant has now been activated.



================================================================================
                                       INPUT FILE
================================================================================
NAME = xtb_opt.inp
|  1> ! r2scan-3c def2/J RI DEFGRID2 scfconv7 ENGRAD tightSCF miniprint
|  2> * xyzfile 0 1 xtb_opt.xyz
|  3> 
|  4>                          ****END OF INPUT****
================================================================================

                     *******************************
                     * Energy+Gradient Calculation *
                     *******************************

---------------------------------
CARTESIAN COORDINATES (ANGSTROEM)
---------------------------------
  C     -2.544529   -0.921789    0.259579
  C     -1.143179   -0.434424    0.638129
  H     -1.056849   -0.362922    1.735629
  C     -0.848257    0.947422    0.036197
  H     -1.102380    0.906982   -1.039190
  C      0.631994    1.297856    0.179202
  H      0.854067    1.465172    1.241897
  C      1.502851    0.158644   -0.334487
  H      1.316673    0.006467   -1.414179
  C      1.102037   -1.136556    0.384651
  H      1.251569   -1.002555    1.478364
  O     -0.248833   -1.413568    0.123860
  O      1.814035   -2.237581   -0.084705
  O      2.879127    0.379289   -0.086002
  O      0.948002    2.531641   -0.459830
  O     -1.664891    1.881597    0.714999
  O     -2.651782   -1.158274   -1.128532
  H     -3.263967   -0.139614    0.514408
  H     -2.779045   -1.824731    0.842875
  H      2.728553   -1.953502   -0.210527
  H      3.055575    1.320103   -0.215278
  H      0.729792    2.452350   -1.398364
  H     -1.336358    2.764709    0.505252
  H     -1.947172   -1.776528   -1.361418

----------------------------
CARTESIAN COORDINATES (A.U.)
----------------------------
  NO LB      ZA    FRAG     MASS         X           Y           Z
   0 C     6.0000    0    12.011   -4.808464   -1.741928    0.490534
   1 C     6.0000    0    12.011   -2.160296   -0.820942    1.205889
   2 H     1.0000    0     1.008   -1.997156   -0.685824    3.279864
   3 C     6.0000    0    12.011   -1.602974    1.790369    0.068403
   4 H     1.0000    0     1.008   -2.083197    1.713948   -1.963784
   5 C     6.0000    0    12.011    1.194296    2.452592    0.338642
   6 H     1.0000    0     1.008    1.613952    2.768774    2.346844
   7 C     6.0000    0    12.011    2.839976    0.299793   -0.632088
   8 H     1.0000    0     1.008    2.488151    0.012222   -2.672412
   9 C     6.0000    0    12.011    2.082548   -2.147779    0.726886
  10 H     1.0000    0     1.008    2.365123   -1.894554    2.793703
  11 O     8.0000    0    15.999   -0.470226   -2.671257    0.234061
  12 O     8.0000    0    15.999    3.428030   -4.228416   -0.160069
  13 O     8.0000    0    15.999    5.440762    0.716752   -0.162520
  14 O     8.0000    0    15.999    1.791465    4.784108   -0.868952
  15 O     8.0000    0    15.999   -3.146189    3.555702    1.351152
  16 O     8.0000    0    15.999   -5.011142   -2.188821   -2.132617
  17 H     1.0000    0     1.008   -6.168004   -0.263832    0.972089
  18 H     1.0000    0     1.008   -5.251634   -3.448242    1.592802
  19 H     1.0000    0     1.008    5.156217   -3.691584   -0.397838
  20 H     1.0000    0     1.008    5.774199    2.494633   -0.406817
  21 H     1.0000    0     1.008    1.379106    4.634271   -2.642525
  22 H     1.0000    0     1.008   -2.525351    5.224544    0.954789
  23 H     1.0000    0     1.008   -3.679621   -3.357151   -2.572707

------------------------------------------------------------------------------
                   ___                                                        
                  /   \      - P O W E R E D   B Y -                         
                 /     \                                                     
                 |  |  |   _    _      __       _____    __    __             
                 |  |  |  | |  | |    /  \     |  _  \  |  |  /  |          
                  \  \/   | |  | |   /    \    | | | |  |  | /  /          
                 / \  \   | |__| |  /  /\  \   | |_| |  |  |/  /          
                |  |  |   |  __  | /  /__\  \  |    /   |      \           
                |  |  |   | |  | | |   __   |  |    \   |  |\   \          
                \     /   | |  | | |  |  |  |  | |\  \  |  | \   \       
                 \___/    |_|  |_| |__|  |__|  |_| \__\ |__|  \__/        
                                                                              
                      - O R C A' S   B I G   F R I E N D -                    
                                      &                                       
                       - I N T E G R A L  F E E D E R -                       
                                                                              
 v1 FN, 2020, v2 2021, v3 2022-2024                                           
------------------------------------------------------------------------------


----------------------
SHARK INTEGRAL PACKAGE
----------------------

Number of atoms                             ...     24
Number of basis functions                   ...    318
Number of shells                            ...    150
Maximum angular momentum                    ...      2
Integral batch strategy                     ... SHARK/LIBINT Hybrid
RI-J (if used) integral strategy            ... SPLIT-RIJ (Revised 2003 algorithm where possible)
Printlevel                                  ...      1
Contraction scheme used                     ... SEGMENTED contraction
Prescreening option                         ... SCHWARTZ
   Thresh                                   ... 3.000e-11
   Tcut                                     ... 1.000e-12
   Tpresel                                  ... 1.000e-12 
Coulomb Range Separation                    ... NOT USED
Exchange Range Separation                   ... NOT USED
Multipole approximations                    ... NOT USED
Finite Nucleus Model                        ... NOT USED
CABS basis                                  ... NOT available
Auxiliary Coulomb fitting basis             ... AVAILABLE
   # of basis functions in Aux-J            ...    720
   # of shells in Aux-J                     ...    240
   Maximum angular momentum in Aux-J        ...      4
Auxiliary J/K fitting basis                 ... NOT available
Auxiliary Correlation fitting basis         ... NOT available
Auxiliary 'external' fitting basis          ... NOT available

Checking pre-screening integrals            ... done (  0.0 sec) Dimension = 150
Check shell pair data                       ... done (  0.0 sec)
Shell pair information
Shell pair cut-off parameter TPreSel        ...   1.0e-12
Total number of shell pairs                 ...     11325
Shell pairs after pre-screening             ...      9849
Total number of primitive shell pairs       ...     40203
Primitive shell pairs kept                  ...     24043
          la=0 lb=0:   2984 shell pairs
          la=1 lb=0:   3514 shell pairs
          la=1 lb=1:   1057 shell pairs
          la=2 lb=0:   1341 shell pairs
          la=2 lb=1:    792 shell pairs
          la=2 lb=2:    161 shell pairs

Calculating one electron integrals          ... done (  0.0 sec)
Calculating RI/J V-Matrix + Cholesky decomp.... done (  0.0 sec)
Calculating Nuclear repulsion               ... done (  0.0 sec) ENN=    832.610695757139 Eh

Diagonalization of the overlap matrix:
Smallest eigenvalue                        ... 2.614e-05
Time for diagonalization                   ...    0.010 sec
Threshold for overlap eigenvalues          ... 1.000e-07
Number of eigenvalues below threshold      ... 0
Time for construction of square roots      ...    0.007 sec
Total time needed                          ...    0.018 sec

-------------------
DFT GRID GENERATION
-------------------

General Integration Accuracy     IntAcc      ... 4.388
Radial Grid Type                 RadialGrid  ... OptM3 with GC (2021)
Angular Grid (max. ang.)         AngularGrid ... 4 (Lebedev-302)
Angular grid pruning method      GridPruning ... 4 (adaptive)
Weight generation scheme         WeightScheme... mBecke (2022)
Basis function cutoff            BFCut       ... 1.0000e-11
Integration weight cutoff        WCut        ... 1.0000e-14
Partially contracted basis set               ... off
Rotationally invariant grid construction     ... off
Angular grids for H and He will be reduced by one unit
Diffuse basis detected: some atoms will have their outermost
                        angular grid increased by 1.

Total number of grid points                  ...   111992
Total number of batches                      ...     1764
Average number of points per batch           ...       63
Average number of grid points per atom       ...     4666
Initializing property integral containers    ... done (  0.0 sec)

SHARK setup successfully completed in   1.3 seconds

Maximum memory used throughout the entire STARTUP-calculation: 56.7 MB
Occupation numbers will be reassigned to an Aufbau configuration
             **** ENERGY FILE WAS UPDATED (xtb_opt.en.tmp) ****
Finished Guess after   0.1 sec
Maximum memory used throughout the entire GUESS-calculation: 27.5 MB
----------------------------------------D-I-I-S--------------------------------------------
Iteration    Energy (Eh)           Delta-E    RMSDP     MaxDP     DIISErr   Damp  Time(sec)
-------------------------------------------------------------------------------------------
               ***  Starting incremental Fock matrix formation  ***
    1    -687.0883982289280993     0.00e+00  1.31e-04  8.16e-03  5.96e-03  0.700   4.4
    2    -687.0886517186602305    -2.53e-04  1.16e-04  6.97e-03  4.46e-03  0.700   3.8
                               ***Turning on AO-DIIS***
                              *** Initializing SOSCF ***
---------------------------------------S-O-S-C-F--------------------------------------
Iteration    Energy (Eh)           Delta-E    RMSDP     MaxDP     MaxGrad    Time(sec)
--------------------------------------------------------------------------------------
    3    -687.0888372251586134    -1.86e-04  2.81e-04  1.39e-02  3.16e-03     3.2
               *** Restarting incremental Fock matrix formation ***
    4    -687.0892607412695270    -4.24e-04  1.36e-04  1.08e-02  3.55e-04     4.2
    5    -687.0892314423883818     2.93e-05  1.02e-04  7.90e-03  6.63e-04     3.2
    6    -687.0892721630534652    -4.07e-05  1.46e-05  1.21e-03  1.96e-05     3.1
                  *** Gradient check signals convergence ***

               *****************************************************
               *                     SUCCESS                       *
               *           SCF CONVERGED AFTER   6 CYCLES          *
               *****************************************************

             **** ENERGY FILE WAS UPDATED (xtb_opt.en.tmp) ****

----------------
TOTAL SCF ENERGY
----------------

Total Energy       :       -687.08927216305347 Eh          -18696.64961 eV

Components:
Nuclear Repulsion  :        832.61069575713918 Eh           22656.48887 eV
Electronic Energy  :      -1519.69996792019265 Eh          -41353.13848 eV
One Electron Energy:      -2594.85138877042891 Eh          -70609.49601 eV
Two Electron Energy:       1075.15142085023626 Eh           29256.35753 eV

Virial components:
Potential Energy   :      -1371.43515486520278 Eh          -37318.64781 eV
Kinetic Energy     :        684.34588270214931 Eh           18621.99819 eV
Virial Ratio       :          2.00400877616166

DFT components:
N(Alpha)           :       47.999911891499 electrons
N(Beta)            :       47.999911891499 electrons
N(Total)           :       95.999823782997 electrons
E(X)               :      -85.255775581162 Eh       
E(C)               :       -3.193013307802 Eh       
E(XC)              :      -88.448788888964 Eh       

---------------
SCF CONVERGENCE
---------------

  Last Energy change         ...    4.0721e-05  Tolerance :   1.0000e-07
  Last MAX-Density change    ...    1.2081e-03  Tolerance :   1.0000e-07
  Last RMS-Density change    ...    1.4604e-05  Tolerance :   5.0000e-09
  Last DIIS Error            ...    3.1608e-03  Tolerance :   1.0000e-07
  Last Orbital Gradient      ...    1.9634e-05  Tolerance :   1.0000e-04
  Last Orbital Rotation      ...    3.8147e-05  Tolerance :   1.0000e-04


----------------
ORBITAL ENERGIES
----------------

  NO   OCC          E(Eh)            E(eV) 
   0   2.0000     -18.987762      -516.6833 
   1   2.0000     -18.980382      -516.4824 
   2   2.0000     -18.976139      -516.3670 
   3   2.0000     -18.967004      -516.1184 
   4   2.0000     -18.966981      -516.1178 
   5   2.0000     -18.950816      -515.6779 
   6   2.0000     -10.148428      -276.1528 
   7   2.0000     -10.107069      -275.0273 
   8   2.0000     -10.102479      -274.9024 
   9   2.0000     -10.101210      -274.8679 
  10   2.0000     -10.100145      -274.8389 
  11   2.0000     -10.081913      -274.3428 
  12   2.0000      -1.057081       -28.7646 
  13   2.0000      -1.029871       -28.0242 
  14   2.0000      -1.012953       -27.5639 
  15   2.0000      -0.998323       -27.1657 
  16   2.0000      -0.994068       -27.0500 
  17   2.0000      -0.980350       -26.6767 
  18   2.0000      -0.764572       -20.8051 
  19   2.0000      -0.746003       -20.2998 
  20   2.0000      -0.662273       -18.0214 
  21   2.0000      -0.625218       -17.0130 
  22   2.0000      -0.609795       -16.5934 
  23   2.0000      -0.568259       -15.4631 
  24   2.0000      -0.522979       -14.2310 
  25   2.0000      -0.517023       -14.0689 
  26   2.0000      -0.505516       -13.7558 
  27   2.0000      -0.479454       -13.0466 
  28   2.0000      -0.473565       -12.8864 
  29   2.0000      -0.465808       -12.6753 
  30   2.0000      -0.458808       -12.4848 
  31   2.0000      -0.443923       -12.0798 
  32   2.0000      -0.401614       -10.9285 
  33   2.0000      -0.394708       -10.7406 
  34   2.0000      -0.388517       -10.5721 
  35   2.0000      -0.385885       -10.5005 
  36   2.0000      -0.359615        -9.7856 
  37   2.0000      -0.358117        -9.7449 
  38   2.0000      -0.341722        -9.2987 
  39   2.0000      -0.330358        -8.9895 
  40   2.0000      -0.312015        -8.4904 
  41   2.0000      -0.300975        -8.1899 
  42   2.0000      -0.292351        -7.9553 
  43   2.0000      -0.273417        -7.4401 
  44   2.0000      -0.269803        -7.3417 
  45   2.0000      -0.245527        -6.6811 
  46   2.0000      -0.243795        -6.6340 
  47   2.0000      -0.235967        -6.4210 
  48   0.0000       0.016055         0.4369 
  49   0.0000       0.048017         1.3066 
  50   0.0000       0.051690         1.4065 
  51   0.0000       0.069479         1.8906 
  52   0.0000       0.077779         2.1165 
  53   0.0000       0.086529         2.3546 
  54   0.0000       0.096287         2.6201 
  55   0.0000       0.108766         2.9597 
  56   0.0000       0.119204         3.2437 
  57   0.0000       0.129078         3.5124 
  58   0.0000       0.138929         3.7804 
*Only the first 10 virtual orbitals were printed.
Total SCF time: 0 days 0 hours 0 min 22 sec 
Finished LeanSCF after  24.4 sec

Maximum memory used throughout the entire LEANSCF-calculation: 40.0 MB


-------------------------------------------------------------------------------
                          DFT DISPERSION CORRECTION                            
                                                                               
                                DFTD4 V3.4.0                                   
-------------------------------------------------------------------------------
-------------------------   ----------------
Dispersion correction           -0.008105763
-------------------------   ----------------

------------------   -----------------
gCP correction             0.019440071
------------------   -----------------

-------------------------   --------------------
FINAL SINGLE POINT ENERGY      -687.077937855866
-------------------------   --------------------

------------------------------------------------------------------------------
                         ORCA SCF GRADIENT CALCULATION
------------------------------------------------------------------------------

Nuc. rep. gradient        (SHARK) ... done (  0.0 sec)
HCore & Overlap gradient  (SHARK) ... done (  0.7 sec)
Split-RIJ-J gradient      (SHARK) ... done (  3.5 sec)
XC gradient                       ... done ( 13.8 sec)
Dispersion correction             ... done (  0.0 sec)

-------------------
DISPERSION GRADIENT
-------------------

   1   C   :   -0.000109113   -0.000045662    0.000015261
   2   C   :   -0.000044175   -0.000032965    0.000030739
   3   H   :   -0.000029074   -0.000011353    0.000037500
   4   C   :   -0.000040426    0.000049800    0.000000621
   5   H   :   -0.000031411    0.000026308   -0.000015068
   6   C   :    0.000037056    0.000062257    0.000007479
   7   H   :    0.000018548    0.000041778    0.000014909
   8   C   :    0.000079818   -0.000001050   -0.000015606
   9   H   :    0.000045950   -0.000002018   -0.000025960
  10   C   :    0.000051690   -0.000044809    0.000027672
  11   H   :    0.000033824   -0.000038531    0.000015766
  12   O   :   -0.000008262   -0.000078777    0.000012394
  13   O   :    0.000097026   -0.000091082   -0.000003283
  14   O   :    0.000108900    0.000026527   -0.000011646
[...]
  24   2.0000      -0.520334       -14.1590 
  25   2.0000      -0.516331       -14.0501 
  26   2.0000      -0.503361       -13.6971 
  27   2.0000      -0.478513       -13.0210 
  28   2.0000      -0.472846       -12.8668 
  29   2.0000      -0.465194       -12.6586 
  30   2.0000      -0.456295       -12.4164 
  31   2.0000      -0.442165       -12.0319 
  32   2.0000      -0.401903       -10.9363 
  33   2.0000      -0.394108       -10.7242 
  34   2.0000      -0.387786       -10.5522 
  35   2.0000      -0.385023       -10.4770 
  36   2.0000      -0.357908        -9.7392 
  37   2.0000      -0.357668        -9.7326 
  38   2.0000      -0.342028        -9.3071 
  39   2.0000      -0.328153        -8.9295 
  40   2.0000      -0.312572        -8.5055 
  41   2.0000      -0.303047        -8.2463 
  42   2.0000      -0.292270        -7.9531 
  43   2.0000      -0.273438        -7.4406 
  44   2.0000      -0.269452        -7.3322 
  45   2.0000      -0.245766        -6.6876 
  46   2.0000      -0.244821        -6.6619 
  47   2.0000      -0.237920        -6.4741 
  48   0.0000       0.013143         0.3576 
  49   0.0000       0.047157         1.2832 
  50   0.0000       0.051706         1.4070 
  51   0.0000       0.067673         1.8415 
  52   0.0000       0.076476         2.0810 
  53   0.0000       0.085753         2.3335 
  54   0.0000       0.094682         2.5764 
  55   0.0000       0.107732         2.9315 
  56   0.0000       0.120341         3.2746 
  57   0.0000       0.127030         3.4567 
  58   0.0000       0.137852         3.7511 
*Only the first 10 virtual orbitals were printed.
Total SCF time: 0 days 0 hours 0 min 8 sec 
Finished LeanSCF after   8.8 sec

Maximum memory used throughout the entire LEANSCF-calculation: 40.0 MB


-------------------------------------------------------------------------------
                          DFT DISPERSION CORRECTION                            
                                                                               
                                DFTD4 V3.4.0                                   
-------------------------------------------------------------------------------
-------------------------   ----------------
Dispersion correction           -0.008092999
-------------------------   ----------------

------------------   -----------------
gCP correction             0.019252577
------------------   -----------------

-------------------------   --------------------
FINAL SINGLE POINT ENERGY      -687.078744680678
-------------------------   --------------------

------------------------------------------------------------------------------
                         ORCA SCF GRADIENT CALCULATION
------------------------------------------------------------------------------

Nuc. rep. gradient        (SHARK) ... done (  0.0 sec)
HCore & Overlap gradient  (SHARK) ... done (  0.6 sec)
Split-RIJ-J gradient      (SHARK) ... done (  3.5 sec)
XC gradient                       ... done ( 11.7 sec)
Dispersion correction             ... done (  0.0 sec)

-------------------
DISPERSION GRADIENT
-------------------

   1   C   :   -0.000109086   -0.000046975    0.000015872
   2   C   :   -0.000043499   -0.000032434    0.000030609
   3   H   :   -0.000028767   -0.000011429    0.000037060
   4   C   :   -0.000039983    0.000049690   -0.000000667
   5   H   :   -0.000031345    0.000025609   -0.000016443
   6   C   :    0.000036499    0.000060941    0.000007776
   7   H   :    0.000018438    0.000041478    0.000015780
   8   C   :    0.000079658   -0.000000747   -0.000015258
   9   H   :    0.000045558   -0.000002463   -0.000025480
  10   C   :    0.000051892   -0.000045485    0.000026802
  11   H   :    0.000033834   -0.000038212    0.000015765
  12   O   :   -0.000007037   -0.000077755    0.000011967
  13   O   :    0.000096140   -0.000090482   -0.000003331
  14   O   :    0.000108522    0.000026006   -0.000012172
  15   O   :    0.000029362    0.000102363   -0.000046463
  16   O   :   -0.000060706    0.000111047    0.000025555
  17   O   :   -0.000085918   -0.000065846   -0.000056085
  18   H   :   -0.000042988   -0.000011340    0.000001296
  19   H   :   -0.000040880   -0.000026424    0.000004056
  20   H   :    0.000014959   -0.000036779   -0.000002441
  21   H   :    0.000039347    0.000002450   -0.000000881
  22   H   :    0.000018525    0.000050067   -0.000004306
  23   H   :   -0.000026064    0.000033299    0.000012223
  24   H   :   -0.000056461   -0.000016578   -0.000021232

Difference to translation invariance:
           :    0.0000000000    0.0000000000    0.0000000000

Difference to rotation invariance:
           :   -0.0000000000    0.0000000000   -0.0000000000

Norm of the Dispersion gradient    ...    0.0003861871
RMS gradient                       ...    0.0000455126
MAX gradient                       ...    0.0001110470
gCP correction                   ... done

------------------
CARTESIAN GRADIENT
------------------

   1   C   :   -0.000057908   -0.000012942   -0.000068933
   2   C   :    0.000105762   -0.000058842   -0.000012304
   3   H   :   -0.000027964    0.000006575    0.000049117
   4   C   :   -0.000049287    0.000105550    0.000046244
   5   H   :    0.000033713   -0.000039262   -0.000016272
   6   C   :    0.000038732    0.000239254   -0.000109957
   7   H   :   -0.000004345   -0.000036009    0.000040422
   8   C   :    0.000101331    0.000098069    0.000035559
   9   H   :   -0.000094355   -0.000036405   -0.000046387
  10   C   :   -0.000027371   -0.000077397   -0.000007566
  11   H   :   -0.000004039    0.000027437    0.000053011
  12   O   :    0.000007066    0.000047316    0.000028437
  13   O   :   -0.000053052    0.000001056    0.000021729
  14   O   :    0.000027524   -0.000040203   -0.000028024
  15   O   :   -0.000048012   -0.000234549    0.000114503
  16   O   :    0.000052810   -0.000015190   -0.000025398
  17   O   :    0.000036832    0.000013186   -0.000018806
  18   H   :    0.000017126   -0.000049507    0.000011368
  19   H   :    0.000011567    0.000028644   -0.000008505
  20   H   :    0.000010848    0.000010262   -0.000029222
  21   H   :   -0.000023136   -0.000000253   -0.000022809
  22   H   :    0.000012578    0.000040299   -0.000003439
  23   H   :   -0.000047360   -0.000038788   -0.000001200
  24   H   :   -0.000019060    0.000021701   -0.000001568

Difference to translation invariance:
           :   -0.0000000000    0.0000000000   -0.0000000000

Difference to rotation invariance:
           :    0.0002600448   -0.0000764143   -0.0000093498

Norm of the Cartesian gradient     ...    0.0005104745
RMS gradient                       ...    0.0000601600
MAX gradient                       ...    0.0002392537

-------
TIMINGS
-------

Total SCF gradient time     ....       15.818 sec

Densities                   ....       0.001 sec  (  0.0%)
One electron gradient       ....       0.619 sec  (  3.9%)
RI-J Coulomb gradient       ....       3.504 sec  ( 22.2%)
XC gradient                 ....      11.657 sec  ( 73.7%)

Maximum memory used throughout the entire SCFGRAD-calculation: 48.3 MB

------------------------------------------------------------------------------
                              ORCA PROPERTY CALCULATIONS
------------------------------------------------------------------------------

GBWName                                 ... xtb_opt.gbw
Number of atoms                         ...     24
Number of basis functions               ...    318
Max core memory                         ...   1024 MB

Electric properties:
Dipole moment                           ... YES
Quadrupole moment                       ...  NO
Static polarizability (Dipole/Dipole)   ...  NO
Static polarizability (Dipole/Quad.)    ...  NO
Static polarizability (Quad./Quad.)     ...  NO
Static polarizability (Velocity)        ...  NO

Atomic electric properties:
Dipole moment                           ...  NO
Quadrupole moment                       ...  NO
Static polarizability                   ...  NO

Choice of electric origin               ... Center of mass
Position of electric origin             ...    -0.006407     0.018746     0.003118

General magnetic properties:
Magnetizability                         ...  NO

EPR properties:
g-Tensor (aka g-matrix)                 ...  NO
Zero-Field splitting spin-orbit         ...  NO
Zero-field splitting spin-spin          ...  NO
Hyperfine couplings                     ...  NO (   0 nuclei)
Quadrupole couplings                    ...  NO (   0 nuclei)
Contact density                         ...  NO (   0 nuclei)

NMR properties:
Chemical shifts                         ...  NO (   0 nuclei)
Spin-rotation constants                 ...  NO (   0 nuclei)
Spin-spin couplings                     ...  NO (   0 nuclei,    0 pairs)

Choice of magnetic origin               ... GIAO
Position of magnetic origin             ...     0.000000     0.000000     0.000000

Properties with geometric perturbations:
SCF Hessian                             ...  NO
IR spectrum                             ...  NO
VCD spectrum                            ...  NO
X-ray spectroscopy properties:
SCF XES/XAS/RIXS spectra                ...  NO


-------------
DIPOLE MOMENT
-------------

Method             : SCF
Type of density    : Electron Density
Multiplicity       :   1
Irrep              :   0
Energy             :  -687.0899042588679322 Eh
Relativity type    : 
Basis              : AO
                                X                 Y                 Z
Electronic contribution:      2.023222202      -0.753599585      -0.732166785
Nuclear contribution   :     -1.363147506       1.553709235       0.576719885
                        -----------------------------------------
Total Dipole Moment    :      0.660074696       0.800109649      -0.155446900
                        -----------------------------------------
Magnitude (a.u.)       :      1.048826866
Magnitude (Debye)      :      2.665906029



--------------------
Rotational spectrum 
--------------------
 
Rotational constants in cm-1:             0.038789             0.027208             0.017797 
Rotational constants in MHz :          1162.876297           815.681110           533.544010 

Dipole components along the rotational axes: 
x,y,z [a.u.] :     0.750216     0.710728    -0.179108 
x,y,z [Debye]:     1.906897     1.806527    -0.455257 

 

Dipole moment calculation done in   0.0 sec 

Maximum memory used throughout the entire PROP-calculation: 26.1 MB

--------------------------------
SUGGESTED CITATIONS FOR THIS RUN
--------------------------------

Below you find a list of papers that are relevant to this ORCA run
We neither can nor want to force you to cite these papers, but we appreciate if you do
You receive ORCA, which is the product of decades of hard work by many enthusiastic individuals, for free
The only thing we kindly ask in return is that you cite our papers,
We deeply appreciate it, if you show your appreciation for ORCA by not just citing the generic ORCA reference.

Please note that relegating all ORCA citations to the supporting information does *not* help us.
SI sections are not indexed - citations you put there will not count into any citation statistics
But we need these citations in order to attract the funding resources that allow us to do what we are doing

Therefore, if you are a happy ORCA user, please consider citing a few of the papers listed below in the main body of your paper

In addition to the list printed below, the program has created the file xtb_opt.bibtex that contains the list in bibtex format
You can import this file easily into all common literature databanks and citation aid programs


List of essential papers. We consider these as the minimum necessary citations

  1. Neese,F.
     Software update: the ORCA program system, version 5.0
     WIRES Comput. Molec. Sci., 2022 12(1)e1606
     doi.org/10.1002/wcms.1606
  2. Grimme,S.; Hansen,A.; Ehlert,S.; Mewes,J.
     r2SCAN-3c: A 'Swiss army knife' composite electronic-structure method
     J. Chem. Phys., 2021 154 064103
     doi.org/10.1063/5.0040021

List of papers to cite with high priority. The work reported in these papers was absolutely
necessary for this run to complete.
Our perspective: the developers of density functionals and basis sets usually get cited in chemistry papers
Good! But without the algorithms to do something with them, the functionals or basis sets would not do anything.
Hence, in our opinion, the algorithm design and method developments papers are equally worthy of getting cited

  1. Neese,F.
     An improvement of the resolution of the identity approximation for the formation of the Coulomb matrix
     J. Comp. Chem., 2003 24(14)1740-1747
     doi.org/10.1002/jcc.10318
  2. Neese,F.
     The SHARK Integral Generation and Digestion System
     J. Comp. Chem., 2022  1-16
     doi.org/10.1002/jcc.26942
  3. Lehtola,S.; Steigemann,C.; Oliveira,M.; Marques,M.
     Recent developments in Libxc - A comprehensive library of functionals for density functional theory
     Software X, 2018 7 
     doi.org/10.1016/j.softx.2017.11.002
  4. Caldeweyher,E.; Bannwarth,C.; Grimme,S.
     Extension of the D3 dispersion coefficient model
     J. Chem. Phys., 2017 147 034112
     doi.org/10.1063/1.4993215
  5. Caldeweyher,E.; Ehlert,S.; Hansen,A.; Neugebauer,H.; Spicher,S.; Bannwarth,C.; Grimme,S.
     A generally applicable atomic-charge dependent London dispersion correction
     J. Chem. Phys., 2019 150 154122
     doi.org/10.1063/1.5090222
  6. Caldeweyher,E.; Mewes,J.; Ehlert,S.; Grimme,S.
     Extension and evaluation of the D4 London-dispersion model for periodic systems
     Phys. Chem. Chem. Phys., 2020 22(16)8499-8512
     doi.org/10.1039/D0CP00502A
  7. Wittmann,L.; Gordiy,I.; Friede,M.; Helmich-Paris,B.; Grimme,S.; Hansen,A.; Bursch,M.
     Extension of the D3 and D4 London Dispersion Corrections to the full Actinides Series
     Phys. Chem. Chem. Phys., 2024 26(32)21379-21394
     doi.org/https://doi.org/10.1039/D4CP01514B 

List of suggested additional citations. These are papers that are important in the 'surrounding' of 
of this run, or papers that preceded the highly important papers. If you like your results we are grateful for a citation.

  1. Neese,F.
     The ORCA program system
     WIRES Comput. Molec. Sci., 2012 2(1)73-78
     doi.org/10.1002/wcms.81
  2. Neese,F.
     Software update: the ORCA program system, version 4.0
     WIRES Comput. Molec. Sci., 2018 8(1)1-6
     doi.org/10.1002/wcms.1327
  3. Neese,F.; Wennmohs,F.; Becker,U.; Riplinger,C.
     The ORCA quantum chemistry program package
     J. Chem. Phys., 2020 152 Art. No. L224108
     doi.org/10.1063/5.0004608

List of optional additional citations

  1. Neese,F.
     Approximate second-order SCF convergence for spin unrestricted wavefunctions
     Chem. Phys. Lett., 2000 325(1-3)93-98
     doi.org/10.1016/s0009-2614(00)00662-x

Timings for individual modules:

Sum of individual times          ...       26.281 sec (=   0.438 min)
Startup calculation              ...        1.354 sec (=   0.023 min)   5.2 %
SCF iterations                   ...        8.945 sec (=   0.149 min)  34.0 %
Property calculations            ...        0.082 sec (=   0.001 min)   0.3 %
SCF Gradient evaluation          ...       15.901 sec (=   0.265 min)  60.5 %
                             ****ORCA TERMINATED NORMALLY****
TOTAL RUN TIME: 0 days 0 hours 0 minutes 26 seconds 697 msec
  ------------------------------------------------------------------------
          * successful ORCA run, taking over control again...

         :::::::::::::::::::::::::::::::::::::::::::::::::::::
         ::                  ORCA SUMMARY                   ::
         :::::::::::::::::::::::::::::::::::::::::::::::::::::
         :: total energy            -687.078744680678 Eh    ::
         :: gradient norm              0.000510474548 Eh/a0 ::
         :: HOMO-LUMO gap              0.000000000000 eV    ::
         :::::::::::::::::::::::::::::::::::::::::::::::::::::

           -------------------------------------------------
          |                Property Printout                |
           -------------------------------------------------
           -------------------------------------------------
          |                Geometry Summary                 |
           -------------------------------------------------

      molecular mass/u    :      180.1561339
   center of mass at/Å    :       -0.0033857       0.0099197       0.0016461
  moments of inertia/u·Å² :        0.4345987E+03   0.6195824E+03   0.9472201E+03
rotational constants/cm⁻¹ :        0.3878896E-01   0.2720806E-01   0.1779695E-01

 * 24 selected distances

     #   Z          #   Z                                           value/Å
     1   6 C        2   6 C                                       1.5213667
     2   6 C        3   1 H                                       1.1042662
     2   6 C        4   6 C                                       1.5325624 (max)
     4   6 C        5   1 H                                       1.1047549
     4   6 C        6   6 C                                       1.5228433
     6   6 C        7   1 H                                       1.0981496
     6   6 C        8   6 C                                       1.5199189
     8   6 C        9   1 H                                       1.1052703
     8   6 C       10   6 C                                       1.5282652
    10   6 C       11   1 H                                       1.1099774
     2   6 C       12   8 O                                       1.4328848
    10   6 C       12   8 O                                       1.4111830
    10   6 C       13   8 O                                       1.3989456
     8   6 C       14   8 O                                       1.4237399
     6   6 C       15   8 O                                       1.4381769
     4   6 C       16   8 O                                       1.4224703
     1   6 C       17   8 O                                       1.4222976
     1   6 C       18   1 H                                       1.0930317
     1   6 C       19   1 H                                       1.1002184
    13   8 O       20   1 H                                       0.9662451
    14   8 O       21   1 H                                       0.9657447
    15   8 O       22   1 H                                       0.9672325
    16   8 O       23   1 H                                       0.9654633 (min)
    17   8 O       24   1 H                                       0.9655422

 * 4 distinct bonds (by element types)

   Z      Z             #   av. dist./Å        max./Å        min./Å
   1 H    6 C           7     1.1022383     1.1099774     1.0930317
   6 C    6 C           5     1.5249913     1.5325624     1.5199189
   1 H    8 O           5     0.9660456     0.9672325     0.9654633
   6 C    8 O           7     1.4213854     1.4381769     1.3989456


optimized geometry written to: xtbopt.coord


           -------------------------------------------------
          | TOTAL ENERGY             -687.078744680678 Eh   |
          | GRADIENT NORM               0.000510474548 Eh/α |
           -------------------------------------------------

------------------------------------------------------------------------
 * finished run on 2025/04/16 at 11:18:32.594     
------------------------------------------------------------------------
 total:
 * wall-time:     0 d,  0 h,  6 min, 41.735 sec
 *  cpu-time:     0 d,  0 h,  0 min, 11.191 sec
 * ratio c/w:     0.028 speedup
 SCF:
 * wall-time:     0 d,  0 h,  0 min, 43.003 sec
 *  cpu-time:     0 d,  0 h,  0 min,  0.008 sec
 * ratio c/w:     0.000 speedup
 ANC optimizer:
 * wall-time:     0 d,  0 h,  5 min, 57.655 sec
 *  cpu-time:     0 d,  0 h,  0 min,  8.361 sec
 * ratio c/w:     0.023 speedup

