16
 energy: -22.750610528791 gnorm: 0.025847482736 xtb: 6.7.1 (edcfbbe)
C            2.83556080950469        0.70831958904107        0.17843936305567
C            1.94353978852918       -0.48190715424360       -0.15590223487995
C            0.45885019926418       -0.24102377410566       -0.06769060514564
C           -0.10887830635082        1.01540623087664        0.16972432330804
N           -1.42883958585906        1.21067570081234        0.23825245957599
C           -2.19401383011955        0.13221702431599        0.06793174672161
C           -1.64102199056050       -1.12362878011213       -0.16733033698468
N           -0.32503147455030       -1.31719226923033       -0.23648577302564
H            3.88745557455785        0.41749573123413        0.11471018002145
H            2.65308809694980        1.07423187238893        1.19396378410487
H            2.68241261938834        1.54093894063357       -0.51532861341034
H            2.17382823313423       -1.32734583138912        0.50283249060619
H            2.15770974835770       -0.84049744173773       -1.17076020945815
H            0.51570108603351        1.89374405852554        0.31182108063354
H           -3.27233078853506        0.27066637830921        0.11954640679111
H           -2.27721580409965       -1.99705157403582       -0.30313867386126
16
 energy: -22.751578613630 gnorm: 0.008505979672 xtb: 6.7.1 (edcfbbe)
C            2.82692714252704        0.70372338600721        0.17807652269978
C            1.93861499416940       -0.48413901239956       -0.15609822734916
C            0.46002298137239       -0.23411756433063       -0.06564130391744
C           -0.10959794402887        1.01694878736474        0.17115545890415
N           -1.42089366698603        1.20303278238986        0.23733647869984
C           -2.18287423835232        0.13183387384788        0.06715758216692
C           -1.62896226599488       -1.11945163038538       -0.16710742100340
N           -0.31998821745471       -1.30436977749460       -0.23352089546050
H            3.87293573319991        0.40728969414692        0.11366069997384
H            2.63972486740560        1.06266053988917        1.18983688602830
H            2.66902447189565        1.52614176846071       -0.51899317293858
H            2.16987170825565       -1.32254750270019        0.50818540919051
H            2.15208283171633       -0.83239053400441       -1.17238486917397
H            0.50020751794244        1.89879889796715        0.31214333689961
H           -3.25450240963535        0.27720867237180        0.12047507482347
H           -2.25177913038771       -1.99557367984766       -0.30369617149057
16
 energy: -22.751703090735 gnorm: 0.002454677408 xtb: 6.7.1 (edcfbbe)
C            2.82610207219058        0.70186024134090        0.17790286585858
C            1.93753395401749       -0.48663249796386       -0.15672716051746
C            0.46198444055368       -0.23027489068252       -0.06531353038250
C           -0.10872247195925        1.01966721143644        0.17114239499418
N           -1.41761748826076        1.19799175873640        0.23669063422642
C           -2.18132232072173        0.13071171570607        0.06757683429148
C           -1.62606811577265       -1.11951959907565       -0.16670438687205
N           -0.31885175863442       -1.29691699034828       -0.23191260259365
H            3.87040804586491        0.40520707643870        0.11509448404838
H            2.63469599155232        1.05877158910372        1.18726966257064
H            2.66577778714598        1.52019579504072       -0.52010365737298
H            2.16608671206415       -1.32342401943285        0.50855715259354
H            2.14859140624364       -0.83189257653391       -1.17310059214891
H            0.49157594992216        1.90599184294282        0.31360918654308
H           -3.24997938677193        0.28311039722623        0.12152158151393
H           -2.23938044178965       -1.99979835265191       -0.30491747869988
16
 energy: -22.751722828602 gnorm: 0.001261941065 xtb: 6.7.1 (edcfbbe)
C            2.82741541461193        0.70106383915398        0.17795167264862
C            1.93794020475560       -0.48760613324711       -0.15726051629506
C            0.46316580799983       -0.22851598434247       -0.06501083267661
C           -0.10830558656252        1.02154005685720        0.17151891433302
N           -1.41764041869032        1.19600185134319        0.23637949752211
C           -2.18304141291393        0.12987828616243        0.06734095929721
C           -1.62672749535830       -1.12026475079639       -0.16692825598009
N           -0.31902350061243       -1.29383710616836       -0.23126578364408
H            3.87156754620736        0.40424387927623        0.11640015572826
H            2.63394037440383        1.05782727698838        1.18679341476881
H            2.66679282860019        1.51845067877085       -0.52078759967311
H            2.16530318040755       -1.32461117775644        0.50767354806100
H            2.14820545888163       -0.83239696835453       -1.17365225059060
H            0.48755831932260        1.91095193623690        0.31401618278223
H           -3.25097680203248        0.28597082406666        0.12264751393881
H           -2.23535954337600       -2.00364780690753       -0.30523123216772
16
 energy: -22.751726218046 gnorm: 0.000614935589 xtb: 6.7.1 (edcfbbe)
C            2.82897979113788        0.70039427086822        0.17815004672633
C            1.93842941180443       -0.48790135494302       -0.15789724211469
C            0.46381331904985       -0.22726552167578       -0.06553068399460
C           -0.10827250753994        1.02304929586498        0.17094434702877
N           -1.41852674477571        1.19482590359862        0.23616309255992
C           -2.18518492246780        0.12885854072833        0.06798210400148
C           -1.62808127986861       -1.12115234279833       -0.16633795615627
N           -0.31952174536470       -1.29203160558807       -0.23097001538156
H            3.87327805771092        0.40297398607590        0.11829792336565
H            2.63420434730583        1.05792741690518        1.18680315538940
H            2.66984074553278        1.51795513054164       -0.52117770622316
H            2.16501610849794       -1.32576736526059        0.50632781434227
H            2.14860638224365       -0.83267779764835       -1.17440212926491
H            0.48432904304473        1.91486713083735        0.31412256866290
H           -3.25291877152036        0.28810269325546        0.12357998898080
H           -2.23317685914635       -2.00710967947852       -0.30546991986953
16
 energy: -22.751726978077 gnorm: 0.000136324044 xtb: 6.7.1 (edcfbbe)
C            2.82861835035425        0.70045299678920        0.17830878120731
C            1.93825031427282       -0.48753798336348       -0.15797478643632
C            0.46349593229616       -0.22767826033236       -0.06538748060604
C           -0.10840983704399        1.02255880701021        0.17101303090011
N           -1.41850820857562        1.19526700507661        0.23606249259019
C           -2.18471587735075        0.12905132807919        0.06763224527772
C           -1.62787996659245       -1.12088866514204       -0.16658771333204
N           -0.31944601867444       -1.29269516563181       -0.23106570162763
H            3.87289599544802        0.40281757751595        0.11852275249018
H            2.63410379390468        1.05804633969067        1.18701246445180
H            2.67003161737155        1.51833116843477       -0.52082167207794
H            2.16512600050438       -1.32559405188328        0.50602335388039
H            2.14856059120066       -0.83204502999693       -1.17463729746019
H            0.48496594805604        1.91390374232765        0.31333641882183
H           -3.25252430253491        0.28748239918274        0.12392629987851
H           -2.23374995699189       -2.00642350647409       -0.30477779990507
16
 energy: -22.751727077101 gnorm: 0.000101033742 xtb: 6.7.1 (edcfbbe)
C            2.82850072213252        0.70038332299854        0.17855293424853
C            1.93819034266953       -0.48739100734809       -0.15823538642350
C            0.46342269957875       -0.22765470542015       -0.06580835866167
C           -0.10845207662193        1.02258685195901        0.17037686281646
N           -1.41847086369396        1.19535623683104        0.23595469924302
C           -2.18455449816870        0.12895949553399        0.06814923452152
C           -1.62777446334655       -1.12092622475300       -0.16600608250518
N           -0.31938024498440       -1.29280024444681       -0.23099883998570
H            3.87274232235397        0.40254947415326        0.11925395250810
H            2.63358512709858        1.05795564251170        1.18716887878461
H            2.67044430415976        1.51834545881879       -0.52057731258559
H            2.16503353217530       -1.32571192188402        0.50545626125993
H            2.14855252187685       -0.83148003683397       -1.17502619577710
H            0.48501498108448        1.91382003924660        0.31279959147569
H           -3.25235639788610        0.28740440260735        0.12408002586742
H           -2.23368363278357       -2.00634808269123       -0.30455487673375
