
                                 *****************
                                 * O   R   C   A *
                                 *****************

                                            #,                                       
                                            ###                                      
                                            ####                                     
                                            #####                                    
                                            ######                                   
                                           ########,                                 
                                     ,,################,,,,,                         
                               ,,#################################,,                 
                          ,,##########################################,,             
                       ,#########################################, ''#####,          
                    ,#############################################,,   '####,        
                  ,##################################################,,,,####,       
                ,###########''''           ''''###############################       
              ,#####''   ,,,,##########,,,,          '''####'''          '####       
            ,##' ,,,,###########################,,,                        '##       
           ' ,,###''''                  '''############,,,                           
         ,,##''                                '''############,,,,        ,,,,,,###''
      ,#''                                            '''#######################'''  
     '                                                          ''''####''''         
             ,#######,   #######,   ,#######,      ##                                
            ,#'     '#,  ##    ##  ,#'     '#,    #''#        ,####,   ,####,        
            ##       ##  ##   ,#'  ##            #'  '#       #'       #'  '#        
            ##       ##  #######   ##           ,######,      #####,   #    #        
            '#,     ,#'  ##    ##  '#,     ,#' ,#      #,     #,   #   #,  ,#        
             '#######'   ##     ##  '#######'  #'      '#     '####' # '####'        



                #########################################################
                #                        -***-                          #
                #          Department of theory and spectroscopy        #
                #                                                       #
                #                      Frank Neese                      #
                #                                                       #
                #     Directorship, Architecture, Infrastructure        #
                #                    SHARK, DRIVERS                     #
                #        Core code/Algorithms in most modules           #
                #                                                       #
                #        Max Planck Institute fuer Kohlenforschung      #
                #                Kaiser Wilhelm Platz 1                 #
                #                 D-45470 Muelheim/Ruhr                 #
                #                      Germany                          #
                #                                                       #
                #                  All rights reserved                  #
                #                        -***-                          #
                #########################################################


                         Program Version 6.0.1  -  RELEASE   -


 With contributions from (in alphabetic order):
[Max-Planck-Institut fuer Kohlenforschung]                               
  Daniel Aravena         : Magnetic Suceptibility                        
  Michael Atanasov       : Ab Initio Ligand Field Theory (pilot matlab implementation)
  Alexander A. Auer      : GIAO ZORA, VPT2 properties, NMR spectrum      
  Ute Becker             : All parallelization in ORCA, NUMFREQ, NUMCALC 
  Giovanni Bistoni       : ED, misc. LED, open-shell LED, HFLD           
  Martin Brehm           : Molecular dynamics                            
  Dmytro Bykov           : pre 5.0 version of the SCF Hessian            
  Marcos Casanova-Páez   : Triplet and SCS-CIS(D). UHF-(DLPNO)-IP/EA/STEOM-CCSD. UHF-CVS-IP/STEOM-CCSD   
  Vijay G. Chilkuri      : MRCI spin determinant printing, contributions to CSF-ICE 
  Pauline Colinet        : FMM embedding                                 
  Dipayan Datta          : RHF DLPNO-CCSD density                        
  Achintya Kumar Dutta   : EOM-CC, STEOM-CC                              
  Nicolas Foglia         : Exact transition moments, OPA infrastructure, MCD improvements    
  Dmitry Ganyushin       : Spin-Orbit,Spin-Spin,Magnetic field MRCI      
  Miquel Garcia-Rates    : C-PCM and meta-GGA Hessian, CCSD/C-PCM, Gaussian charge scheme 
  Tiago L. C. Gouveia    : GS-ROHF, GS-ROCIS                             
  Yang Guo               : DLPNO-NEVPT2, F12-NEVPT2, CIM, IAO-localization        
  Andreas Hansen         : Spin unrestricted coupled pair/coupled cluster methods 
  Ingolf Harden          : AUTO-CI MPn and infrastructure                
  Benjamin Helmich-Paris : MC-RPA, TRAH-(SCF,CASSCF), AVAS, COSX integrals, SCF dyn. polar. 
  Lee Huntington         : MR-EOM, pCC                                   
  Robert Izsak           : Overlap fitted RIJCOSX, COSX-SCS-MP3, EOM     
  Riya Kayal             : Wick's Theorem for AUTO-CI, AUTO-CI UHF-CCSDT 
  Emily Kempfer          : AUTO-CI, RHF CISDT and CCSDT                  
  Christian Kollmar      : KDIIS, OOCD, Brueckner-CCSD(T), CCSD density, CASPT2, CASPT2-K, improved NEVPT2 
  Axel Koslowski         : Symmetry handling                             
  Simone Kossmann        : meta-GGA functionals, TD-DFT gradient, OOMP2, (MP2 Hessian; deprecated post 5.0) 
  Lucas Lang             : DCDCAS                                        
  Marvin Lechner         : AUTO-CI (C++ implementation), FIC-MRCC        
  Spencer Leger          : CASSCF response                               
  Dagmar Lenk            : GEPOL surface, SMD, ORCA-2-JSON               
  Dimitrios Liakos       : Extrapolation schemes; Compound Job, initial MDCI parallelization 
  Dimitrios Manganas     : Further ROCIS development; embedding schemes. LFT, Crystal Embedding 
  Dimitrios Pantazis     : SARC Basis sets                               
  Anastasios Papadopoulos: AUTO-CI, single reference methods and gradients 
  Taras Petrenko         : pre 6.0 DFT Hessian and TD-DFT gradient, (ASA, deprecated), ECA, 1-Electron XAS/XES, NRVS 
  Peter Pinski           : DLPNO-MP2, DLPNO-MP2 Gradient                 
  Christoph Reimann      : Effective Core Potentials                     
  Marius Retegan         : Local ZFS, SOC                                
  Christoph Riplinger    : Optimizer, TS searches, QM/MM, DLPNO-CCSD(T), (RO)-DLPNO pert. Triples 
  Michael Roemelt        : Original ROCIS implementation                 
  Masaaki Saitow         : Open-shell DLPNO-CCSD energy and density      
  Barbara Sandhoefer     : DKH picture change effects                    
  Kantharuban Sivalingam : CASSCF convergence/infrastructure, NEVPT2 and variants, FIC-MRCI 
  Bernardo de Souza      : ESD, SOC TD-DFT                               
  Georgi L. Stoychev     : AutoAux, RI-MP2 NMR, DLPNO-MP2 response, X2C  
  Van Anh Tran           : RI-MP2 g-tensors                              
  Willem Van den Heuvel  : Paramagnetic NMR                              
  Zikuan Wang            : NOTCH, Electric field optimization            
  Frank Wennmohs         : Technical directorship and infrastructure     
  Hang Xu                : AUTO-CI-Response properties                   
                                                                         
[FACCTs GmbH]                                                            
  Markus Bursch, Miquel Garcia-Rates, Christoph Riplinger, Bernardo de Souza, Georgi L. Stoychev 
                                                                 
  APM, Basis sets (HGBS, AHGBS, def-TZVP (Ac-Lr), def2-XVPD (La-Lu)), CI-OPT, improved COSX, DLPNO-Multilevel,           
  DOCKER, DRACO, updates on ESD, GOAT, IRC, LR-CPCM, MBIS, meta-GGA TD-DFT gradient, ML-optimized integration grids, 
  MM, NACMEs, nearIR, NEB, NEB-TS, NL-DFT gradient (VV10), 2- and 3-layer-ONIOM, interface openCOSMO-RS, QMMM,   
  Crystal-QMMM, SF, symmetry and pop. for TD-DFT, r2SCAN hybrids, SOLVATOR                                   
                                                                         
[Other institutions]                                                     
  V. Asgeirsson          : NEB                                           
  Christoph Bannwarth    : sTDA-DFT, sTD-DFT, PBEh-3c, B97-3c, D3        
  Sebastian Ehlert       : rSCAN, r2SCAN, r2SCAN-3c, D4, dhf basis sets  
  Marvin Friede          : D4 for Fr, Ra, Ac-Lr                          
  Lars Goerigk           : TD-DFT with DH, B97 family of functionals     
  Stefan Grimme          : VdW corrections, initial TS optimization, DFT functionals, gCP, sTDA/sTD-DF 
  Waldemar Hujo          : DFT-NL                                        
  H. Jonsson             : NEB                                           
  Holger Kruse           : gCP                                           
  Marcel Mueller         : wB97X-3c, vDZP basis set                      
  Hagen Neugebauer       : wr2SCAN                                       
  Tobias Risthaus        : range-separated hybrid DFT                    
  Lukas Wittmann         : regularized MP2, r2SCAN double-hybrids, wr2SCAN        
                                                                         
We gratefully acknowledge several colleagues who have allowed us to      
interface, adapt or use parts of their codes:                            
  Ed Valeev, F. Pavosevic, A. Kumar             : LibInt (2-el integral package), F12 methods 
  Garnet Chan, S. Sharma, J. Yang, R. Olivares  : DMRG                   
  Ulf Ekstrom                                   : XCFun DFT Library      
  Mihaly Kallay                                 : mrcc  (arbitrary order and MRCC methods)
  Frank Weinhold                                : gennbo (NPA and NBO analysis)           
  Simon Mueller                                 : openCOSMO-RS                            
  Christopher J. Cramer and Donald G. Truhlar   : smd solvation model                     
  S Lehtola, MJT Oliveira, MAL Marques          : LibXC Library                           
  Liviu Ungur et al                             : ANISO software                          


 Your calculation uses the libint2 library for the computation of 2-el integrals
 For citations please refer to: http://libint.valeyev.net

 Your ORCA version has been built with support for libXC version: 6.2.2
 For citations please refer to: https://libxc.gitlab.io

 This ORCA versions uses:
   CBLAS   interface :  Fast vector & matrix operations
   LAPACKE interface :  Fast linear algebra routines
   SCALAPACK package :  Parallel linear algebra routines
   Shared memory     :  Shared parallel matrices
   BLAS/LAPACK       :  OpenBLAS 0.3.27  USE64BITINT DYNAMIC_ARCH NO_AFFINITY Zen SINGLE_THREADED
        Core in use  :  Zen
   Copyright (c) 2011-2014, The OpenBLAS Project


Your calculation utilizes the geometrical counterpoise correction gCP
Please cite in your paper:
H.Kruse, S. Grimme J.Chem.Phys., 136, (2012), 154101 
   

Your calculation utilizes the atom-pairwise dispersion correction
based on EEQ partial charges (D4)


================================================================================

----- Orbital basis set information -----
Your calculation utilizes the basis: def2-SV(P)
   F. Weigend and R. Ahlrichs, Phys. Chem. Chem. Phys. 7, 3297 (2005).

----- AuxJ basis set information -----
Your calculation utilizes the auxiliary basis: def2/J
   F. Weigend, Phys. Chem. Chem. Phys. 8, 1057 (2006).

================================================================================
                                        WARNINGS
                       Please study these warnings very carefully!
================================================================================


================================================================================
                                       INPUT FILE
================================================================================
NAME = sp.inp
|  1> ! pbe def2-sv(p) def2/J RI DEFGRID1 loosescf d4 GCP(DFT/SV(P)) printgap
|  2> %output
|  3>     printlevel normal
|  4> end
|  5> * xyz 0 1
|  6> C -0.6391116983 -0.3415243749 -0.4448868069
|  7> C 0.65424346 -0.4309565398 0.3846574558
|  8> O 1.6311784867 0.3825091976 -0.2229484174
|  9> O -1.6779743488 0.3491584428 0.2001674981
| 10> H -0.970897437 -1.3472481324 -0.7353740684
| 11> H -0.4164004748 0.2314925932 -1.3467873764
| 12> H 1.0057440331 -1.472224984 0.4323769269
| 13> H 0.4482640151 -0.0868747351 1.4091322578
| 14> H 2.4256722871 0.3928580071 0.3208531022
| 15> H -1.9298681598 -0.1269470677 0.999167922
| 16> *
| 17> 
| 18>                          ****END OF INPUT****
================================================================================

                       ****************************
                       * Single Point Calculation *
                       ****************************

---------------------------------
CARTESIAN COORDINATES (ANGSTROEM)
---------------------------------
  C     -0.639112   -0.341524   -0.444887
  C      0.654243   -0.430957    0.384657
  O      1.631178    0.382509   -0.222948
  O     -1.677974    0.349158    0.200167
  H     -0.970897   -1.347248   -0.735374
  H     -0.416400    0.231493   -1.346787
  H      1.005744   -1.472225    0.432377
  H      0.448264   -0.086875    1.409132
  H      2.425672    0.392858    0.320853
  H     -1.929868   -0.126947    0.999168

----------------------------
CARTESIAN COORDINATES (A.U.)
----------------------------
  NO LB      ZA    FRAG     MASS         X           Y           Z
   0 C     6.0000    0    12.011   -1.207746   -0.645388   -0.840714
   1 C     6.0000    0    12.011    1.236341   -0.814390    0.726897
   2 O     8.0000    0    15.999    3.082481    0.722838   -0.421311
   3 O     8.0000    0    15.999   -3.170912    0.659814    0.378262
   4 H     1.0000    0     1.008   -1.834730   -2.545930   -1.389656
   5 H     1.0000    0     1.008   -0.786883    0.437458   -2.545059
   6 H     1.0000    0     1.008    1.900581   -2.782102    0.817074
   7 H     1.0000    0     1.008    0.847096   -0.164169    2.662874
   8 H     1.0000    0     1.008    4.583856    0.742394    0.606324
   9 H     1.0000    0     1.008   -3.646922   -0.239895    1.888154

--------------------------------
INTERNAL COORDINATES (ANGSTROEM)
--------------------------------
 C      0   0   0     0.000000000000     0.00000000     0.00000000
 C      1   0   0     1.539126168122     0.00000000     0.00000000
 O      2   1   0     1.409011515022   108.46145639     0.00000000
 O      1   2   3     1.404412125293   113.74196100   249.82028353
 H      1   2   3     1.098155226686   110.07442203   125.35012497
 H      1   2   3     1.091500514003   107.72167517     6.74485496
 H      2   1   3     1.100031714860   110.29750801   239.35249105
 H      2   1   3     1.100167459971   109.04965087   120.43408058
 H      3   2   1     0.962833105710   109.55886038   175.59916848
 H      4   1   2     0.963601902520   109.34309864   296.79129243

---------------------------
INTERNAL COORDINATES (A.U.)
---------------------------
 C      0   0   0     0.000000000000     0.00000000     0.00000000
 C      1   0   0     2.908526943303     0.00000000     0.00000000
 O      2   1   0     2.662645882933   108.46145639     0.00000000
 O      1   2   3     2.653954295961   113.74196100   249.82028353
 H      1   2   3     2.075212630971   110.07442203   125.35012497
 H      1   2   3     2.062637046499   107.72167517     6.74485496
 H      2   1   3     2.078758679714   110.29750801   239.35249105
 H      2   1   3     2.079015200798   109.04965087   120.43408058
 H      3   2   1     1.819490882465   109.55886038   175.59916848
 H      4   1   2     1.820943697889   109.34309864   296.79129243

---------------------
BASIS SET INFORMATION
---------------------
There are 3 groups of distinct atoms

 Group   1 Type C   : 7s4p1d contracted to 3s2p1d pattern {511/31/1}
 Group   2 Type O   : 7s4p1d contracted to 3s2p1d pattern {511/31/1}
 Group   3 Type H   : 4s contracted to 2s pattern {31}

Atom   0C    basis set group =>   1
Atom   1C    basis set group =>   1
Atom   2O    basis set group =>   2
Atom   3O    basis set group =>   2
Atom   4H    basis set group =>   3
Atom   5H    basis set group =>   3
Atom   6H    basis set group =>   3
Atom   7H    basis set group =>   3
Atom   8H    basis set group =>   3
Atom   9H    basis set group =>   3
---------------------------------
AUXILIARY/J BASIS SET INFORMATION
---------------------------------
There are 3 groups of distinct atoms

 Group   1 Type C   : 12s5p4d2f1g contracted to 6s4p3d1f1g pattern {711111/2111/211/2/1}
 Group   2 Type O   : 12s5p4d2f1g contracted to 6s4p3d1f1g pattern {711111/2111/211/2/1}
 Group   3 Type H   : 5s2p1d contracted to 3s1p1d pattern {311/2/1}

Atom   0C    basis set group =>   1
Atom   1C    basis set group =>   1
Atom   2O    basis set group =>   2
Atom   3O    basis set group =>   2
Atom   4H    basis set group =>   3
Atom   5H    basis set group =>   3
Atom   6H    basis set group =>   3
Atom   7H    basis set group =>   3
Atom   8H    basis set group =>   3
Atom   9H    basis set group =>   3
------------------------------------------------------------------------------
                             ORCA STARTUP CALCULATIONS
                           -- RI-GTO INTEGRALS CHOSEN --
------------------------------------------------------------------------------
------------------------------------------------------------------------------
                   ___                                                        
                  /   \      - P O W E R E D   B Y -                         
                 /     \                                                     
                 |  |  |   _    _      __       _____    __    __             
                 |  |  |  | |  | |    /  \     |  _  \  |  |  /  |          
                  \  \/   | |  | |   /    \    | | | |  |  | /  /          
                 / \  \   | |__| |  /  /\  \   | |_| |  |  |/  /          
                |  |  |   |  __  | /  /__\  \  |    /   |      \           
                |  |  |   | |  | | |   __   |  |    \   |  |\   \          
                \     /   | |  | | |  |  |  |  | |\  \  |  | \   \       
                 \___/    |_|  |_| |__|  |__|  |_| \__\ |__|  \__/        
                                                                              
                      - O R C A' S   B I G   F R I E N D -                    
                                      &                                       
                       - I N T E G R A L  F E E D E R -                       
                                                                              
 v1 FN, 2020, v2 2021, v3 2022-2024                                           
------------------------------------------------------------------------------


----------------------
SHARK INTEGRAL PACKAGE
----------------------

Number of atoms                             ...     10
Number of basis functions                   ...     68
Number of shells                            ...     36
Maximum angular momentum                    ...      2
Integral batch strategy                     ... SHARK/LIBINT Hybrid
RI-J (if used) integral strategy            ... SPLIT-RIJ (Revised 2003 algorithm where possible)
Printlevel                                  ...      1
Contraction scheme used                     ... SEGMENTED contraction
Prescreening option                         ... SCHWARTZ
   Thresh                                   ... 1.000e-09
   Tcut                                     ... 1.000e-10
   Tpresel                                  ... 1.000e-10 
Coulomb Range Separation                    ... NOT USED
Exchange Range Separation                   ... NOT USED
Multipole approximations                    ... NOT USED
Finite Nucleus Model                        ... NOT USED
CABS basis                                  ... NOT available
Auxiliary Coulomb fitting basis             ... AVAILABLE
   # of basis functions in Aux-J            ...    262
   # of shells in Aux-J                     ...     90
   Maximum angular momentum in Aux-J        ...      4
Auxiliary J/K fitting basis                 ... NOT available
Auxiliary Correlation fitting basis         ... NOT available
Auxiliary 'external' fitting basis          ... NOT available

Checking pre-screening integrals            ... done (  0.0 sec) Dimension = 36
Check shell pair data                       ... done (  0.0 sec)
Shell pair information
Shell pair cut-off parameter TPreSel        ...   1.0e-10
Total number of shell pairs                 ...       666
Shell pairs after pre-screening             ...       656
Total number of primitive shell pairs       ...      2698
Primitive shell pairs kept                  ...      2080
          la=0 lb=0:    294 shell pairs
          la=1 lb=0:    190 shell pairs
          la=1 lb=1:     36 shell pairs
          la=2 lb=0:     94 shell pairs
          la=2 lb=1:     32 shell pairs
          la=2 lb=2:     10 shell pairs

Calculating one electron integrals          ... done (  0.0 sec)
Calculating RI/J V-Matrix + Cholesky decomp.... done (  0.0 sec)
Calculating Nuclear repulsion               ... done (  0.0 sec) ENN=    130.807577766532 Eh

Diagonalization of the overlap matrix:
Smallest eigenvalue                        ... 3.186e-03
Time for diagonalization                   ...    0.001 sec
Threshold for overlap eigenvalues          ... 1.000e-07
Number of eigenvalues below threshold      ... 0
Time for construction of square roots      ...    0.003 sec
Total time needed                          ...    0.005 sec

-------------------
DFT GRID GENERATION
-------------------

General Integration Accuracy     IntAcc      ... 4.159
Radial Grid Type                 RadialGrid  ... OptM3 with GC (2021)
Angular Grid (max. ang.)         AngularGrid ... 3 (Lebedev-194)
Angular grid pruning method      GridPruning ... 4 (adaptive)
Weight generation scheme         WeightScheme... mBecke (2022)
Basis function cutoff            BFCut       ... 1.0000e-10
Integration weight cutoff        WCut        ... 1.0000e-14
Partially contracted basis set               ... off
Rotationally invariant grid construction     ... off
Angular grids for H and He will be reduced by one unit

Total number of grid points                  ...    21845
Total number of batches                      ...      346
Average number of points per batch           ...       63
Average number of grid points per atom       ...     2184
Initializing property integral containers    ... done (  0.0 sec)

SHARK setup successfully completed in   0.3 seconds

Maximum memory used throughout the entire STARTUP-calculation: 11.3 MB
-------------------------------------------------------------------------------
                                 ORCA GUESS
                   Start orbitals & Density for SCF / CASSCF
-------------------------------------------------------------------------------

------------
SCF SETTINGS
------------
Hamiltonian:
 Density Functional     Method          .... DFT(GTOs)
 Exchange Functional    Exchange        .... PBE
   PBE kappa parameter   XKappa         ....  0.804000
   PBE mue parameter    XMuePBE         ....  0.219520
 Correlation Functional Correlation     .... PBE
   PBE beta parameter  CBetaPBE         ....  0.066725
 LDA part of GGA corr.  LDAOpt          .... PW91-LDA
 Gradients option       PostSCFGGA      .... off
   NL short-range parameter             ....  6.400000
 RI-approximation to the Coulomb term is turned on
   Number of AuxJ basis functions       .... 262


General Settings:
 Integral files         IntName         .... sp
 Hartree-Fock type      HFTyp           .... RHF
 Total Charge           Charge          ....    0
 Multiplicity           Mult            ....    1
 Number of Electrons    NEL             ....   34
 Basis Dimension        Dim             ....   68
 Nuclear Repulsion      ENuc            ....    130.8075777665 Eh

Convergence Acceleration:
 AO-DIIS                CNVDIIS         .... on
   Start iteration      DIISMaxIt       ....    12
   Startup error        DIISStart       ....  0.200000
   # of expansion vecs  DIISMaxEq       ....     5
   Bias factor          DIISBfac        ....   1.050
   Max. coefficient     DIISMaxC        ....  10.000
 MO-DIIS                CNVKDIIS        .... off
 Trust-Rad. Augm. Hess. CNVTRAH         .... auto
   Auto Start mean grad. ratio tolernc. ....  1.125000
   Auto Start start iteration           ....    50
   Auto Start num. interpolation iter.  ....    10
   Max. Number of Micro iterations      ....    24
   Max. Number of Macro iterations      .... Maxiter - #DIIS iter
   Number of Davidson start vectors     ....     2
   Converg. threshold    (grad. norm)   ....   1.000e-04
   Grad. Scal. Fac. for Micro threshold ....   0.100
   Minimum threshold for Micro iter.    ....   1.000e-02
   NR start threshold (gradient norm)   ....   1.000e-04
   Initial trust radius                 ....   0.400
   Minimum AH scaling param. (alpha)    ....   1.000
   Maximum AH scaling param. (alpha)    .... 1000.000
   Quad. conv. algorithm                .... NR
   White noise on init. David. guess    .... on
   Maximum white noise                  ....   0.010
   Pseudo random numbers                .... off
   Inactive MOs                         .... canonical
   Orbital update algorithm             .... Taylor
   Preconditioner                       .... Diag
   Full preconditioner red. dimension   ....   250
 SOSCF                  CNVSOSCF        .... on
   Start iteration      SOSCFMaxIt      ....   150
   Startup grad/error   SOSCFStart      ....  0.003300
   Hessian update       SOSCFHessUp     .... L-BFGS
 Level Shifting         CNVShift        .... on
   Level shift para.    LevelShift      ....    0.2500
   Turn off err/grad.   ShiftErr        ....    0.0010
 Zerner damping         CNVZerner       .... off
 Static damping         CNVDamp         .... on
   Fraction old density DampFac         ....    0.7000
   Max. Damping (<1)    DampMax         ....    0.9800
   Min. Damping (>=0)   DampMin         ....    0.0000
   Turn off err/grad.   DampErr         ....    0.1000

SCF Procedure:
 Maximum # iterations   MaxIter         ....   125
 SCF integral mode      SCFMode         .... Direct
   Integral package                     .... SHARK and LIBINT hybrid scheme
 Reset frequency        DirectResetFreq ....    20
 Integral Threshold     Thresh          ....  1.000e-09 Eh
 Primitive CutOff       TCut            ....  1.000e-10 Eh

Convergence Tolerance:
 Convergence Check Mode ConvCheckMode   .... Total+1el-Energy
 Convergence forced     ConvForced      .... 0
 Energy Change          TolE            ....  1.000e-05 Eh
 1-El. energy change                    ....  1.000e-02 Eh
 Orbital Gradient       TolG            ....  1.000e-04
 Orbital Rotation angle TolX            ....  1.000e-04
 DIIS Error             TolErr          ....  5.000e-04

------------------------------
INITIAL GUESS: MODEL POTENTIAL
------------------------------
Loading Hartree-Fock densities                     ... done
Calculating cut-offs                               ... done
Initializing the effective Hamiltonian             ... done
Setting up the integral package (SHARK)            ... done
Starting the Coulomb interaction                   ... done (   0.0 sec)
Making the grid                                    ... done (   0.1 sec)
Mapping shells                                     ... done
Starting the XC term evaluation                    ... done (   0.0 sec)
  promolecular density results
     # of electrons  =     33.999633766
     EX              =    -28.302169370
     EC              =     -1.118349598
     EX+EC           =    -29.420518968
Transforming the Hamiltonian                       ... done (   0.0 sec)
Diagonalizing the Hamiltonian                      ... done (   0.0 sec)
Back transforming the eigenvectors                 ... done (   0.0 sec)
Now organizing SCF variables                       ... done
                      ------------------
                      INITIAL GUESS DONE (   0.1 sec)
                      ------------------
             **** ENERGY FILE WAS UPDATED (sp.en.tmp) ****
Finished Guess after   0.2 sec
Maximum memory used throughout the entire GUESS-calculation: 8.9 MB

-------------------------------------------------------------------------------------------
                                      ORCA LEAN-SCF
                              memory conserving SCF solver
-------------------------------------------------------------------------------------------

----------------------------------------D-I-I-S--------------------------------------------
Iteration    Energy (Eh)           Delta-E    RMSDP     MaxDP     DIISErr   Damp  Time(sec)
-------------------------------------------------------------------------------------------
               ***  Starting incremental Fock matrix formation  ***
    1    -229.6290553903282898     0.00e+00  7.60e-03  7.54e-02  2.23e-01  0.700   0.2
    2    -229.6979520862730055    -6.89e-02  4.89e-03  3.91e-02  8.40e-02  0.700   0.3
                               ***Turning on AO-DIIS***
    3    -229.7195056154146187    -2.16e-02  1.81e-03  1.50e-02  1.96e-02  0.700   0.1
    4    -229.7336028427097858    -1.41e-02  2.39e-03  2.39e-02  9.60e-03  0.000   0.1
    5    -229.7666154818660402    -3.30e-02  7.67e-04  7.07e-03  6.40e-03  0.000   0.1
                              *** Initializing SOSCF ***
---------------------------------------S-O-S-C-F--------------------------------------
Iteration    Energy (Eh)           Delta-E    RMSDP     MaxDP     MaxGrad    Time(sec)
--------------------------------------------------------------------------------------
    6    -229.7668174349933565    -2.02e-04  2.85e-04  2.84e-03  1.34e-03     0.2
               *** Restarting incremental Fock matrix formation ***
    7    -229.7668352396350997    -1.78e-05  1.88e-04  1.71e-03  2.36e-04     0.1
    8    -229.7668365124259822    -1.27e-06  5.26e-05  6.02e-04  1.75e-04     0.1
                 **** Energy Check signals convergence ****

               *****************************************************
               *                     SUCCESS                       *
               *           SCF CONVERGED AFTER   8 CYCLES          *
               *****************************************************

             **** ENERGY FILE WAS UPDATED (sp.en.tmp) ****

----------------
TOTAL SCF ENERGY
----------------

Total Energy       :       -229.76683651242598 Eh           -6252.27348 eV

Components:
Nuclear Repulsion  :        130.80757776653246 Eh            3559.45515 eV
Electronic Energy  :       -360.57441427895844 Eh           -9811.72863 eV
One Electron Energy:       -572.85813862789894 Eh          -15588.26244 eV
Two Electron Energy:        212.28372434894050 Eh            5776.53381 eV

Virial components:
Potential Energy   :       -458.04282483125337 Eh          -12463.97892 eV
Kinetic Energy     :        228.27598831882742 Eh            6211.70544 eV
Virial Ratio       :          2.00653090237207

DFT components:
N(Alpha)           :       17.000027314996 electrons
N(Beta)            :       17.000027314996 electrons
N(Total)           :       34.000054629992 electrons
E(X)               :      -28.879675427563 Eh       
E(C)               :       -1.133730583823 Eh       
E(XC)              :      -30.013406011386 Eh       

---------------
SCF CONVERGENCE
---------------

  Last Energy change         ...    1.2728e-06  Tolerance :   1.0000e-05
  Last MAX-Density change    ...    6.0234e-04  Tolerance :   1.0000e-03
  Last RMS-Density change    ...    5.2649e-05  Tolerance :   1.0000e-04
  Last DIIS Error            ...    1.3389e-03  Tolerance :   5.0000e-04
  Last Orbital Gradient      ...    1.7512e-04  Tolerance :   1.0000e-04
  Last Orbital Rotation      ...    1.6270e-04  Tolerance :   1.0000e-04


----------------
ORBITAL ENERGIES
----------------

  NO   OCC          E(Eh)            E(eV) 
   0   2.0000     -18.743349      -510.0325 
   1   2.0000     -18.739853      -509.9373 
   2   2.0000      -9.931150      -270.2403 
   3   2.0000      -9.926114      -270.1033 
   4   2.0000      -0.926374       -25.2079 
   5   2.0000      -0.913430       -24.8557 
   6   2.0000      -0.656130       -17.8542 
   7   2.0000      -0.555137       -15.1060 
   8   2.0000      -0.472247       -12.8505 
   9   2.0000      -0.452297       -12.3076 
  10   2.0000      -0.402504       -10.9527 
  11   2.0000      -0.365933        -9.9575 
  12   2.0000      -0.357732        -9.7344 
  13   2.0000      -0.292869        -7.9694 
  14   2.0000      -0.268853        -7.3159 
  15   2.0000      -0.216904        -5.9023 
  16   2.0000      -0.209366        -5.6971 
  17   0.0000       0.026980         0.7342 
  18   0.0000       0.030859         0.8397 
  19   0.0000       0.074030         2.0145 
  20   0.0000       0.092047         2.5047 
  21   0.0000       0.108004         2.9389 
  22   0.0000       0.122718         3.3393 
  23   0.0000       0.180441         4.9101 
  24   0.0000       0.202156         5.5009 
  25   0.0000       0.205685         5.5970 
  26   0.0000       0.441439        12.0122 
  27   0.0000       0.446807        12.1582 
*Only the first 10 virtual orbitals were printed.

                    ********************************
                    * MULLIKEN POPULATION ANALYSIS *
                    ********************************

-----------------------
MULLIKEN ATOMIC CHARGES
-----------------------
   0 C :    0.001968
   1 C :   -0.016826
   2 O :   -0.439628
   3 O :   -0.438817
   4 H :    0.072080
   5 H :    0.107719
   6 H :    0.064189
   7 H :    0.063380
   8 H :    0.295832
   9 H :    0.290102
Sum of atomic charges:    0.0000000

--------------------------------
MULLIKEN REDUCED ORBITAL CHARGES
--------------------------------
  0 C s       :     3.056409  s :     3.056409
      pz      :     1.017643  p :     2.879113
      px      :     0.868577
      py      :     0.992892
      dz2     :     0.009646  d :     0.062510
      dxz     :     0.012988
      dyz     :     0.010555
      dx2y2   :     0.016478
      dxy     :     0.012842

  1 C s       :     3.060444  s :     3.060444
      pz      :     1.012799  p :     2.894087
      px      :     0.930047
      py      :     0.951241
      dz2     :     0.013214  d :     0.062295
      dxz     :     0.012582
      dyz     :     0.006897
      dx2y2   :     0.015798
      dxy     :     0.013803

  2 O s       :     3.787072  s :     3.787072
      pz      :     1.629427  p :     4.637014
      px      :     1.269167
      py      :     1.738420
      dz2     :     0.001598  d :     0.015542
      dxz     :     0.006859
      dyz     :     0.002501
      dx2y2   :     0.003021
      dxy     :     0.001563

  3 O s       :     3.789954  s :     3.789954
      pz      :     1.397060  p :     4.632977
      px      :     1.586572
      py      :     1.649345
      dz2     :     0.002888  d :     0.015886
      dxz     :     0.001549
      dyz     :     0.005559
      dx2y2   :     0.002302
      dxy     :     0.003587

  4 H s       :     0.927920  s :     0.927920

  5 H s       :     0.892281  s :     0.892281

  6 H s       :     0.935811  s :     0.935811

  7 H s       :     0.936620  s :     0.936620

  8 H s       :     0.704168  s :     0.704168

  9 H s       :     0.709898  s :     0.709898


------------------------
MULLIKEN OVERLAP CHARGES
------------------------
B(  0-C ,  1-C ) :   0.7135 B(  0-C ,  2-O ) :  -0.1260 B(  0-C ,  3-O ) :   0.6846 
B(  0-C ,  4-H ) :   0.6614 B(  0-C ,  5-H ) :   0.6904 B(  0-C ,  7-H ) :  -0.0982 
B(  0-C ,  9-H ) :  -0.0813 B(  1-C ,  2-O ) :   0.6695 B(  1-C ,  3-O ) :  -0.1074 
B(  1-C ,  4-H ) :  -0.0680 B(  1-C ,  5-H ) :  -0.0696 B(  1-C ,  6-H ) :   0.6272 
B(  1-C ,  7-H ) :   0.7123 B(  2-O ,  6-H ) :  -0.0672 B(  2-O ,  7-H ) :  -0.0523 
B(  2-O ,  8-H ) :   0.5096 B(  3-O ,  4-H ) :  -0.0634 B(  3-O ,  5-H ) :  -0.0554 
B(  3-O ,  9-H ) :   0.5225 B(  4-H ,  5-H ) :  -0.0525 B(  6-H ,  7-H ) :  -0.0898 



                     *******************************
                     * LOEWDIN POPULATION ANALYSIS *
                     *******************************

----------------------
LOEWDIN ATOMIC CHARGES
----------------------
   0 C :   -0.136765
   1 C :   -0.144696
   2 O :   -0.345846
   3 O :   -0.336586
   4 H :    0.095100
   5 H :    0.124685
   6 H :    0.091203
   7 H :    0.092462
   8 H :    0.283173
   9 H :    0.277271

-------------------------------
LOEWDIN REDUCED ORBITAL CHARGES
-------------------------------
  0 C s       :     2.925908  s :     2.925908
      pz      :     1.053350  p :     3.070608
      px      :     0.956435
      py      :     1.060823
      dz2     :     0.019747  d :     0.140248
      dxz     :     0.031370
      dyz     :     0.024773
      dx2y2   :     0.037817
      dxy     :     0.026541

  1 C s       :     2.935777  s :     2.935777
      pz      :     1.062697  p :     3.069501
      px      :     0.983613
      py      :     1.023191
      dz2     :     0.030451  d :     0.139418
      dxz     :     0.030985
      dyz     :     0.014041
      dx2y2   :     0.035719
      dxy     :     0.028222

  2 O s       :     3.545193  s :     3.545193
      pz      :     1.677553  p :     4.773588
      px      :     1.332169
      py      :     1.763866
      dz2     :     0.002241  d :     0.027065
      dxz     :     0.012013
      dyz     :     0.003576
      dx2y2   :     0.005538
      dxy     :     0.003697

  3 O s       :     3.542490  s :     3.542490
      pz      :     1.458281  p :     4.766552
      px      :     1.611800
      py      :     1.696471
      dz2     :     0.005411  d :     0.027544
      dxz     :     0.003547
      dyz     :     0.009294
      dx2y2   :     0.003310
      dxy     :     0.005982

  4 H s       :     0.904900  s :     0.904900

  5 H s       :     0.875315  s :     0.875315

  6 H s       :     0.908797  s :     0.908797

  7 H s       :     0.907538  s :     0.907538

  8 H s       :     0.716827  s :     0.716827

  9 H s       :     0.722729  s :     0.722729


---------------------------------
LOEWDIN BOND ORDERS (THRESH 0.050000)
---------------------------------
B(  0-C ,  1-C ) :   1.0923 B(  0-C ,  2-O ) :   0.0625 B(  0-C ,  3-O ) :   1.2537 
B(  0-C ,  4-H ) :   0.9129 B(  0-C ,  5-H ) :   0.9106 B(  1-C ,  2-O ) :   1.2352 
B(  1-C ,  3-O ) :   0.0778 B(  1-C ,  6-H ) :   0.9135 B(  1-C ,  7-H ) :   0.9130 
B(  2-O ,  8-H ) :   0.8901 B(  3-O ,  9-H ) :   0.8941 

------------------------------------------
LOEWDIN REDUCED ORBITAL POPULATIONS PER MO
-------------------------------------------
THRESHOLD FOR PRINTING IS 0.1%%
                      0         1         2         3         4         5   
                 -18.74335 -18.73985  -9.93115  -9.92611  -0.92637  -0.91343
                   2.00000   2.00000   2.00000   2.00000   2.00000   2.00000
                  --------  --------  --------  --------  --------  --------
 0 C  s               0.0       0.0       0.0      99.6       7.1       3.9
 0 C  pz              0.0       0.0       0.0       0.0       1.6       1.0
 0 C  px              0.0       0.0       0.1       0.0       0.5       5.4
 0 C  py              0.0       0.0       0.0       0.0       0.9       0.9
 0 C  dxz             0.0       0.0       0.0       0.0       0.1       0.3
 0 C  dxy             0.0       0.0       0.0       0.0       0.1       0.2
 1 C  s               0.0       0.0      99.6       0.0       8.5       2.4
 1 C  pz              0.0       0.0       0.0       0.0       1.2       0.3
 1 C  px              0.0       0.0       0.0       0.1       1.0       5.0
 1 C  py              0.0       0.0       0.0       0.0       1.8       1.0
 1 C  dxz             0.0       0.0       0.0       0.0       0.1       0.1
 1 C  dxy             0.0       0.0       0.0       0.0       0.2       0.2
 2 O  s              99.9       0.0       0.0       0.0      32.6      26.7
 2 O  pz              0.0       0.0       0.0       0.0       1.4       1.1
 2 O  py              0.0       0.0       0.0       0.0       0.6       0.4
 3 O  s               0.0      99.9       0.0       0.0      24.3      34.7
 3 O  pz              0.0       0.0       0.0       0.0       0.1       0.2
 3 O  px              0.0       0.0       0.0       0.1       0.4       0.4
 3 O  py              0.0       0.0       0.0       0.0       1.1       1.5
 4 H  s               0.0       0.0       0.0       0.1       0.8       0.5
 5 H  s               0.0       0.0       0.0       0.1       1.2       0.3
 6 H  s               0.0       0.0       0.1       0.0       1.0       0.3
 7 H  s               0.0       0.0       0.1       0.0       1.3       0.1
 8 H  s               0.0       0.0       0.0       0.0       6.7       5.6
 9 H  s               0.0       0.0       0.0       0.0       5.1       7.2

                      6         7         8         9        10        11   
                  -0.65613  -0.55514  -0.47225  -0.45230  -0.40250  -0.36593
                   2.00000   2.00000   2.00000   2.00000   2.00000   2.00000
                  --------  --------  --------  --------  --------  --------
 0 C  s              19.5      12.0       0.6       1.4       0.6       0.0
 0 C  pz              0.0       6.2       1.3       3.6       4.7       2.0
 0 C  px              5.8       3.0       0.7       3.0       6.5      16.5
 0 C  py              0.6       0.3       8.1      16.8       0.2      13.5
 0 C  dz2             0.0       0.0       0.0       0.0       0.2       0.1
 0 C  dxz             0.2       0.1       0.0       0.0       0.1       0.0
 0 C  dyz             0.0       0.0       0.0       0.0       0.0       0.2
 0 C  dxy             0.0       0.0       0.0       0.4       0.2       0.1
 1 C  s              20.5      11.8       0.7       0.8       0.1       0.3
 1 C  pz              0.4       4.0      10.1      12.9       0.7       2.0
 1 C  px              5.1       1.0       2.1       0.1      22.0       2.5
 1 C  py              0.6       0.6      11.1       2.2      16.9       6.2
 1 C  dz2             0.0       0.0       0.0       0.0       0.1       0.0
 1 C  dxz             0.1       0.1       0.2       0.0       0.1       0.2
 1 C  dyz             0.0       0.0       0.3       0.0       0.0       0.0
 1 C  dx2y2           0.0       0.1       0.0       0.0       0.1       0.0
 1 C  dxy             0.1       0.0       0.1       0.1       0.0       0.4
 2 O  s               3.7       1.4       1.0       0.7       0.5       0.2
 2 O  pz              0.1       0.5       2.8       3.2       0.1       2.5
 2 O  px              7.4       5.7      33.5       0.1       0.1       8.5
 2 O  py              1.2       2.2       1.7       0.1      13.2       0.3
 2 O  dxz             0.1       0.1       0.2       0.0       0.0       0.1
 3 O  s               4.2       0.5       0.7       0.7       2.2       1.8
 3 O  pz              2.7      13.9       0.1      15.2       9.9       1.5
 3 O  px              3.1       5.3       0.0      11.4       1.4       0.4
 3 O  py              0.1       0.1       1.5       2.1       0.5      18.1
 3 O  dyz             0.0       0.2       0.0       0.1       0.0       0.0
 4 H  s               4.5       4.3       3.3       8.9       0.3       8.9
 5 H  s               4.5       6.8       1.0       0.6       0.0       7.7
 6 H  s               4.8       5.2       4.6       0.0      14.0       3.2
 7 H  s               4.1       6.3       3.2       6.9       3.4       0.6
 8 H  s               3.7       2.3      10.9       0.1       0.3       1.8
 9 H  s               2.7       5.7       0.1       8.1       1.4       0.1

                     12        13        14        15        16        17   
                  -0.35773  -0.29287  -0.26885  -0.21690  -0.20937   0.02698
                   2.00000   2.00000   2.00000   2.00000   2.00000   0.00000
                  --------  --------  --------  --------  --------  --------
 0 C  s               0.4       1.1       0.1       0.0       0.1       0.8
 0 C  pz             27.4       0.3       3.4       0.4       0.7       0.1
 0 C  px              0.3       1.4       2.4       0.9       1.3       0.3
 0 C  py              0.2       2.0       7.9       1.5       0.2       0.5
 0 C  dz2             0.1       0.1       0.4       0.0       0.0       0.3
 0 C  dxz             0.0       0.1       0.4       0.0       0.2       0.1
 0 C  dyz             0.1       0.0       0.2       0.3       0.2       0.2
 0 C  dx2y2           0.2       0.0       0.0       0.7       0.7       0.0
 0 C  dxy             0.3       0.0       0.0       0.0       0.0       0.0
 1 C  s               0.0       0.3       0.3       0.6       0.8       4.1
 1 C  pz             10.6       4.5       3.8       2.6       0.1       4.5
 1 C  px              2.3       1.1       2.3       0.6       4.1       1.8
 1 C  py              5.5       0.9       1.3       1.1       2.0       3.7
 1 C  dz2             0.2       0.2       0.1       0.4       0.4       0.1
 1 C  dxz             0.0       0.1       0.1       0.4       0.0       0.0
 1 C  dx2y2           0.0       0.5       0.1       0.3       0.6       0.2
 1 C  dxy             0.0       0.0       0.2       0.0       0.0       0.5
 2 O  s               1.8       7.5       0.9       0.2       0.2       8.5
 2 O  pz             11.5      29.5      11.5      14.1       5.5       3.0
 2 O  px              0.3       1.2       0.1       3.1       6.4       3.1
 2 O  py              0.2      19.5       0.0      25.2      23.5       0.1
 3 O  s               0.1       1.7       6.2       0.0       0.0       0.1
 3 O  pz              0.2       6.2       2.8       7.7      12.2       0.8
 3 O  px             12.2       7.8       3.9      11.8      22.5       0.0
 3 O  py              1.8       3.3      31.7      15.1       7.9       0.1
 4 H  s               1.8       1.3       3.7       4.6       2.3       3.8
 5 H  s              12.0       0.8       8.7       0.1       0.1       0.7
 6 H  s               1.4       0.9       1.9       2.6       5.6      10.4
 7 H  s               7.4       3.9       1.4       4.8       1.9       8.9
 8 H  s               0.2       2.8       0.7       0.3       0.3      41.5
 9 H  s               1.2       1.0       3.3       0.1       0.1       1.6

                     18        19        20        21        22        23   
                   0.03086   0.07403   0.09205   0.10800   0.12272   0.18044
                   0.00000   0.00000   0.00000   0.00000   0.00000   0.00000
                  --------  --------  --------  --------  --------  --------
 0 C  s               1.4       4.1       0.4       6.5      10.2       0.7
 0 C  pz              2.4       3.1       4.5       5.2       1.8       6.4
 0 C  px              2.6       0.2       4.0       0.2       3.0       5.8
 0 C  py              3.1       4.5       1.3       5.7       3.6       4.3
 0 C  dz2             0.0       0.0       0.2       0.2       0.4       0.2
 0 C  dxz             0.5       0.1       0.4       0.5       0.1       1.6
 0 C  dyz             0.3       0.0       0.7       0.5       0.5       0.1
 0 C  dx2y2           0.2       0.2       0.1       0.0       0.3       0.2
 0 C  dxy             0.1       0.7       0.2       0.3       0.5       0.0
 1 C  s               1.1       0.0       6.4       5.3       5.9       0.2
 1 C  pz              0.3       4.3       4.1       1.4       3.1       1.1
 1 C  px              3.2       1.2       0.0       1.7       2.0      26.3
 1 C  py              0.6       7.6       1.5       3.6       4.3       6.9
 1 C  dz2             0.4       0.5       0.2       0.0       0.6       0.0
 1 C  dxz             0.5       0.0       0.0       0.6       0.0       3.7
 1 C  dyz             0.2       0.1       0.3       0.0       0.4       1.2
 1 C  dx2y2           0.0       0.0       0.1       0.1       0.1       0.5
 1 C  dxy             0.1       0.2       0.1       1.3       0.2       1.3
 2 O  s               1.6       0.0       1.8       0.4       0.8       1.7
 2 O  pz              1.6       0.0       1.3       2.7       0.0       0.5
 2 O  px              0.0       0.6       4.0       0.9       1.3       7.3
 2 O  py              0.6       0.5       0.0       1.0       1.3       3.0
 2 O  dxz             0.0       0.0       0.0       0.2       0.0       0.3
 2 O  dyz             0.0       0.0       0.0       0.1       0.0       0.2
 2 O  dxy             0.0       0.1       0.0       0.1       0.2       0.1
 3 O  s               9.4       0.3       1.6       1.3       0.8       0.1
 3 O  pz              4.8       1.9       0.1       0.0       0.7       2.3
 3 O  px              0.1       1.1       0.2       0.0       2.4       0.1
 3 O  py              3.3       0.5       1.9       0.4       1.3       0.1
 3 O  dz2             0.0       0.1       0.0       0.0       0.0       0.1
 3 O  dxz             0.1       0.0       0.0       0.3       0.1       0.0
 3 O  dxy             0.0       0.0       0.1       0.0       0.2       0.0
 4 H  s               5.8      22.9       0.7       1.1      26.5       3.1
 5 H  s               1.0       3.8      11.7      39.7       1.1       9.6
 6 H  s               1.7      13.6      12.5       0.6      24.3       0.9
 7 H  s               0.9      16.8      16.7      12.4       1.5       0.5
 8 H  s               5.2       0.7      21.4       0.3       0.3       5.1
 9 H  s              46.7       9.9       1.7       5.2       0.1       4.3

                     24        25        26        27        28        29   
                   0.20216   0.20569   0.44144   0.44681   0.46022   0.50359
                   0.00000   0.00000   0.00000   0.00000   0.00000   0.00000
                  --------  --------  --------  --------  --------  --------
 0 C  s               7.4       0.1       0.5      13.1       3.2       0.6
 0 C  pz             15.2       0.2       2.7      15.6      19.8       2.9
 0 C  px              1.5      28.2      14.1       7.7       2.6      32.2
 0 C  py              8.0       3.5       1.4      14.1       0.3       2.9
 0 C  dz2             0.0       0.0       0.0       1.3       0.0       1.0
 0 C  dxz             0.1       3.7       1.5       0.0       1.3       0.2
 0 C  dyz             1.2       0.0       0.0       0.2       1.6       1.6
 0 C  dx2y2           1.9       0.6       0.9       1.0       0.8       0.2
 0 C  dxy             1.9       1.3       0.3       0.5       0.2       0.1
 1 C  s               3.5       4.5      11.7       1.1       4.4       2.3
 1 C  pz              4.2      15.9      28.6       0.3       2.2       9.8
 1 C  px              8.6       0.1       1.3       2.9      35.2       0.9
 1 C  py              4.3       6.8      10.9       3.3       9.7       2.3
 1 C  dz2             0.2       0.2       0.0       0.4       0.0       0.3
 1 C  dxz             1.2       0.4       1.7       0.0       1.0       0.0
 1 C  dyz             0.8       1.4       1.3       0.3       0.1       1.7
 1 C  dx2y2           1.5       0.8       1.2       0.6       0.3       0.6
 1 C  dxy             0.1       1.8       0.2       0.5       0.0       0.3
 2 O  s               0.4       1.5       0.3       0.0       0.9       0.3
 2 O  pz              0.2       0.0       1.3       0.1       0.5       1.1
 2 O  px              0.2       4.6       1.3       1.1       2.6       1.4
 2 O  py              0.0       0.7       1.3       1.3       1.3       0.0
 2 O  dz2             0.0       0.2       0.0       0.0       0.3       0.0
 2 O  dxz             0.0       0.2       0.4       0.4       0.3       1.3
 2 O  dyz             0.1       0.0       0.4       0.0       0.2       0.0
 2 O  dx2y2           0.2       0.0       0.0       0.1       0.1       1.3
 2 O  dxy             0.0       0.2       0.4       0.3       1.1       0.1
 3 O  s               1.1       2.3       0.3       0.2       0.3       0.0
 3 O  pz              2.0       5.0       0.7       3.7       0.3       0.3
 3 O  px              7.9       1.8       2.9       2.4       0.4       0.8
 3 O  py              0.2       0.5       0.0       1.8       0.0       0.3
 3 O  dz2             0.3       0.0       0.3       0.2       0.1       0.0
 3 O  dxz             0.2       0.0       0.0       0.3       0.1       0.9
 3 O  dyz             0.0       0.3       0.2       1.3       0.1       0.0
 3 O  dx2y2           0.2       0.0       0.1       0.1       0.0       0.2
 3 O  dxy             0.1       0.1       0.2       1.2       0.0       0.1
 4 H  s               5.4       1.0       0.5      11.2       0.3       8.1
 5 H  s               2.6       2.4       0.3       0.2       7.4       2.5
 6 H  s               4.4       2.8       4.3       4.2       0.1       0.9
 7 H  s               9.1       4.2       4.3       0.9       0.0       0.0
 8 H  s               0.3       1.0       0.5       1.8       0.4      18.3
 9 H  s               3.5       1.7       1.6       4.2       0.5       2.2

                     30        31        32        33        34        35   
                   0.52415   0.56064   0.57756   0.62091   0.63924   0.64834
                   0.00000   0.00000   0.00000   0.00000   0.00000   0.00000
                  --------  --------  --------  --------  --------  --------
 0 C  s               4.4       3.5       1.7      10.6      18.9       6.2
 0 C  pz             10.3       0.1       5.0       2.9      16.3       4.6
 0 C  px              3.7       0.6      13.6       0.0       0.8       0.4
 0 C  py              1.1       4.5       1.7      20.6       4.9       1.3
 0 C  dz2             0.3       1.2       0.5       1.1       0.0       0.2
 0 C  dxz             0.0       0.8       0.0       0.0       0.0       0.0
 0 C  dyz             3.1       0.3       0.4       0.1       0.3       0.0
 0 C  dx2y2           0.0       1.0       0.2       0.0       0.7       0.0
 0 C  dxy             0.0       0.2       0.0       0.0       0.5       0.2
 1 C  s               0.9       4.2       6.3      15.8       0.9       3.6
 1 C  pz              4.3       3.0       0.7       0.3       0.6      23.0
 1 C  px             18.7       0.8      19.2       0.6       0.5       3.2
 1 C  py              4.3       1.1       4.4      11.1       4.9       0.9
 1 C  dz2             3.9       0.0       2.5       1.4       0.4       0.2
 1 C  dxz             0.2       0.1       0.1       0.0       0.2       0.1
 1 C  dyz             1.4       0.1       0.0       0.0       0.0       0.1
 1 C  dx2y2           0.7       0.2       0.0       0.6       0.3       0.1
 1 C  dxy             0.2       0.4       0.0       0.0       0.0       0.2
 2 O  s               0.4       0.6       0.2       0.1       0.3       0.8
 2 O  pz              0.1       4.0       0.1       0.5       0.3       2.5
 2 O  px              0.8       2.0       2.0       0.2       0.0       0.7
 2 O  py              4.3       0.6       0.4       0.1       0.6       0.3
 2 O  dxz             0.8       1.2       0.5       0.1       0.0       0.5
 2 O  dx2y2           0.0       0.8       0.1       0.0       0.0       0.3
 3 O  s               0.4       0.6       1.5       0.4       0.3       1.9
 3 O  pz              1.0       2.5       0.9       1.5       0.2       0.3
 3 O  px              0.4       1.1       0.0       0.7       0.1       0.9
 3 O  py              2.3       0.8       0.0       6.1       1.4       0.2
 3 O  dz2             0.0       0.8       0.2       0.2       0.1       0.2
 3 O  dxz             0.2       1.0       0.0       0.0       0.1       0.0
 3 O  dyz             0.2       1.3       0.2       0.3       0.1       0.1
 3 O  dx2y2           0.2       0.0       0.0       0.1       0.1       0.0
 4 H  s               1.0       5.2       0.2       0.7      25.5       3.9
 5 H  s               1.1       6.1       7.6       1.1       6.9       1.1
 6 H  s              13.9       2.4       0.4      11.5       7.3       7.9
 7 H  s               8.5       0.3      19.3       2.7       1.5      19.4
 8 H  s               2.2      19.0       6.3       0.8       0.9      10.8
 9 H  s               4.5      27.2       3.5       7.3       3.9       4.0

                     36        37        38        39        40        41   
                   0.65192   0.65913   0.68709   0.84984   0.91300   0.93178
                   0.00000   0.00000   0.00000   0.00000   0.00000   0.00000
                  --------  --------  --------  --------  --------  --------
 0 C  s               4.2       0.3       4.4      20.7       0.3       2.6
 0 C  pz             11.3       1.7       3.9       0.2       0.8       0.7
 0 C  px              0.9       4.3       8.1       0.8       0.1       0.1
 0 C  py              5.8       7.1      26.9       2.0       0.2       0.5
 0 C  dz2             0.0       0.9       0.4       0.2       0.6       0.6
 0 C  dxz             0.1       0.0       0.0       1.1       0.0       0.0
 0 C  dyz             1.5       0.1       0.1       0.0       0.1       0.9
 0 C  dx2y2           0.0       0.0       0.1       0.5       0.2       0.6
 0 C  dxy             0.0       0.2       0.1       0.0       1.0       2.1
 1 C  s              15.7       2.6       5.8      20.2       0.7       3.6
 1 C  pz              4.1      17.7       1.0       0.0       0.3       0.3
 1 C  px              3.0       3.5       0.4       0.0       0.1       0.0
 1 C  py              1.7      22.5      14.4       0.6       0.2       0.5
 1 C  dz2             0.0       0.0       0.4       0.2       0.5       0.0
 1 C  dxz             0.0       0.0       0.1       0.4       0.1       0.1
 1 C  dyz             0.4       0.1       0.3       0.0       1.8       1.3
 1 C  dx2y2           0.1       0.1       0.0       1.0       0.1       0.2
 1 C  dxy             0.3       0.0       0.0       0.0       0.1       2.4
 2 O  s               2.6       0.0       0.2       8.3      11.7       1.6
 2 O  pz              0.0       1.3       6.9       0.1      12.4      20.5
 2 O  px              1.3       1.1       2.7       6.4       2.7       0.1
 2 O  py              0.1       2.4       0.2       5.9      20.7      16.3
 2 O  dxz             0.0       0.1       0.1       0.0       0.1       0.1
 2 O  dyz             0.0       0.0       0.0       0.1       0.0       0.1
 2 O  dx2y2           0.0       0.0       0.3       0.2       0.0       0.2
 3 O  s               0.4       0.6       0.8       5.7       4.5       1.7
 3 O  pz              1.2       3.7       1.3       5.6       4.7       1.6
 3 O  px              1.2       1.2       0.1       4.5       6.5      19.6
 3 O  py              1.2       1.2       5.9       0.1      26.5      16.5
 3 O  dz2             0.1       0.1       0.0       0.3       0.0       0.0
 3 O  dxz             0.1       0.0       0.0       0.0       0.0       0.5
 3 O  dyz             0.2       0.2       0.0       0.0       0.0       0.0
 3 O  dx2y2           0.1       0.0       0.1       0.1       0.0       0.0
 3 O  dxy             0.0       0.0       0.1       0.0       0.0       0.3
 4 H  s               0.7       7.3       2.0       3.6       0.4       1.0
 5 H  s              22.5       4.0       2.0       4.4       0.8       1.4
 6 H  s               9.4       2.1       1.2       3.2       0.6       0.4
 7 H  s               4.4       4.9       0.1       2.2       0.5       0.3
 8 H  s               0.3       0.8       9.2       1.4       0.5       0.3
 9 H  s               4.9       7.5       0.3       0.2       0.0       0.9

                     42        43        44        45        46        47   
                   0.97401   1.02039   1.09830   1.21813   1.40977   1.44280
                   0.00000   0.00000   0.00000   0.00000   0.00000   0.00000
                  --------  --------  --------  --------  --------  --------
 0 C  s               2.1       2.1       0.2       0.8      12.4       0.1
 0 C  pz              0.4       0.3       0.0       0.6       0.1       0.1
 0 C  px              0.2       0.2       3.4       1.2       0.2       0.1
 0 C  py              0.9       0.1       0.1       5.3       0.6       0.4
 0 C  dz2             1.3       0.0       0.0       0.5       2.2      17.5
 0 C  dxz             0.2       1.0       0.2       0.0       0.1       0.4
 0 C  dyz             0.0       0.3       0.0       5.4       0.0       3.2
 0 C  dx2y2           0.2       0.8       2.2       0.4       0.3       0.0
 0 C  dxy             0.1       1.2       0.8       0.3       1.2       0.8
 1 C  s               1.2       1.0       0.1       0.1       4.5       4.5
 1 C  pz              0.8       0.3       1.5       0.4       0.0       0.1
 1 C  px              0.9       2.3       0.6       0.3       0.3       0.1
 1 C  py              0.9       0.5       3.5       2.4       0.1       0.1
 1 C  dz2             0.3       0.0       4.0       0.0       0.9       1.9
 1 C  dxz             0.0       0.0       0.0       2.4       0.7       6.7
 1 C  dyz             0.2       1.1       0.3       0.0       0.8       0.1
 1 C  dx2y2           0.1       0.5       0.3       2.8       0.3      11.8
 1 C  dxy             0.1       0.5       0.1       0.7       0.9      10.1
 2 O  s               6.7       0.8       0.3       1.3      13.6      20.4
 2 O  pz             26.9       1.0       0.1      12.0       2.6       1.1
 2 O  px             19.6       8.4      16.8      14.9       1.7       6.7
 2 O  py              2.7      21.4      12.0       3.4       2.8       0.2
 2 O  dz2             0.0       0.0       0.1       0.9       0.1       0.0
 2 O  dxz             0.3       0.2       1.4       0.4       0.6       1.6
 2 O  dyz             0.4       0.3       0.0       0.1       0.1       0.1
 2 O  dx2y2           0.1       0.3       0.2       1.0       0.1       4.4
 2 O  dxy             0.3       0.5       0.1       1.0       1.7       1.1
 3 O  s              11.4       5.7       0.2       6.3      26.9       0.2
 3 O  pz              7.4       6.2      42.7       4.8       9.1       2.0
 3 O  px              2.2      36.3       4.5       2.4       4.6       0.1
 3 O  py              8.6       1.2       1.0      21.2       0.0       1.2
 3 O  dz2             0.1       0.2       0.0       0.9       0.0       0.1
 3 O  dxz             0.0       0.0       0.0       0.6       4.9       0.4
 3 O  dyz             0.1       0.3       1.7       0.4       0.7       1.4
 3 O  dx2y2           0.0       0.2       0.3       1.4       0.8       0.0
 3 O  dxy             0.1       0.4       0.2       0.5       0.9       0.1
 4 H  s               0.2       0.2       0.0       0.2       0.5       0.0
 5 H  s               0.1       0.2       0.0       0.8       1.0       0.1
 6 H  s               0.5       0.2       0.2       0.2       0.4       0.2
 7 H  s               0.0       1.2       0.2       0.1       0.4       0.5
 8 H  s               1.6       0.6       0.3       0.8       0.6       0.1
 9 H  s               0.8       2.3       0.4       1.1       0.2       0.3

                     48        49        50        51        52        53   
                   1.47338   1.54596   1.73572   1.86981   1.90414   1.92867
                   0.00000   0.00000   0.00000   0.00000   0.00000   0.00000
                  --------  --------  --------  --------  --------  --------
 0 C  s               0.8       0.7       1.3       0.2       0.0       0.3
 0 C  pz              0.1       0.1       0.3       1.0       0.7       1.7
 0 C  px              0.0       0.1       2.8       0.2       0.3       0.5
 0 C  py              0.0       1.1       0.1       1.5       2.0       0.3
 0 C  dz2             7.9       0.2       4.0      12.3       0.8       0.9
 0 C  dxz             3.0       5.3      17.9       0.1      20.3       0.1
 0 C  dyz             0.9       1.7       1.5      18.4       3.3       7.8
 0 C  dx2y2           7.9       3.4      16.0      10.3      12.2       0.7
 0 C  dxy             7.3      11.2       0.4       2.0       0.1      26.9
 1 C  s               2.0       1.5       1.5       0.0       0.3       0.0
 1 C  pz              0.0       0.1       0.4       0.3       2.4       0.8
 1 C  px              0.5       0.0       3.0       0.1       0.5       0.5
 1 C  py              0.1       0.4       0.1       2.7       0.2       0.8
 1 C  dz2             5.5       2.3       1.9       0.5       0.0      23.8
 1 C  dxz             3.5       3.1      10.1      18.2       9.7       0.5
 1 C  dyz             3.1      16.4       0.1       8.0      23.0       1.2
 1 C  dx2y2           2.4       0.1      21.7       5.2       4.6       0.2
 1 C  dxy             0.2       7.5       3.1       2.0       0.8      11.0
 2 O  s              19.8       3.6       1.7       0.5       0.4       0.5
 2 O  pz              6.3       0.9       0.0       0.1       0.4       0.6
 2 O  px              1.3       6.1       1.2       0.3       0.1       0.6
 2 O  py              1.4       0.4       0.2       0.5       0.1       0.2
 2 O  dz2             0.0       3.1       0.2       2.0       0.8       0.3
 2 O  dxz             0.4       0.2       0.3       0.2       0.0       1.7
 2 O  dyz             2.2       0.2       1.0       0.1       1.7       2.8
 2 O  dx2y2           0.3       0.1       0.6       0.5       1.8       0.4
 2 O  dxy             1.4       1.5       0.0       1.8       0.2       0.2
 3 O  s              10.8      13.4       0.5       1.1       0.4       0.8
 3 O  pz              0.3       1.5       0.0       0.4       0.5       0.8
 3 O  px              4.1       1.0       1.7       0.2       0.1       0.8
 3 O  py              0.2       5.1       0.2       0.2       0.4       0.2
 3 O  dz2             0.0       0.1       2.2       2.1       0.0       0.1
 3 O  dxz             1.3       0.6       0.0       0.6       0.3       1.6
 3 O  dyz             0.2       0.6       1.0       0.9       0.4       0.2
 3 O  dx2y2           2.6       0.7       1.0       0.0       2.1       2.4
 3 O  dxy             0.2       2.5       0.2       2.5       2.0       0.7
 4 H  s               0.1       0.7       0.2       0.7       2.0       0.1
 5 H  s               0.1       0.0       0.4       0.4       1.1       3.0
 6 H  s               0.1       0.4       0.4       0.9       0.7       0.6
 7 H  s               0.1       0.1       0.4       0.2       2.7       3.5
 8 H  s               1.5       0.4       0.0       0.0       0.2       0.1
 9 H  s               0.1       1.6       0.0       0.4       0.2       0.0

                     54        55        56        57        58        59   
                   1.94008   2.13391   2.15083   2.36438   2.53025   2.53546
                   0.00000   0.00000   0.00000   0.00000   0.00000   0.00000
                  --------  --------  --------  --------  --------  --------
 0 C  s               0.2       0.2       0.0       2.4       0.0       0.1
 0 C  pz              0.3       0.3       0.2       1.9       0.0       0.0
 0 C  px              0.1       0.7       0.5       2.9       0.0       0.0
 0 C  py              1.2       0.0       1.6       0.0       0.1       0.2
 0 C  dz2            14.6       3.3      12.4       0.1       0.5       0.0
 0 C  dxz             0.0       4.4       0.2      21.5       0.0       0.6
 0 C  dyz             1.1       5.7      28.2       1.2       0.2       0.0
 0 C  dx2y2           3.8       5.7       1.1      10.0       0.7       0.1
 0 C  dxy             7.3      13.4       5.6       0.1       0.6       0.0
 1 C  s               0.6       0.0       0.0       2.5       0.1       0.1
 1 C  pz              1.1       0.4       0.0       1.6       0.0       0.1
 1 C  px              0.0       0.5       0.2       2.9       0.1       0.1
 1 C  py              1.8       0.4       0.7       0.1       0.0       0.0
 1 C  dz2             5.6      27.2       0.7       0.4       0.6       1.4
 1 C  dxz             0.0       1.7       1.2      18.9       0.0       0.2
 1 C  dyz            12.9       9.9       0.0       2.5       0.1       0.7
 1 C  dx2y2           6.6       0.5       6.9      10.1       0.0       0.0
 1 C  dxy            24.5       0.2      15.9       1.5       0.3       0.4
 2 O  s               0.9       0.3       0.4       0.2       0.0       0.0
 2 O  pz              0.7       0.1       0.2       0.0       0.0       0.0
 2 O  px              0.8       1.0       0.8       0.1       0.0       0.0
 2 O  py              1.2       0.1       0.4       0.0       0.0       0.0
 2 O  dz2             0.6       0.4       2.8       1.9       7.8      31.4
 2 O  dxz             0.3       0.8       0.0       1.6       0.0       0.3
 2 O  dyz             0.0       2.7       2.2       3.0      12.7      12.6
 2 O  dx2y2           0.6       0.3       1.1       0.5       0.0       0.7
 2 O  dxy             2.4       0.4       2.6       2.0       8.2      21.7
 3 O  s               0.2       1.8       0.0       0.1       0.0       0.0
 3 O  pz              0.1       0.7       0.2       0.0       0.0       0.0
 3 O  px              0.1       1.8       0.1       0.2       0.0       0.0
 3 O  py              0.2       0.4       0.4       0.0       0.0       0.0
 3 O  dz2             0.1       0.6       1.0       4.0      26.1      13.0
 3 O  dxz             0.1       2.6       0.5       0.5      17.9       3.6
 3 O  dyz             0.2       3.7       0.0       2.8       0.0       0.1
 3 O  dx2y2           0.2       0.3       0.6       0.5       8.7       3.3
 3 O  dxy             0.9       0.7       0.8       0.6      14.6       8.5
 4 H  s               3.3       0.4       3.8       0.1       0.3       0.0
 5 H  s               0.6       1.4       4.1       0.6       0.0       0.0
 6 H  s               4.3       1.5       2.2       0.1       0.1       0.1
 7 H  s               0.1       3.3       0.1       0.5       0.0       0.3
 8 H  s               0.1       0.1       0.2       0.0       0.0       0.0
 9 H  s               0.0       0.0       0.1       0.0       0.0       0.0

                     60        61        62        63        64        65   
                   2.72845   2.77813   2.80034   2.86016   2.92040   2.93337
                   0.00000   0.00000   0.00000   0.00000   0.00000   0.00000
                  --------  --------  --------  --------  --------  --------
 0 C  s               0.0       0.1       0.0       0.1       0.2       0.0
 0 C  pz              0.3       0.1       0.0       0.1       0.1       0.1
 0 C  px              0.0       0.1       0.0       0.0       0.1       0.1
 0 C  py              0.2       0.1       0.0       0.2       0.1       0.0
 0 C  dz2             4.0       0.0       0.0       3.3       1.5       0.9
 0 C  dxz             2.2       3.9       0.0       0.9       0.1       0.1
 0 C  dyz             0.5       0.2       0.4       2.6       0.4       0.0
 0 C  dx2y2           1.6       0.0       1.1       7.7       0.0       1.0
 0 C  dxy             1.2       1.6       0.0       0.0       1.7       0.2
 1 C  s               0.0       0.2       0.0       0.0       0.0       0.1
 1 C  pz              0.1       0.2       0.2       0.1       0.0       0.2
 1 C  px              0.0       0.0       0.0       0.2       0.0       0.0
 1 C  py              0.0       0.0       0.4       0.0       0.0       0.1
 1 C  dz2             1.0       3.4       1.6       0.3       0.1       1.8
 1 C  dxz             0.1       2.8       1.6       2.2       0.3       0.0
 1 C  dyz             0.2       1.4       0.1       0.1       0.1       2.1
 1 C  dx2y2           0.3       5.5       8.1       0.0       0.2       0.7
 1 C  dxy             0.3       1.3       0.8       0.4       0.4       0.0
 2 O  s               0.0       0.3       0.0       0.1       0.0       2.9
 2 O  pz              0.1       1.0       0.1       0.0       0.0       0.5
 2 O  px              0.1       0.8       0.2       0.3       0.0       0.1
 2 O  py              0.0       0.0       0.5       0.1       0.0       0.0
 2 O  dz2             6.9      23.2       8.8       0.7       0.4       3.3
 2 O  dxz             0.0       3.7      20.5       8.9       0.2      23.0
 2 O  dyz             5.1      36.3       1.8       0.3       0.0       0.2
 2 O  dx2y2           0.4       0.0      39.7       0.4       0.3      41.9
 2 O  dxy             1.2       0.0       8.5       0.7       0.0       8.5
 3 O  s               0.2       0.0       0.0       0.3       2.2       0.1
 3 O  pz              0.5       0.2       0.0       0.5       0.4       0.0
 3 O  px              0.0       0.1       0.0       0.4       0.0       0.1
 3 O  py              0.6       0.2       0.0       0.0       0.6       0.0
 3 O  dz2             4.3       1.4       1.1       7.1      27.2       0.5
 3 O  dxz             2.3       0.1       0.1       0.0      38.2       0.0
 3 O  dyz            10.9       2.9       0.0      31.7      17.2       1.8
 3 O  dx2y2          25.0       5.7       3.5      28.4       1.4       3.7
 3 O  dxy            29.3       1.9       0.5       0.3       0.0       0.0
 4 H  s               0.1       0.1       0.1       0.1       0.0       0.0
 5 H  s               0.1       0.0       0.0       0.0       0.0       0.0
 6 H  s               0.0       0.1       0.1       0.1       0.0       0.0
 7 H  s               0.0       0.1       0.1       0.0       0.0       0.0
 8 H  s               0.1       1.0       0.0       0.8       0.0       5.7
 9 H  s               0.3       0.2       0.1       0.4       6.7       0.0

                     66        67   
                   3.25099   3.26614
                   0.00000   0.00000
                  --------  --------
 0 C  s               0.4       2.3
 0 C  pz              0.1       0.6
 0 C  px              1.1       1.4
 0 C  py              0.2       0.8
 0 C  dz2             0.0       0.6
 0 C  dxz             1.8       2.3
 0 C  dyz             0.3       1.4
 0 C  dx2y2           0.0       1.0
 0 C  dxy             1.4       2.8
 1 C  s               1.5       0.7
 1 C  pz              0.4       0.2
 1 C  px              1.9       0.4
 1 C  py              0.9       0.4
 1 C  dz2             0.2       0.6
 1 C  dxz             3.2       0.7
 1 C  dyz             1.1       0.6
 1 C  dx2y2           0.0       0.1
 1 C  dxy             4.1       1.1
 2 O  s               2.2       0.8
 2 O  pz              0.1       0.1
 2 O  px              2.4       0.8
 2 O  py              0.8       0.2
 2 O  dz2             2.2       0.9
 2 O  dxz            19.1       7.0
 2 O  dyz             8.3       4.1
 2 O  dxy            24.4       6.6
 3 O  s               0.8       2.6
 3 O  pz              0.4       1.4
 3 O  px              0.6       1.7
 3 O  py              0.1       0.3
 3 O  dz2             1.2       3.2
 3 O  dxz             4.8      14.6
 3 O  dyz             2.7      12.9
 3 O  dx2y2           1.5       3.7
 3 O  dxy             8.8      19.9
 8 H  s               0.8       0.2
 9 H  s               0.2       0.7


                      *****************************
                      * MAYER POPULATION ANALYSIS *
                      *****************************

  NA   - Mulliken gross atomic population
  ZA   - Total nuclear charge
  QA   - Mulliken gross atomic charge
  VA   - Mayer's total valence
  BVA  - Mayer's bonded valence
  FA   - Mayer's free valence

  ATOM       NA         ZA         QA         VA         BVA        FA
  0 C      5.9980     6.0000     0.0020     3.9871     3.9871     0.0000
  1 C      6.0168     6.0000    -0.0168     4.0127     4.0127     0.0000
  2 O      8.4396     8.0000    -0.4396     1.9877     1.9877     0.0000
  3 O      8.4388     8.0000    -0.4388     1.9932     1.9932    -0.0000
  4 H      0.9279     1.0000     0.0721     0.9474     0.9474    -0.0000
  5 H      0.8923     1.0000     0.1077     0.9797     0.9797    -0.0000
  6 H      0.9358     1.0000     0.0642     0.9449     0.9449     0.0000
  7 H      0.9366     1.0000     0.0634     0.9731     0.9731    -0.0000
  8 H      0.7042     1.0000     0.2958     0.8819     0.8819     0.0000
  9 H      0.7099     1.0000     0.2901     0.8868     0.8868    -0.0000

  Mayer bond orders larger than 0.100000
B(  0-C ,  1-C ) :   1.0641 B(  0-C ,  3-O ) :   1.0707 B(  0-C ,  4-H ) :   0.9278 
B(  0-C ,  5-H ) :   0.9294 B(  1-C ,  2-O ) :   1.0843 B(  1-C ,  6-H ) :   0.9181 
B(  1-C ,  7-H ) :   0.9305 B(  2-O ,  8-H ) :   0.8531 B(  3-O ,  9-H ) :   0.8564 


-------
TIMINGS
-------

Total SCF time: 0 days 0 hours 0 min 2 sec 

Total time                  ....       2.730 sec
Sum of individual times     ....       2.911 sec  (106.6%)

SCF preparation             ....       0.611 sec  ( 22.4%)
Fock matrix formation       ....       0.878 sec  ( 32.1%)
  Startup                   ....       0.007 sec  (  0.9% of F)
  Split-RI-J                ....       0.255 sec  ( 29.1% of F)
  XC integration            ....       0.545 sec  ( 62.1% of F)
    XC Preparation          ....       0.000 sec  (  0.0% of XC)
    Basis function eval.    ....       0.212 sec  ( 38.9% of XC)
    Density eval.           ....       0.082 sec  ( 15.1% of XC)
    XC-Functional eval.     ....       0.064 sec  ( 11.7% of XC)
    XC-Potential eval.      ....       0.083 sec  ( 15.2% of XC)
Diagonalization             ....       0.000 sec  (  0.0%)
Density matrix formation    ....       0.027 sec  (  1.0%)
Total Energy calculation    ....       0.002 sec  (  0.1%)
Population analysis         ....       0.807 sec  ( 29.6%)
Orbital Transformation      ....       0.229 sec  (  8.4%)
Orbital Orthonormalization  ....       0.000 sec  (  0.0%)
DIIS solution               ....       0.344 sec  ( 12.6%)
  MO trafo                  ....       0.000 sec  (  0.0 % of DIIS)
  Orb grad                  ....       0.000 sec  (  0.0 % of DIIS)
  Energy W gradient         ....       0.000 sec  (  0.0 % of DIIS)
  DIIS error                ....       0.000 sec  (  0.1 % of DIIS)
  DIIS work                 ....       0.121 sec  ( 35.1 % of DIIS)
  Form Q                    ....       0.000 sec  (  0.0 % of DIIS)
  Form QpQm                 ....       0.000 sec  (  0.0 % of DIIS)
  Exp/Cayley                ....       0.000 sec  (  0.0 % of DIIS)
  Orb update                ....       0.000 sec  (  0.0 % of DIIS)
  Wake-sleep                ....       0.001 sec  (  0.2 % of DIIS)
SOSCF solution              ....       0.015 sec  (  0.5%)
  MO trafo                  ....       0.011 sec  ( 71.2 % of SOSCF)
  Orb grad                  ....       0.000 sec  (  0.9 % of SOSCF)
  Rot update                ....       0.001 sec  (  9.3 % of SOSCF)
  Step                      ....       0.003 sec  ( 18.4 % of SOSCF)
Finished LeanSCF after   3.4 sec

Maximum memory used throughout the entire LEANSCF-calculation: 7.0 MB


-------------------------------------------------------------------------------
                          DFT DISPERSION CORRECTION                            
                                                                               
                                DFTD4 V3.4.0                                   
-------------------------------------------------------------------------------
The PBE functional is recognized
Active option DFTDOPT                   ...         5   

-------------------------   ----------------
Dispersion correction           -0.004709517
-------------------------   ----------------

------------------   -----------------
gCP correction             0.055373735
------------------   -----------------

-------------------------   --------------------
FINAL SINGLE POINT ENERGY      -229.716172293751
-------------------------   --------------------


------------------------------------------------------------------------------
                              ORCA PROPERTY CALCULATIONS
------------------------------------------------------------------------------

GBWName                                 ... sp.gbw
Number of atoms                         ...     10
Number of basis functions               ...     68
Max core memory                         ...   1024 MB

Electric properties:
Dipole moment                           ... YES
Quadrupole moment                       ...  NO
Static polarizability (Dipole/Dipole)   ...  NO
Static polarizability (Dipole/Quad.)    ...  NO
Static polarizability (Quad./Quad.)     ...  NO
Static polarizability (Velocity)        ...  NO

Atomic electric properties:
Dipole moment                           ...  NO
Quadrupole moment                       ...  NO
Static polarizability                   ...  NO

Choice of electric origin               ... Center of mass
Position of electric origin             ...     0.000002    -0.000016     0.000004

General magnetic properties:
Magnetizability                         ...  NO

EPR properties:
g-Tensor (aka g-matrix)                 ...  NO
Zero-Field splitting spin-orbit         ...  NO
Zero-field splitting spin-spin          ...  NO
Hyperfine couplings                     ...  NO (   0 nuclei)
Quadrupole couplings                    ...  NO (   0 nuclei)
Contact density                         ...  NO (   0 nuclei)

NMR properties:
Chemical shifts                         ...  NO (   0 nuclei)
Spin-rotation constants                 ...  NO (   0 nuclei)
Spin-spin couplings                     ...  NO (   0 nuclei,    0 pairs)

Choice of magnetic origin               ... GIAO
Position of magnetic origin             ...     0.000000     0.000000     0.000000

Properties with geometric perturbations:
SCF Hessian                             ...  NO
IR spectrum                             ...  NO
VCD spectrum                            ...  NO
X-ray spectroscopy properties:
SCF XES/XAS/RIXS spectra                ...  NO


-------------
DIPOLE MOMENT
-------------

Method             : SCF
Type of density    : Electron Density
Multiplicity       :   1
Irrep              :   0
Energy             :  -229.7668365124259822 Eh
Relativity type    : 
Basis              : AO
                                X                 Y                 Z
Electronic contribution:     -0.147990920       1.508154429      -0.229899791
Nuclear contribution   :      0.527038703      -2.249145254       1.012290734
                        -----------------------------------------
Total Dipole Moment    :      0.379047783      -0.740990825       0.782390943
                        -----------------------------------------
Magnitude (a.u.)       :      1.142313535
Magnitude (Debye)      :      2.903530259



--------------------
Rotational spectrum 
--------------------
 
Rotational constants in cm-1:             0.723471             0.139567             0.137980 
Rotational constants in MHz :         21689.112737          4184.112119          4136.535922 

Dipole components along the rotational axes: 
x,y,z [a.u.] :    -0.344818     0.980307    -0.474320 
x,y,z [Debye]:    -0.876456     2.491743    -1.205625 

 

Dipole moment calculation done in   0.5 sec 

Maximum memory used throughout the entire PROP-calculation: 4.8 MB

--------------------------------
SUGGESTED CITATIONS FOR THIS RUN
--------------------------------

Below you find a list of papers that are relevant to this ORCA run
We neither can nor want to force you to cite these papers, but we appreciate if you do
You receive ORCA, which is the product of decades of hard work by many enthusiastic individuals, for free
The only thing we kindly ask in return is that you cite our papers,
We deeply appreciate it, if you show your appreciation for ORCA by not just citing the generic ORCA reference.

Please note that relegating all ORCA citations to the supporting information does *not* help us.
SI sections are not indexed - citations you put there will not count into any citation statistics
But we need these citations in order to attract the funding resources that allow us to do what we are doing

Therefore, if you are a happy ORCA user, please consider citing a few of the papers listed below in the main body of your paper

In addition to the list printed below, the program has created the file sp.bibtex that contains the list in bibtex format
You can import this file easily into all common literature databanks and citation aid programs


List of essential papers. We consider these as the minimum necessary citations

  1. Neese,F.
     Software update: the ORCA program system, version 5.0
     WIRES Comput. Molec. Sci., 2022 12(1)e1606
     doi.org/10.1002/wcms.1606

List of papers to cite with high priority. The work reported in these papers was absolutely
necessary for this run to complete.
Our perspective: the developers of density functionals and basis sets usually get cited in chemistry papers
Good! But without the algorithms to do something with them, the functionals or basis sets would not do anything.
Hence, in our opinion, the algorithm design and method developments papers are equally worthy of getting cited

  1. Neese,F.
     An improvement of the resolution of the identity approximation for the formation of the Coulomb matrix
     J. Comp. Chem., 2003 24(14)1740-1747
     doi.org/10.1002/jcc.10318
  2. Neese,F.
     The SHARK Integral Generation and Digestion System
     J. Comp. Chem., 2022  1-16
     doi.org/10.1002/jcc.26942
  3. Caldeweyher,E.; Bannwarth,C.; Grimme,S.
     Extension of the D3 dispersion coefficient model
     J. Chem. Phys., 2017 147 034112
     doi.org/10.1063/1.4993215
  4. Caldeweyher,E.; Ehlert,S.; Hansen,A.; Neugebauer,H.; Spicher,S.; Bannwarth,C.; Grimme,S.
     A generally applicable atomic-charge dependent London dispersion correction
     J. Chem. Phys., 2019 150 154122
     doi.org/10.1063/1.5090222
  5. Caldeweyher,E.; Mewes,J.; Ehlert,S.; Grimme,S.
     Extension and evaluation of the D4 London-dispersion model for periodic systems
     Phys. Chem. Chem. Phys., 2020 22(16)8499-8512
     doi.org/10.1039/D0CP00502A
  6. Wittmann,L.; Gordiy,I.; Friede,M.; Helmich-Paris,B.; Grimme,S.; Hansen,A.; Bursch,M.
     Extension of the D3 and D4 London Dispersion Corrections to the full Actinides Series
     Phys. Chem. Chem. Phys., 2024 26(32)21379-21394
     doi.org/https://doi.org/10.1039/D4CP01514B 

List of suggested additional citations. These are papers that are important in the 'surrounding' of 
of this run, or papers that preceded the highly important papers. If you like your results we are grateful for a citation.

  1. Neese,F.
     The ORCA program system
     WIRES Comput. Molec. Sci., 2012 2(1)73-78
     doi.org/10.1002/wcms.81
  2. Neese,F.
     Software update: the ORCA program system, version 4.0
     WIRES Comput. Molec. Sci., 2018 8(1)1-6
     doi.org/10.1002/wcms.1327
  3. Neese,F.; Wennmohs,F.; Becker,U.; Riplinger,C.
     The ORCA quantum chemistry program package
     J. Chem. Phys., 2020 152 Art. No. L224108
     doi.org/10.1063/5.0004608

List of optional additional citations

  1. Neese,F.
     Approximate second-order SCF convergence for spin unrestricted wavefunctions
     Chem. Phys. Lett., 2000 325(1-3)93-98
     doi.org/10.1016/s0009-2614(00)00662-x

Timings for individual modules:

Sum of individual times          ...        4.560 sec (=   0.076 min)
Startup calculation              ...        0.372 sec (=   0.006 min)   8.2 %
SCF iterations                   ...        3.621 sec (=   0.060 min)  79.4 %
Property calculations            ...        0.567 sec (=   0.009 min)  12.4 %
                             ****ORCA TERMINATED NORMALLY****
TOTAL RUN TIME: 0 days 0 hours 0 minutes 6 seconds 101 msec
