      -----------------------------------------------------------      
     |                   =====================                   |     
     |                           x T B                           |     
     |                   =====================                   |     
     |                         S. Grimme                         |     
     |          Mulliken Center for Theoretical Chemistry        |     
     |                    University of Bonn                     |     
      -----------------------------------------------------------      

   * xtb version 6.7.1 (edcfbbe) compiled by 'albert@albert-system' on 2024-07-22

   xtb is free software: you can redistribute it and/or modify it under
   the terms of the GNU Lesser General Public License as published by
   the Free Software Foundation, either version 3 of the License, or
   (at your option) any later version.
   
   xtb is distributed in the hope that it will be useful,
   but WITHOUT ANY WARRANTY; without even the implied warranty of
   MERCHANTABILITY or FITNESS FOR A PARTICULAR PURPOSE.  See the
   GNU Lesser General Public License for more details.
   
   Cite this work as:
   * C. Bannwarth, E. Caldeweyher, S. Ehlert, A. Hansen, P. Pracht,
     J. Seibert, S. Spicher, S. Grimme, WIREs Comput. Mol. Sci., 2020, 11,
     e01493. DOI: 10.1002/wcms.1493
   
   for GFN2-xTB:
   * C. Bannwarth, S. Ehlert and S. Grimme., J. Chem. Theory Comput., 2019,
     15, 1652-1671. DOI: 10.1021/acs.jctc.8b01176
   for GFN1-xTB:
   * S. Grimme, C. Bannwarth, P. Shushkov, J. Chem. Theory Comput., 2017,
     13, 1989-2009. DOI: 10.1021/acs.jctc.7b00118
   for GFN0-xTB:
   * P. Pracht, E. Caldeweyher, S. Ehlert, S. Grimme, ChemRxiv, 2019, preprint.
     DOI: 10.26434/chemrxiv.8326202.v1
   for GFN-FF:
   * S. Spicher and S. Grimme, Angew. Chem. Int. Ed., 2020, 59, 15665-15673.
     DOI: 10.1002/anie.202004239
   
   for ALPB and GBSA implicit solvation:
   * S. Ehlert, M. Stahn, S. Spicher, S. Grimme, J. Chem. Theory Comput.,
     2021, 17, 4250-4261. DOI: 10.1021/acs.jctc.1c00471
   
   for ddCOSMO and CPCM-X implicit solvation:
   * M. Stahn, S. Ehlert, S. Grimme, J. Phys. Chem. A,
     2023, XX, XXXX-XXXX. DOI: 10.1021/acs.jpca.3c04382
   
   for DFT-D4:
   * E. Caldeweyher, C. Bannwarth and S. Grimme, J. Chem. Phys., 2017,
     147, 034112. DOI: 10.1063/1.4993215
   * E. Caldeweyher, S. Ehlert, A. Hansen, H. Neugebauer, S. Spicher,
     C. Bannwarth and S. Grimme, J. Chem. Phys., 2019, 150, 154122.
     DOI: 10.1063/1.5090222
   * E. Caldeweyher, J.-M. Mewes, S. Ehlert and S. Grimme, Phys. Chem. Chem. Phys.
     2020, 22, 8499-8512. DOI: 10.1039/D0CP00502A
   
   for sTDA-xTB:
   * S. Grimme and C. Bannwarth, J. Chem. Phys., 2016, 145, 054103.
     DOI: 10.1063/1.4959605
   
   in the mass-spec context:
   * V. Asgeirsson, C. Bauer and S. Grimme, Chem. Sci., 2017, 8, 4879.
     DOI: 10.1039/c7sc00601b
   * J. Koopman and S. Grimme, ACS Omega 2019, 4, 12, 15120-15133.
     DOI: 10.1021/acsomega.9b02011
   
   for metadynamics refer to:
   * S. Grimme, J. Chem. Theory Comput., 2019, 155, 2847-2862
     DOI: 10.1021/acs.jctc.9b00143
   
   for SPH calculations refer to:
   * S. Spicher and S. Grimme, J. Chem. Theory Comput., 2021, 17, 1701-1714
     DOI: 10.1021/acs.jctc.0c01306
   
   for ONIOM refer to:
   * C. Plett, A. Katbashev, S. Ehlert, S. Grimme, M. Bursch,
     Phys. Chem. Chem. Phys., 2023, 25, 17860-17868. DOI: 10.1039/D3CP02178E
   
   for DIPRO refer to:
   * J. Kohn, N. Gildemeister, S. Grimme, D. Fazzi, A. Hansen,
     J. Chem. Phys., 2023, just accepted.
   
   for PTB refer to:
   * S. Grimme, M. Mueller, A. Hansen, J. Chem. Phys., 2023, 158, 124111.
     DOI: 10.1063/5.0137838
   
   with help from (in alphabetical order)
   P. Atkinson, C. Bannwarth, F. Bohle, G. Brandenburg, E. Caldeweyher
   M. Checinski, S. Dohm, S. Ehlert, S. Ehrlich, I. Gerasimov, C. Hölzer
   A. Katbashev, J. Kohn, J. Koopman, C. Lavigne, S. Lehtola, F. März, M. Müller,
   F. Musil, H. Neugebauer, J. Pisarek, C. Plett, P. Pracht, F. Pultar,
   J. Seibert, P. Shushkov, S. Spicher, M. Stahn, M. Steiner, T. Strunk,
   J. Stückrath, T. Rose, and J. Unsleber
   
 * started run on 2025/04/16 at 09:54:38.337     
   ID    Z sym.   atoms
    1    6 C      1, 3, 5, 6
    2    8 O      2, 4
    3    7 N      7
    4    1 H      8-12

           -------------------------------------------------
          |                Calculation Setup                |
           -------------------------------------------------

          program call               : /software/projects/pawsey0265/mwang1/xtb/bin/xtb xtb_opt.coord --opt normal --orca -I xtb_opt-xcontrol-inp
          hostname                   : nid002793
          coordinate file            : xtb_opt.coord
          omp threads                :                    16

           -------------------------------------------------
          |                   Orca driver                   |
           -------------------------------------------------
orca executable           : /software/projects/pawsey0265/mwang1/orca_avx2/orca
orca input file           : xtb_opt.inp
orca input line           : 
orca parallel             : true
orca number of threads    : 16
                         * ORCA takes the control...
  ------------------------------------------------------------------------

                                 *****************
                                 * O   R   C   A *
                                 *****************

                                            #,                                       
                                            ###                                      
                                            ####                                     
                                            #####                                    
                                            ######                                   
                                           ########,                                 
                                     ,,################,,,,,                         
                               ,,#################################,,                 
                          ,,##########################################,,             
                       ,#########################################, ''#####,          
                    ,#############################################,,   '####,        
                  ,##################################################,,,,####,       
                ,###########''''           ''''###############################       
              ,#####''   ,,,,##########,,,,          '''####'''          '####       
            ,##' ,,,,###########################,,,                        '##       
           ' ,,###''''                  '''############,,,                           
         ,,##''                                '''############,,,,        ,,,,,,###''
      ,#''                                            '''#######################'''  
     '                                                          ''''####''''         
             ,#######,   #######,   ,#######,      ##                                
            ,#'     '#,  ##    ##  ,#'     '#,    #''#        ,####,   ,####,        
            ##       ##  ##   ,#'  ##            #'  '#       #'       #'  '#        
            ##       ##  #######   ##           ,######,      #####,   #    #        
            '#,     ,#'  ##    ##  '#,     ,#' ,#      #,     #,   #   #,  ,#        
             '#######'   ##     ##  '#######'  #'      '#     '####' # '####'        



                #########################################################
                #                        -***-                          #
                #          Department of theory and spectroscopy        #
                #                                                       #
                #                      Frank Neese                      #
                #                                                       #
                #     Directorship, Architecture, Infrastructure        #
                #                    SHARK, DRIVERS                     #
                #        Core code/Algorithms in most modules           #
                #                                                       #
                #        Max Planck Institute fuer Kohlenforschung      #
                #                Kaiser Wilhelm Platz 1                 #
                #                 D-45470 Muelheim/Ruhr                 #
                #                      Germany                          #
                #                                                       #
                #                  All rights reserved                  #
                #                        -***-                          #
                #########################################################


                         Program Version 6.0.1  -  RELEASE   -


 With contributions from (in alphabetic order):
[Max-Planck-Institut fuer Kohlenforschung]                               
  Daniel Aravena         : Magnetic Suceptibility                        
  Michael Atanasov       : Ab Initio Ligand Field Theory (pilot matlab implementation)
  Alexander A. Auer      : GIAO ZORA, VPT2 properties, NMR spectrum      
  Ute Becker             : All parallelization in ORCA, NUMFREQ, NUMCALC 
  Giovanni Bistoni       : ED, misc. LED, open-shell LED, HFLD           
  Martin Brehm           : Molecular dynamics                            
  Dmytro Bykov           : pre 5.0 version of the SCF Hessian            
  Marcos Casanova-Páez   : Triplet and SCS-CIS(D). UHF-(DLPNO)-IP/EA/STEOM-CCSD. UHF-CVS-IP/STEOM-CCSD   
  Vijay G. Chilkuri      : MRCI spin determinant printing, contributions to CSF-ICE 
  Pauline Colinet        : FMM embedding                                 
  Dipayan Datta          : RHF DLPNO-CCSD density                        
  Achintya Kumar Dutta   : EOM-CC, STEOM-CC                              
  Nicolas Foglia         : Exact transition moments, OPA infrastructure, MCD improvements    
  Dmitry Ganyushin       : Spin-Orbit,Spin-Spin,Magnetic field MRCI      
  Miquel Garcia-Rates    : C-PCM and meta-GGA Hessian, CCSD/C-PCM, Gaussian charge scheme 
  Tiago L. C. Gouveia    : GS-ROHF, GS-ROCIS                             
  Yang Guo               : DLPNO-NEVPT2, F12-NEVPT2, CIM, IAO-localization        
  Andreas Hansen         : Spin unrestricted coupled pair/coupled cluster methods 
  Ingolf Harden          : AUTO-CI MPn and infrastructure                
  Benjamin Helmich-Paris : MC-RPA, TRAH-(SCF,CASSCF), AVAS, COSX integrals, SCF dyn. polar. 
  Lee Huntington         : MR-EOM, pCC                                   
  Robert Izsak           : Overlap fitted RIJCOSX, COSX-SCS-MP3, EOM     
  Riya Kayal             : Wick's Theorem for AUTO-CI, AUTO-CI UHF-CCSDT 
  Emily Kempfer          : AUTO-CI, RHF CISDT and CCSDT                  
  Christian Kollmar      : KDIIS, OOCD, Brueckner-CCSD(T), CCSD density, CASPT2, CASPT2-K, improved NEVPT2 
  Axel Koslowski         : Symmetry handling                             
  Simone Kossmann        : meta-GGA functionals, TD-DFT gradient, OOMP2, (MP2 Hessian; deprecated post 5.0) 
  Lucas Lang             : DCDCAS                                        
  Marvin Lechner         : AUTO-CI (C++ implementation), FIC-MRCC        
  Spencer Leger          : CASSCF response                               
  Dagmar Lenk            : GEPOL surface, SMD, ORCA-2-JSON               
  Dimitrios Liakos       : Extrapolation schemes; Compound Job, initial MDCI parallelization 
  Dimitrios Manganas     : Further ROCIS development; embedding schemes. LFT, Crystal Embedding 
  Dimitrios Pantazis     : SARC Basis sets                               
  Anastasios Papadopoulos: AUTO-CI, single reference methods and gradients 
  Taras Petrenko         : pre 6.0 DFT Hessian and TD-DFT gradient, (ASA, deprecated), ECA, 1-Electron XAS/XES, NRVS 
  Peter Pinski           : DLPNO-MP2, DLPNO-MP2 Gradient                 
  Christoph Reimann      : Effective Core Potentials                     
  Marius Retegan         : Local ZFS, SOC                                
  Christoph Riplinger    : Optimizer, TS searches, QM/MM, DLPNO-CCSD(T), (RO)-DLPNO pert. Triples 
  Michael Roemelt        : Original ROCIS implementation                 
  Masaaki Saitow         : Open-shell DLPNO-CCSD energy and density      
  Barbara Sandhoefer     : DKH picture change effects                    
  Kantharuban Sivalingam : CASSCF convergence/infrastructure, NEVPT2 and variants, FIC-MRCI 
  Bernardo de Souza      : ESD, SOC TD-DFT                               
  Georgi L. Stoychev     : AutoAux, RI-MP2 NMR, DLPNO-MP2 response, X2C  
  Van Anh Tran           : RI-MP2 g-tensors                              
  Willem Van den Heuvel  : Paramagnetic NMR                              
  Zikuan Wang            : NOTCH, Electric field optimization            
  Frank Wennmohs         : Technical directorship and infrastructure     
  Hang Xu                : AUTO-CI-Response properties                   
                                                                         
[FACCTs GmbH]                                                            
  Markus Bursch, Miquel Garcia-Rates, Christoph Riplinger, Bernardo de Souza, Georgi L. Stoychev 
                                                                 
  APM, Basis sets (HGBS, AHGBS, def-TZVP (Ac-Lr), def2-XVPD (La-Lu)), CI-OPT, improved COSX, DLPNO-Multilevel,           
  DOCKER, DRACO, updates on ESD, GOAT, IRC, LR-CPCM, MBIS, meta-GGA TD-DFT gradient, ML-optimized integration grids, 
  MM, NACMEs, nearIR, NEB, NEB-TS, NL-DFT gradient (VV10), 2- and 3-layer-ONIOM, interface openCOSMO-RS, QMMM,   
  Crystal-QMMM, SF, symmetry and pop. for TD-DFT, r2SCAN hybrids, SOLVATOR                                   
                                                                         
[Other institutions]                                                     
  V. Asgeirsson          : NEB                                           
  Christoph Bannwarth    : sTDA-DFT, sTD-DFT, PBEh-3c, B97-3c, D3        
  Sebastian Ehlert       : rSCAN, r2SCAN, r2SCAN-3c, D4, dhf basis sets  
  Marvin Friede          : D4 for Fr, Ra, Ac-Lr                          
  Lars Goerigk           : TD-DFT with DH, B97 family of functionals     
  Stefan Grimme          : VdW corrections, initial TS optimization, DFT functionals, gCP, sTDA/sTD-DF 
  Waldemar Hujo          : DFT-NL                                        
  H. Jonsson             : NEB                                           
  Holger Kruse           : gCP                                           
  Marcel Mueller         : wB97X-3c, vDZP basis set                      
  Hagen Neugebauer       : wr2SCAN                                       
  Tobias Risthaus        : range-separated hybrid DFT                    
  Lukas Wittmann         : regularized MP2, r2SCAN double-hybrids, wr2SCAN        
                                                                         
We gratefully acknowledge several colleagues who have allowed us to      
interface, adapt or use parts of their codes:                            
  Ed Valeev, F. Pavosevic, A. Kumar             : LibInt (2-el integral package), F12 methods 
  Garnet Chan, S. Sharma, J. Yang, R. Olivares  : DMRG                   
  Ulf Ekstrom                                   : XCFun DFT Library      
  Mihaly Kallay                                 : mrcc  (arbitrary order and MRCC methods)
  Frank Weinhold                                : gennbo (NPA and NBO analysis)           
  Simon Mueller                                 : openCOSMO-RS                            
  Christopher J. Cramer and Donald G. Truhlar   : smd solvation model                     
  S Lehtola, MJT Oliveira, MAL Marques          : LibXC Library                           
  Liviu Ungur et al                             : ANISO software                          


 Your calculation uses the libint2 library for the computation of 2-el integrals
 For citations please refer to: http://libint.valeyev.net

 Your ORCA version has been built with support for libXC version: 6.2.2
 For citations please refer to: https://libxc.gitlab.io

 This ORCA versions uses:
   CBLAS   interface :  Fast vector & matrix operations
   LAPACKE interface :  Fast linear algebra routines
   SCALAPACK package :  Parallel linear algebra routines
   Shared memory     :  Shared parallel matrices
   BLAS/LAPACK       :  OpenBLAS 0.3.27  USE64BITINT DYNAMIC_ARCH NO_AFFINITY Zen SINGLE_THREADED
        Core in use  :  Zen
   Copyright (c) 2011-2014, The OpenBLAS Project




***************************************
The coordinates will be read from file: xtb_opt.xyz
***************************************


Your calculation utilizes the geometrical counterpoise correction gCP
Please cite in your paper:
H.Kruse, S. Grimme J.Chem.Phys., 136, (2012), 154101 
   

Your calculation utilizes the atom-pairwise dispersion correction
based on EEQ partial charges (D4)


================================================================================

----- Orbital basis set information -----
Your calculation utilizes the basis: def2-mTZVPP
   Stefan Grimme, Andreas Hansen, Sebastian Ehlert, and Jan-Michael Mewes 
   J. Chem. Phys. 154, 064103 (2021). DOI: 10.1063/5.0040021

----- AuxJ basis set information -----
Your calculation utilizes the auxiliary basis: def2/J
   F. Weigend, Phys. Chem. Chem. Phys. 8, 1057 (2006).

================================================================================
                                        WARNINGS
                       Please study these warnings very carefully!
================================================================================



WARNING: SCAN, rSCAN, or r2SCAN functional requested.
  ===> : libXC variant has now been activated.



================================================================================
                                       INPUT FILE
================================================================================
NAME = xtb_opt.inp
|  1> ! r2scan-3c def2/J RI DEFGRID2 scfconv7 ENGRAD tightSCF miniprint
|  2> * xyzfile 0 1 xtb_opt.xyz
|  3> 
|  4>                          ****END OF INPUT****
================================================================================

                     *******************************
                     * Energy+Gradient Calculation *
                     *******************************

---------------------------------
CARTESIAN COORDINATES (ANGSTROEM)
---------------------------------
  C     -2.751802   -0.128026   -0.152732
  O     -1.469974   -0.458263   -0.675410
  C     -0.418837    0.001769    0.010219
  O     -0.494770    0.656465    1.008550
  C      0.865145   -0.441032   -0.685691
  C      2.050316    0.017430   -0.005769
  N      3.001823    0.370079    0.516815
  H     -3.477107   -0.571595   -0.829397
  H     -2.875537    0.955622   -0.111407
  H     -2.865480   -0.534086    0.854002
  H      0.857908   -0.052928   -1.708351
  H      0.873402   -1.533624   -0.736903

----------------------------
CARTESIAN COORDINATES (A.U.)
----------------------------
  NO LB      ZA    FRAG     MASS         X           Y           Z
   0 C     6.0000    0    12.011   -5.200152   -0.241933   -0.288622
   1 O     8.0000    0    15.999   -2.777848   -0.865992   -1.276340
   2 C     6.0000    0    12.011   -0.791487    0.003343    0.019311
   3 O     8.0000    0    15.999   -0.934980    1.240538    1.905883
   4 C     6.0000    0    12.011    1.634887   -0.833430   -1.295768
   5 C     6.0000    0    12.011    3.874536    0.032938   -0.010901
   6 N     7.0000    0    14.007    5.672623    0.699347    0.976639
   7 H     1.0000    0     1.008   -6.570780   -1.080159   -1.567333
   8 H     1.0000    0     1.008   -5.433978    1.805864   -0.210528
   9 H     1.0000    0     1.008   -5.414972   -1.009276    1.613830
  10 H     1.0000    0     1.008    1.621210   -0.100020   -3.228316
  11 H     1.0000    0     1.008    1.650491   -2.898129   -1.392545

------------------------------------------------------------------------------
                   ___                                                        
                  /   \      - P O W E R E D   B Y -                         
                 /     \                                                     
                 |  |  |   _    _      __       _____    __    __             
                 |  |  |  | |  | |    /  \     |  _  \  |  |  /  |          
                  \  \/   | |  | |   /    \    | | | |  |  | /  /          
                 / \  \   | |__| |  /  /\  \   | |_| |  |  |/  /          
                |  |  |   |  __  | /  /__\  \  |    /   |      \           
                |  |  |   | |  | | |   __   |  |    \   |  |\   \          
                \     /   | |  | | |  |  |  |  | |\  \  |  | \   \       
                 \___/    |_|  |_| |__|  |__|  |_| \__\ |__|  \__/        
                                                                              
                      - O R C A' S   B I G   F R I E N D -                    
                                      &                                       
                       - I N T E G R A L  F E E D E R -                       
                                                                              
 v1 FN, 2020, v2 2021, v3 2022-2024                                           
------------------------------------------------------------------------------


----------------------
SHARK INTEGRAL PACKAGE
----------------------

Number of atoms                             ...     12
Number of basis functions                   ...    173
Number of shells                            ...     81
Maximum angular momentum                    ...      2
Integral batch strategy                     ... SHARK/LIBINT Hybrid
RI-J (if used) integral strategy            ... SPLIT-RIJ (Revised 2003 algorithm where possible)
Printlevel                                  ...      1
Contraction scheme used                     ... SEGMENTED contraction
Prescreening option                         ... SCHWARTZ
   Thresh                                   ... 3.000e-11
   Tcut                                     ... 1.000e-12
   Tpresel                                  ... 1.000e-12 
Coulomb Range Separation                    ... NOT USED
Exchange Range Separation                   ... NOT USED
Multipole approximations                    ... NOT USED
Finite Nucleus Model                        ... NOT USED
CABS basis                                  ... NOT available
Auxiliary Coulomb fitting basis             ... AVAILABLE
   # of basis functions in Aux-J            ...    398
   # of shells in Aux-J                     ...    130
   Maximum angular momentum in Aux-J        ...      4
Auxiliary J/K fitting basis                 ... NOT available
Auxiliary Correlation fitting basis         ... NOT available
Auxiliary 'external' fitting basis          ... NOT available

Checking pre-screening integrals            ... done (  0.0 sec) Dimension = 81
Check shell pair data                       ... done (  0.0 sec)
Shell pair information
Shell pair cut-off parameter TPreSel        ...   1.0e-12
Total number of shell pairs                 ...      3321
Shell pairs after pre-screening             ...      3029
Total number of primitive shell pairs       ...     12104
Primitive shell pairs kept                  ...      8031
          la=0 lb=0:    903 shell pairs
          la=1 lb=0:   1078 shell pairs
          la=1 lb=1:    334 shell pairs
          la=2 lb=0:    414 shell pairs
          la=2 lb=1:    247 shell pairs
          la=2 lb=2:     53 shell pairs

Calculating one electron integrals          ... done (  0.0 sec)
Calculating RI/J V-Matrix + Cholesky decomp.... done (  0.0 sec)
Calculating Nuclear repulsion               ... done (  0.0 sec) ENN=    276.089327058472 Eh

Diagonalization of the overlap matrix:
Smallest eigenvalue                        ... 7.953e-05
Time for diagonalization                   ...    0.003 sec
Threshold for overlap eigenvalues          ... 1.000e-07
Number of eigenvalues below threshold      ... 0
Time for construction of square roots      ...    0.003 sec
Total time needed                          ...    0.007 sec

-------------------
DFT GRID GENERATION
-------------------

General Integration Accuracy     IntAcc      ... 4.388
Radial Grid Type                 RadialGrid  ... OptM3 with GC (2021)
Angular Grid (max. ang.)         AngularGrid ... 4 (Lebedev-302)
Angular grid pruning method      GridPruning ... 4 (adaptive)
Weight generation scheme         WeightScheme... mBecke (2022)
Basis function cutoff            BFCut       ... 1.0000e-11
Integration weight cutoff        WCut        ... 1.0000e-14
Partially contracted basis set               ... off
Rotationally invariant grid construction     ... off
Angular grids for H and He will be reduced by one unit
Diffuse basis detected: some atoms will have their outermost
                        angular grid increased by 1.

Total number of grid points                  ...    59271
Total number of batches                      ...      934
Average number of points per batch           ...       63
Average number of grid points per atom       ...     4939
Initializing property integral containers    ... done (  0.0 sec)

SHARK setup successfully completed in   0.5 seconds

Maximum memory used throughout the entire STARTUP-calculation: 27.6 MB
Occupation numbers will be reassigned to an Aufbau configuration
             **** ENERGY FILE WAS UPDATED (xtb_opt.en.tmp) ****
Finished Guess after   0.1 sec
Maximum memory used throughout the entire GUESS-calculation: 12.1 MB
----------------------------------------D-I-I-S--------------------------------------------
Iteration    Energy (Eh)           Delta-E    RMSDP     MaxDP     DIISErr   Damp  Time(sec)
-------------------------------------------------------------------------------------------
               ***  Starting incremental Fock matrix formation  ***
                              *** Initializing SOSCF ***
---------------------------------------S-O-S-C-F--------------------------------------
Iteration    Energy (Eh)           Delta-E    RMSDP     MaxDP     MaxGrad    Time(sec)
--------------------------------------------------------------------------------------
    1    -360.5530515833280560     0.00e+00  2.18e-06  4.20e-05  8.91e-06     1.1
               *** Restarting incremental Fock matrix formation ***
    2    -360.5530515828052103     5.23e-10  2.77e-06  6.54e-05  2.12e-05     1.1
                  *** Gradient check signals convergence ***

               *****************************************************
               *                     SUCCESS                       *
               *           SCF CONVERGED AFTER   2 CYCLES          *
               *****************************************************

             **** ENERGY FILE WAS UPDATED (xtb_opt.en.tmp) ****

----------------
TOTAL SCF ENERGY
----------------

Total Energy       :       -360.55305158280521 Eh           -9811.14732 eV

Components:
Nuclear Repulsion  :        276.08932705847155 Eh            7512.77253 eV
Electronic Energy  :       -636.64237864127676 Eh          -17323.91985 eV
One Electron Energy:      -1036.76400734777326 Eh          -28211.78290 eV
Two Electron Energy:        400.12162870649649 Eh           10887.86305 eV

Virial components:
Potential Energy   :       -719.81531238107436 Eh          -19587.17044 eV
Kinetic Energy     :        359.26226079826910 Eh            9776.02312 eV
Virial Ratio       :          2.00359289278442

DFT components:
N(Alpha)           :       25.999998681672 electrons
N(Beta)            :       25.999998681672 electrons
N(Total)           :       51.999997363343 electrons
E(X)               :      -45.774468914849 Eh       
E(C)               :       -1.693831653300 Eh       
E(XC)              :      -47.468300568149 Eh       

---------------
SCF CONVERGENCE
---------------

  Last Energy change         ...   -5.2285e-10  Tolerance :   1.0000e-07
  Last MAX-Density change    ...    6.5434e-05  Tolerance :   1.0000e-07
  Last RMS-Density change    ...    2.7651e-06  Tolerance :   5.0000e-09
  Last DIIS Error            ...    4.5809e-05  Tolerance :   1.0000e-07
  Last Orbital Gradient      ...    2.1167e-05  Tolerance :   1.0000e-04
  Last Orbital Rotation      ...    6.7743e-05  Tolerance :   1.0000e-04


----------------
ORBITAL ENERGIES
----------------

  NO   OCC          E(Eh)            E(eV) 
   0   2.0000     -19.026648      -517.7414 
   1   2.0000     -18.963465      -516.0221 
   2   2.0000     -14.159554      -385.3011 
   3   2.0000     -10.190222      -277.2900 
   4   2.0000     -10.109411      -275.0910 
   5   2.0000     -10.105604      -274.9875 
   6   2.0000     -10.075865      -274.1782 
   7   2.0000      -1.103789       -30.0356 
   8   2.0000      -1.014725       -27.6121 
   9   2.0000      -0.884779       -24.0761 
  10   2.0000      -0.790786       -21.5184 
  11   2.0000      -0.712726       -19.3943 
  12   2.0000      -0.575347       -15.6560 
  13   2.0000      -0.513947       -13.9852 
  14   2.0000      -0.497924       -13.5492 
  15   2.0000      -0.494145       -13.4464 
  16   2.0000      -0.453964       -12.3530 
  17   2.0000      -0.448965       -12.2170 
  18   2.0000      -0.415507       -11.3065 
  19   2.0000      -0.379094       -10.3157 
  20   2.0000      -0.352659        -9.5964 
  21   2.0000      -0.332615        -9.0509 
  22   2.0000      -0.317454        -8.6384 
  23   2.0000      -0.315367        -8.5816 
  24   2.0000      -0.300754        -8.1839 
  25   2.0000      -0.271594        -7.3905 
  26   0.0000      -0.044068        -1.1992 
  27   0.0000      -0.005279        -0.1436 
  28   0.0000       0.004401         0.1198 
  29   0.0000       0.040012         1.0888 
  30   0.0000       0.073359         1.9962 
  31   0.0000       0.091273         2.4837 
  32   0.0000       0.133481         3.6322 
  33   0.0000       0.144134         3.9221 
  34   0.0000       0.148466         4.0400 
  35   0.0000       0.157472         4.2850 
  36   0.0000       0.163965         4.4617 
*Only the first 10 virtual orbitals were printed.
Total SCF time: 0 days 0 hours 0 min 2 sec 
Finished LeanSCF after   2.7 sec

Maximum memory used throughout the entire LEANSCF-calculation: 17.7 MB


-------------------------------------------------------------------------------
                          DFT DISPERSION CORRECTION                            
                                                                               
                                DFTD4 V3.4.0                                   
-------------------------------------------------------------------------------
-------------------------   ----------------
Dispersion correction           -0.002772941
-------------------------   ----------------

------------------   -----------------
gCP correction             0.007659059
------------------   -----------------

-------------------------   --------------------
FINAL SINGLE POINT ENERGY      -360.548165464796
-------------------------   --------------------

------------------------------------------------------------------------------
                         ORCA SCF GRADIENT CALCULATION
------------------------------------------------------------------------------

Nuc. rep. gradient        (SHARK) ... done (  0.0 sec)
HCore & Overlap gradient  (SHARK) ... done (  0.1 sec)
Split-RIJ-J gradient      (SHARK) ... done (  0.8 sec)
XC gradient                       ... done (  2.7 sec)
Dispersion correction             ... done (  0.0 sec)

-------------------
DISPERSION GRADIENT
-------------------

   1   C   :   -0.000059369    0.000003504    0.000006260
   2   O   :   -0.000039985   -0.000006642   -0.000009496
   3   C   :   -0.000017869   -0.000000112    0.000000125
   4   O   :   -0.000017308    0.000021881    0.000033611
   5   C   :    0.000037672   -0.000012634   -0.000019837
   6   C   :    0.000059081    0.000001901    0.000001972
   7   N   :    0.000076576    0.000011358    0.000016101
   8   H   :   -0.000024981   -0.000003556   -0.000005095
   9   H   :   -0.000022678    0.000004123    0.000000099
  10   H   :   -0.000022651   -0.000001942    0.000004002
  11   H   :    0.000015672   -0.000000757   -0.000019241
  12   H   :    0.000015840   -0.000017124   -0.000008502

Difference to translation invariance:
           :    0.0000000000   -0.0000000000    0.0000000000

Difference to rotation invariance:
           :    0.0000000000   -0.0000000000    0.0000000000

Norm of the Dispersion gradient    ...    0.0001490593
RMS gradient                       ...    0.0000248432
MAX gradient                       ...    0.0000765759
gCP correction                   ... done

------------------
CARTESIAN GRADIENT
------------------

   1   C   :    0.007954707   -0.004198201   -0.006491663
   2   O   :   -0.006267811    0.009118293    0.013928083
   3   C   :   -0.000691868    0.000659223    0.001317706
   4   O   :   -0.002338393   -0.005994432   -0.009241956
   5   C   :    0.003476136   -0.000177506   -0.000367706
   6   C   :    0.019541520    0.006820090    0.010076239
   7   N   :   -0.025054511   -0.009104687   -0.013482837
   8   H   :    0.000917814    0.000936395    0.001417020
   9   H   :    0.000766992   -0.001334750   -0.000055231
  10   H   :    0.000768951    0.000488767   -0.001281699
  11   H   :    0.000479564    0.001683731    0.001872239
  12   H   :    0.000446900    0.001103077    0.002309805

Difference to translation invariance:
           :    0.0000000000    0.0000000000    0.0000000000

Difference to rotation invariance:
           :   -0.0000164312    0.0001185017   -0.0000236292

Norm of the Cartesian gradient     ...    0.0450044432
RMS gradient                       ...    0.0075007405
MAX gradient                       ...    0.0250545112

-------
TIMINGS
-------

Total SCF gradient time     ....        3.655 sec

Densities                   ....       0.000 sec  (  0.0%)
One electron gradient       ....       0.107 sec  (  2.9%)
RI-J Coulomb gradient       ....       0.771 sec  ( 21.1%)
XC gradient                 ....       2.737 sec  ( 74.9%)

Maximum memory used throughout the entire SCFGRAD-calculation: 32.2 MB

------------------------------------------------------------------------------
                              ORCA PROPERTY CALCULATIONS
------------------------------------------------------------------------------

GBWName                                 ... xtb_opt.gbw
Number of atoms                         ...     12
Number of basis functions               ...    173
Max core memory                         ...   1024 MB

Electric properties:
Dipole moment                           ... YES
Quadrupole moment                       ...  NO
Static polarizability (Dipole/Dipole)   ...  NO
Static polarizability (Dipole/Quad.)    ...  NO
Static polarizability (Quad./Quad.)     ...  NO
Static polarizability (Velocity)        ...  NO

Atomic electric properties:
Dipole moment                           ...  NO
Quadrupole moment                       ...  NO
Static polarizability                   ...  NO

Choice of electric origin               ... Center of mass
Position of electric origin             ...     0.000018    -0.000003    -0.000004

General magnetic properties:
Magnetizability                         ...  NO

EPR properties:
g-Tensor (aka g-matrix)                 ...  NO
Zero-Field splitting spin-orbit         ...  NO
Zero-field splitting spin-spin          ...  NO
Hyperfine couplings                     ...  NO (   0 nuclei)
Quadrupole couplings                    ...  NO (   0 nuclei)
Contact density                         ...  NO (   0 nuclei)

NMR properties:
Chemical shifts                         ...  NO (   0 nuclei)
Spin-rotation constants                 ...  NO (   0 nuclei)
Spin-spin couplings                     ...  NO (   0 nuclei,    0 pairs)

Choice of magnetic origin               ... GIAO
Position of magnetic origin             ...     0.000000     0.000000     0.000000

Properties with geometric perturbations:
SCF Hessian                             ...  NO
IR spectrum                             ...  NO
VCD spectrum                            ...  NO
X-ray spectroscopy properties:
SCF XES/XAS/RIXS spectra                ...  NO


-------------
DIPOLE MOMENT
-------------

Method             : SCF
Type of density    : Electron Density
Multiplicity       :   1
Irrep              :   0
Energy             :  -360.5530515828052103 Eh
Relativity type    : 
Basis              : AO
                                X                 Y                 Z
Electronic contribution:      5.369895480       0.826155494       1.177228274
Nuclear contribution   :     -7.036524079      -1.624271615      -2.367731283
                        -----------------------------------------
Total Dipole Moment    :     -1.666628598      -0.798116121      -1.190503009
                        -----------------------------------------
Magnitude (a.u.)       :      2.198166882
Magnitude (Debye)      :      5.587296184



--------------------
Rotational spectrum 
--------------------
 
Rotational constants in cm-1:             0.317458             0.047565             0.042020 
Rotational constants in MHz :          9517.140009          1425.955447          1259.736885 

Dipole components along the rotational axes: 
x,y,z [a.u.] :     1.814609     1.240618    -0.000011 
x,y,z [Debye]:     4.612369     3.153400    -0.000027 

 

Dipole moment calculation done in   0.3 sec 

Maximum memory used throughout the entire PROP-calculation: 10.5 MB

--------------------------------
SUGGESTED CITATIONS FOR THIS RUN
--------------------------------

Below you find a list of papers that are relevant to this ORCA run
We neither can nor want to force you to cite these papers, but we appreciate if you do
You receive ORCA, which is the product of decades of hard work by many enthusiastic individuals, for free
The only thing we kindly ask in return is that you cite our papers,
We deeply appreciate it, if you show your appreciation for ORCA by not just citing the generic ORCA reference.

Please note that relegating all ORCA citations to the supporting information does *not* help us.
SI sections are not indexed - citations you put there will not count into any citation statistics
But we need these citations in order to attract the funding resources that allow us to do what we are doing

Therefore, if you are a happy ORCA user, please consider citing a few of the papers listed below in the main body of your paper

In addition to the list printed below, the program has created the file xtb_opt.bibtex that contains the list in bibtex format
You can import this file easily into all common literature databanks and citation aid programs


List of essential papers. We consider these as the minimum necessary citations

  1. Neese,F.
     Software update: the ORCA program system, version 5.0
     WIRES Comput. Molec. Sci., 2022 12(1)e1606
     doi.org/10.1002/wcms.1606
  2. Grimme,S.; Hansen,A.; Ehlert,S.; Mewes,J.
     r2SCAN-3c: A 'Swiss army knife' composite electronic-structure method
     J. Chem. Phys., 2021 154 064103
     doi.org/10.1063/5.0040021

List of papers to cite with high priority. The work reported in these papers was absolutely
necessary for this run to complete.
Our perspective: the developers of density functionals and basis sets usually get cited in chemistry papers
Good! But without the algorithms to do something with them, the functionals or basis sets would not do anything.
Hence, in our opinion, the algorithm design and method developments papers are equally worthy of getting cited

  1. Neese,F.
     An improvement of the resolution of the identity approximation for the formation of the Coulomb matrix
     J. Comp. Chem., 2003 24(14)1740-1747
     doi.org/10.1002/jcc.10318
  2. Neese,F.
     The SHARK Integral Generation and Digestion System
     J. Comp. Chem., 2022  1-16
     doi.org/10.1002/jcc.26942
  3. Lehtola,S.; Steigemann,C.; Oliveira,M.; Marques,M.
     Recent developments in Libxc - A comprehensive library of functionals for density functional theory
     Software X, 2018 7 
     doi.org/10.1016/j.softx.2017.11.002
  4. Caldeweyher,E.; Bannwarth,C.; Grimme,S.
     Extension of the D3 dispersion coefficient model
     J. Chem. Phys., 2017 147 034112
     doi.org/10.1063/1.4993215
  5. Caldeweyher,E.; Ehlert,S.; Hansen,A.; Neugebauer,H.; Spicher,S.; Bannwarth,C.; Grimme,S.
     A generally applicable atomic-charge dependent London dispersion correction
     J. Chem. Phys., 2019 150 154122
     doi.org/10.1063/1.5090222
  6. Caldeweyher,E.; Mewes,J.; Ehlert,S.; Grimme,S.
     Extension and evaluation of the D4 London-dispersion model for periodic systems
     Phys. Chem. Chem. Phys., 2020 22(16)8499-8512
     doi.org/10.1039/D0CP00502A
  7. Wittmann,L.; Gordiy,I.; Friede,M.; Helmich-Paris,B.; Grimme,S.; Hansen,A.; Bursch,M.
     Extension of the D3 and D4 London Dispersion Corrections to the full Actinides Series
     Phys. Chem. Chem. Phys., 2024 26(32)21379-21394
     doi.org/https://doi.org/10.1039/D4CP01514B 

List of suggested additional citations. These are papers that are important in the 'surrounding' of 
of this run, or papers that preceded the highly important papers. If you like your results we are grateful for a citation.

  1. Neese,F.
     The ORCA program system
     WIRES Comput. Molec. Sci., 2012 2(1)73-78
     doi.org/10.1002/wcms.81
  2. Neese,F.
     Software update: the ORCA program system, version 4.0
     WIRES Comput. Molec. Sci., 2018 8(1)1-6
     doi.org/10.1002/wcms.1327
  3. Neese,F.; Wennmohs,F.; Becker,U.; Riplinger,C.
     The ORCA quantum chemistry program package
     J. Chem. Phys., 2020 152 Art. No. L224108
     doi.org/10.1063/5.0004608

List of optional additional citations

  1. Neese,F.
     Approximate second-order SCF convergence for spin unrestricted wavefunctions
     Chem. Phys. Lett., 2000 325(1-3)93-98
     doi.org/10.1016/s0009-2614(00)00662-x

Timings for individual modules:

Sum of individual times          ...        7.898 sec (=   0.132 min)
Startup calculation              ...        0.556 sec (=   0.009 min)   7.0 %
SCF iterations                   ...        2.816 sec (=   0.047 min)  35.7 %
Property calculations            ...        0.348 sec (=   0.006 min)   4.4 %
SCF Gradient evaluation          ...        4.178 sec (=   0.070 min)  52.9 %
                             ****ORCA TERMINATED NORMALLY****
TOTAL RUN TIME: 0 days 0 hours 0 minutes 8 seconds 515 msec
  ------------------------------------------------------------------------
          * successful ORCA run, taking over control again...

         :::::::::::::::::::::::::::::::::::::::::::::::::::::
         ::                  ORCA SUMMARY                   ::
         :::::::::::::::::::::::::::::::::::::::::::::::::::::
         :: total energy            -360.548165464796 Eh    ::
         :: gradient norm              0.045004443227 Eh/a0 ::
         :: HOMO-LUMO gap              0.000000000000 eV    ::
         :::::::::::::::::::::::::::::::::::::::::::::::::::::

      ----------------------------------------------------------- 
     |                       L-ANC optimizer                     |
      ----------------------------------------------------------- 
          low memory version by Sebastian Ehlert

          ...................................................
          :                      SETUP                      :
          :.................................................:
          :   energy convergence        0.5000000E-05 Eh    :
          :   grad. convergence         0.1000000E-02 Eh/a0 :
          :   optimization log               true           :
          :   writing optlog all                1     steps :
          :   Hessian reset                     8     steps :
          :   maximium step len.        1.0000000     a0    :
          :   LBFGS images                      8           :
          ...................................................
 * calculating model hessian...
Using Lindh-Hessian (1995)
 Shifting diagonal of input Hessian by   1.000000000000000E-002
 Lowest  eigenvalues of input Hessian
    0.000000    0.000000    0.000000    0.000000    0.000000    0.000000
    0.012114    0.015855    0.019425    0.019652    0.037724    0.043060
    0.045608    0.062673    0.097120    0.112382    0.119523    0.130161
 Highest eigenvalues
    1.135513    1.186126    1.299861    1.779491    2.390844    2.583681
 

........................................................................
.............................. CYCLE    1 ..............................
........................................................................
                         * ORCA takes the control...
  ------------------------------------------------------------------------

                                 *****************
                                 * O   R   C   A *
                                 *****************

                                            #,                                       
                                            ###                                      
                                            ####                                     
                                            #####                                    
                                            ######                                   
                                           ########,                                 
                                     ,,################,,,,,                         
                               ,,#################################,,                 
                          ,,##########################################,,             
                       ,#########################################, ''#####,          
                    ,#############################################,,   '####,        
                  ,##################################################,,,,####,       
                ,###########''''           ''''###############################       
              ,#####''   ,,,,##########,,,,          '''####'''          '####       
            ,##' ,,,,###########################,,,                        '##       
           ' ,,###''''                  '''############,,,                           
         ,,##''                                '''############,,,,        ,,,,,,###''
      ,#''                                            '''#######################'''  
     '                                                          ''''####''''         
             ,#######,   #######,   ,#######,      ##                                
            ,#'     '#,  ##    ##  ,#'     '#,    #''#        ,####,   ,####,        
            ##       ##  ##   ,#'  ##            #'  '#       #'       #'  '#        
            ##       ##  #######   ##           ,######,      #####,   #    #        
            '#,     ,#'  ##    ##  '#,     ,#' ,#      #,     #,   #   #,  ,#        
             '#######'   ##     ##  '#######'  #'      '#     '####' # '####'        



                #########################################################
                #                        -***-                          #
                #          Department of theory and spectroscopy        #
                #                                                       #
                #                      Frank Neese                      #
                #                                                       #
                #     Directorship, Architecture, Infrastructure        #
                #                    SHARK, DRIVERS                     #
                #        Core code/Algorithms in most modules           #
                #                                                       #
                #        Max Planck Institute fuer Kohlenforschung      #
                #                Kaiser Wilhelm Platz 1                 #
                #                 D-45470 Muelheim/Ruhr                 #
                #                      Germany                          #
                #                                                       #
                #                  All rights reserved                  #
                #                        -***-                          #
                #########################################################


                         Program Version 6.0.1  -  RELEASE   -


 With contributions from (in alphabetic order):
[Max-Planck-Institut fuer Kohlenforschung]                               
  Daniel Aravena         : Magnetic Suceptibility                        
  Michael Atanasov       : Ab Initio Ligand Field Theory (pilot matlab implementation)
  Alexander A. Auer      : GIAO ZORA, VPT2 properties, NMR spectrum      
  Ute Becker             : All parallelization in ORCA, NUMFREQ, NUMCALC 
  Giovanni Bistoni       : ED, misc. LED, open-shell LED, HFLD           
  Martin Brehm           : Molecular dynamics                            
  Dmytro Bykov           : pre 5.0 version of the SCF Hessian            
  Marcos Casanova-Páez   : Triplet and SCS-CIS(D). UHF-(DLPNO)-IP/EA/STEOM-CCSD. UHF-CVS-IP/STEOM-CCSD   
  Vijay G. Chilkuri      : MRCI spin determinant printing, contributions to CSF-ICE 
  Pauline Colinet        : FMM embedding                                 
  Dipayan Datta          : RHF DLPNO-CCSD density                        
  Achintya Kumar Dutta   : EOM-CC, STEOM-CC                              
  Nicolas Foglia         : Exact transition moments, OPA infrastructure, MCD improvements    
  Dmitry Ganyushin       : Spin-Orbit,Spin-Spin,Magnetic field MRCI      
  Miquel Garcia-Rates    : C-PCM and meta-GGA Hessian, CCSD/C-PCM, Gaussian charge scheme 
  Tiago L. C. Gouveia    : GS-ROHF, GS-ROCIS                             
  Yang Guo               : DLPNO-NEVPT2, F12-NEVPT2, CIM, IAO-localization        
  Andreas Hansen         : Spin unrestricted coupled pair/coupled cluster methods 
  Ingolf Harden          : AUTO-CI MPn and infrastructure                
  Benjamin Helmich-Paris : MC-RPA, TRAH-(SCF,CASSCF), AVAS, COSX integrals, SCF dyn. polar. 
  Lee Huntington         : MR-EOM, pCC                                   
  Robert Izsak           : Overlap fitted RIJCOSX, COSX-SCS-MP3, EOM     
  Riya Kayal             : Wick's Theorem for AUTO-CI, AUTO-CI UHF-CCSDT 
  Emily Kempfer          : AUTO-CI, RHF CISDT and CCSDT                  
  Christian Kollmar      : KDIIS, OOCD, Brueckner-CCSD(T), CCSD density, CASPT2, CASPT2-K, improved NEVPT2 
  Axel Koslowski         : Symmetry handling                             
  Simone Kossmann        : meta-GGA functionals, TD-DFT gradient, OOMP2, (MP2 Hessian; deprecated post 5.0) 
  Lucas Lang             : DCDCAS                                        
  Marvin Lechner         : AUTO-CI (C++ implementation), FIC-MRCC        
  Spencer Leger          : CASSCF response                               
  Dagmar Lenk            : GEPOL surface, SMD, ORCA-2-JSON               
  Dimitrios Liakos       : Extrapolation schemes; Compound Job, initial MDCI parallelization 
  Dimitrios Manganas     : Further ROCIS development; embedding schemes. LFT, Crystal Embedding 
  Dimitrios Pantazis     : SARC Basis sets                               
  Anastasios Papadopoulos: AUTO-CI, single reference methods and gradients 
  Taras Petrenko         : pre 6.0 DFT Hessian and TD-DFT gradient, (ASA, deprecated), ECA, 1-Electron XAS/XES, NRVS 
  Peter Pinski           : DLPNO-MP2, DLPNO-MP2 Gradient                 
  Christoph Reimann      : Effective Core Potentials                     
  Marius Retegan         : Local ZFS, SOC                                
  Christoph Riplinger    : Optimizer, TS searches, QM/MM, DLPNO-CCSD(T), (RO)-DLPNO pert. Triples 
  Michael Roemelt        : Original ROCIS implementation                 
  Masaaki Saitow         : Open-shell DLPNO-CCSD energy and density      
  Barbara Sandhoefer     : DKH picture change effects                    
  Kantharuban Sivalingam : CASSCF convergence/infrastructure, NEVPT2 and variants, FIC-MRCI 
  Bernardo de Souza      : ESD, SOC TD-DFT                               
  Georgi L. Stoychev     : AutoAux, RI-MP2 NMR, DLPNO-MP2 response, X2C  
  Van Anh Tran           : RI-MP2 g-tensors                              
  Willem Van den Heuvel  : Paramagnetic NMR                              
  Zikuan Wang            : NOTCH, Electric field optimization            
  Frank Wennmohs         : Technical directorship and infrastructure     
  Hang Xu                : AUTO-CI-Response properties                   
                                                                         
[FACCTs GmbH]                                                            
  Markus Bursch, Miquel Garcia-Rates, Christoph Riplinger, Bernardo de Souza, Georgi L. Stoychev 
                                                                 
  APM, Basis sets (HGBS, AHGBS, def-TZVP (Ac-Lr), def2-XVPD (La-Lu)), CI-OPT, improved COSX, DLPNO-Multilevel,           
  DOCKER, DRACO, updates on ESD, GOAT, IRC, LR-CPCM, MBIS, meta-GGA TD-DFT gradient, ML-optimized integration grids, 
  MM, NACMEs, nearIR, NEB, NEB-TS, NL-DFT gradient (VV10), 2- and 3-layer-ONIOM, interface openCOSMO-RS, QMMM,   
  Crystal-QMMM, SF, symmetry and pop. for TD-DFT, r2SCAN hybrids, SOLVATOR                                   
                                                                         
[Other institutions]                                                     
  V. Asgeirsson          : NEB                                           
  Christoph Bannwarth    : sTDA-DFT, sTD-DFT, PBEh-3c, B97-3c, D3        
  Sebastian Ehlert       : rSCAN, r2SCAN, r2SCAN-3c, D4, dhf basis sets  
  Marvin Friede          : D4 for Fr, Ra, Ac-Lr                          
  Lars Goerigk           : TD-DFT with DH, B97 family of functionals     
  Stefan Grimme          : VdW corrections, initial TS optimization, DFT functionals, gCP, sTDA/sTD-DF 
  Waldemar Hujo          : DFT-NL                                        
  H. Jonsson             : NEB                                           
  Holger Kruse           : gCP                                           
  Marcel Mueller         : wB97X-3c, vDZP basis set                      
  Hagen Neugebauer       : wr2SCAN                                       
  Tobias Risthaus        : range-separated hybrid DFT                    
  Lukas Wittmann         : regularized MP2, r2SCAN double-hybrids, wr2SCAN        
                                                                         
We gratefully acknowledge several colleagues who have allowed us to      
interface, adapt or use parts of their codes:                            
  Ed Valeev, F. Pavosevic, A. Kumar             : LibInt (2-el integral package), F12 methods 
  Garnet Chan, S. Sharma, J. Yang, R. Olivares  : DMRG                   
  Ulf Ekstrom                                   : XCFun DFT Library      
  Mihaly Kallay                                 : mrcc  (arbitrary order and MRCC methods)
  Frank Weinhold                                : gennbo (NPA and NBO analysis)           
  Simon Mueller                                 : openCOSMO-RS                            
  Christopher J. Cramer and Donald G. Truhlar   : smd solvation model                     
  S Lehtola, MJT Oliveira, MAL Marques          : LibXC Library                           
  Liviu Ungur et al                             : ANISO software                          


 Your calculation uses the libint2 library for the computation of 2-el integrals
 For citations please refer to: http://libint.valeyev.net

 Your ORCA version has been built with support for libXC version: 6.2.2
 For citations please refer to: https://libxc.gitlab.io

 This ORCA versions uses:
   CBLAS   interface :  Fast vector & matrix operations
   LAPACKE interface :  Fast linear algebra routines
   SCALAPACK package :  Parallel linear algebra routines
   Shared memory     :  Shared parallel matrices
   BLAS/LAPACK       :  OpenBLAS 0.3.27  USE64BITINT DYNAMIC_ARCH NO_AFFINITY Zen SINGLE_THREADED
        Core in use  :  Zen
   Copyright (c) 2011-2014, The OpenBLAS Project




***************************************
The coordinates will be read from file: xtb_opt.xyz
***************************************


Your calculation utilizes the geometrical counterpoise correction gCP
Please cite in your paper:
H.Kruse, S. Grimme J.Chem.Phys., 136, (2012), 154101 
   

Your calculation utilizes the atom-pairwise dispersion correction
based on EEQ partial charges (D4)


================================================================================

----- Orbital basis set information -----
Your calculation utilizes the basis: def2-mTZVPP
   Stefan Grimme, Andreas Hansen, Sebastian Ehlert, and Jan-Michael Mewes 
   J. Chem. Phys. 154, 064103 (2021). DOI: 10.1063/5.0040021

----- AuxJ basis set information -----
Your calculation utilizes the auxiliary basis: def2/J
   F. Weigend, Phys. Chem. Chem. Phys. 8, 1057 (2006).

================================================================================
                                        WARNINGS
                       Please study these warnings very carefully!
================================================================================

WARNING: Old DensityContainer found on disk!
         Will remove this file - 
         If you want to keep old densities, please start your calculation with a different basename. 



WARNING: SCAN, rSCAN, or r2SCAN functional requested.
  ===> : libXC variant has now been activated.



================================================================================
                                       INPUT FILE
================================================================================
NAME = xtb_opt.inp
|  1> ! r2scan-3c def2/J RI DEFGRID2 scfconv7 ENGRAD tightSCF miniprint
|  2> * xyzfile 0 1 xtb_opt.xyz
|  3> 
|  4>                          ****END OF INPUT****
================================================================================

                     *******************************
                     * Energy+Gradient Calculation *
                     *******************************

---------------------------------
CARTESIAN COORDINATES (ANGSTROEM)
---------------------------------
  C     -2.757211   -0.126902   -0.150885
  O     -1.468921   -0.464437   -0.684990
  C     -0.419874    0.002616    0.010567
  O     -0.494226    0.659557    1.014077
  C      0.865625   -0.440071   -0.684208
  C      2.056953    0.019156   -0.002627
  N      3.021763    0.375365    0.524392
  H     -3.483154   -0.572064   -0.829335
  H     -2.882499    0.958271   -0.110770
  H     -2.872253   -0.534034    0.857085
  H      0.856836   -0.062258   -1.712057
  H      0.872049   -1.533389   -0.747324

----------------------------
CARTESIAN COORDINATES (A.U.)
----------------------------
  NO LB      ZA    FRAG     MASS         X           Y           Z
   0 C     6.0000    0    12.011   -5.210374   -0.239809   -0.285131
   1 O     8.0000    0    15.999   -2.775859   -0.877658   -1.294444
   2 C     6.0000    0    12.011   -0.793448    0.004943    0.019968
   3 O     8.0000    0    15.999   -0.933953    1.246383    1.916328
   4 C     6.0000    0    12.011    1.635794   -0.831613   -1.292965
   5 C     6.0000    0    12.011    3.887077    0.036200   -0.004965
   6 N     7.0000    0    14.007    5.710305    0.709336    0.990958
   7 H     1.0000    0     1.008   -6.582207   -1.081045   -1.567216
   8 H     1.0000    0     1.008   -5.447134    1.810869   -0.209324
   9 H     1.0000    0     1.008   -5.427771   -1.009177    1.619656
  10 H     1.0000    0     1.008    1.619185   -0.117650   -3.235318
  11 H     1.0000    0     1.008    1.647935   -2.897685   -1.412238

------------------------------------------------------------------------------
                   ___                                                        
                  /   \      - P O W E R E D   B Y -                         
                 /     \                                                     
                 |  |  |   _    _      __       _____    __    __             
                 |  |  |  | |  | |    /  \     |  _  \  |  |  /  |          
                  \  \/   | |  | |   /    \    | | | |  |  | /  /          
                 / \  \   | |__| |  /  /\  \   | |_| |  |  |/  /          
                |  |  |   |  __  | /  /__\  \  |    /   |      \           
                |  |  |   | |  | | |   __   |  |    \   |  |\   \          
                \     /   | |  | | |  |  |  |  | |\  \  |  | \   \       
                 \___/    |_|  |_| |__|  |__|  |_| \__\ |__|  \__/        
                                                                              
                      - O R C A' S   B I G   F R I E N D -                    
                                      &                                       
                       - I N T E G R A L  F E E D E R -                       
                                                                              
 v1 FN, 2020, v2 2021, v3 2022-2024                                           
------------------------------------------------------------------------------


----------------------
SHARK INTEGRAL PACKAGE
----------------------

Number of atoms                             ...     12
Number of basis functions                   ...    173
Number of shells                            ...     81
Maximum angular momentum                    ...      2
Integral batch strategy                     ... SHARK/LIBINT Hybrid
RI-J (if used) integral strategy            ... SPLIT-RIJ (Revised 2003 algorithm where possible)
Printlevel                                  ...      1
Contraction scheme used                     ... SEGMENTED contraction
Prescreening option                         ... SCHWARTZ
   Thresh                                   ... 3.000e-11
   Tcut                                     ... 1.000e-12
   Tpresel                                  ... 1.000e-12 
Coulomb Range Separation                    ... NOT USED
Exchange Range Separation                   ... NOT USED
Multipole approximations                    ... NOT USED
Finite Nucleus Model                        ... NOT USED
CABS basis                                  ... NOT available
Auxiliary Coulomb fitting basis             ... AVAILABLE
   # of basis functions in Aux-J            ...    398
   # of shells in Aux-J                     ...    130
   Maximum angular momentum in Aux-J        ...      4
Auxiliary J/K fitting basis                 ... NOT available
Auxiliary Correlation fitting basis         ... NOT available
Auxiliary 'external' fitting basis          ... NOT available

Checking pre-screening integrals            ... done (  0.0 sec) Dimension = 81
Check shell pair data                       ... done (  0.0 sec)
Shell pair information
Shell pair cut-off parameter TPreSel        ...   1.0e-12
Total number of shell pairs                 ...      3321
Shell pairs after pre-screening             ...      3025
Total number of primitive shell pairs       ...     12104
Primitive shell pairs kept                  ...      8019
          la=0 lb=0:    900 shell pairs
          la=1 lb=0:   1077 shell pairs
          la=1 lb=1:    334 shell pairs
          la=2 lb=0:    414 shell pairs
          la=2 lb=1:    247 shell pairs
          la=2 lb=2:     53 shell pairs

Calculating one electron integrals          ... done (  0.0 sec)
Calculating RI/J V-Matrix + Cholesky decomp.... done (  0.0 sec)
Calculating Nuclear repulsion               ... done (  0.0 sec) ENN=    274.883206118805 Eh

Diagonalization of the overlap matrix:
Smallest eigenvalue                        ... 8.282e-05
Time for diagonalization                   ...    0.003 sec
Threshold for overlap eigenvalues          ... 1.000e-07
Number of eigenvalues below threshold      ... 0
Time for construction of square roots      ...    0.003 sec
Total time needed                          ...    0.007 sec

-------------------
DFT GRID GENERATION
-------------------

General Integration Accuracy     IntAcc      ... 4.388
Radial Grid Type                 RadialGrid  ... OptM3 with GC (2021)
Angular Grid (max. ang.)         AngularGrid ... 4 (Lebedev-302)
Angular grid pruning method      GridPruning ... 4 (adaptive)
Weight generation scheme         WeightScheme... mBecke (2022)
Basis function cutoff            BFCut       ... 1.0000e-11
Integration weight cutoff        WCut        ... 1.0000e-14
Partially contracted basis set               ... off
Rotationally invariant grid construction     ... off
Angular grids for H and He will be reduced by one unit
Diffuse basis detected: some atoms will have their outermost
                        angular grid increased by 1.

Total number of grid points                  ...    59276
Total number of batches                      ...      934
Average number of points per batch           ...       63
Average number of grid points per atom       ...     4940
Initializing property integral containers    ... done (  0.0 sec)

SHARK setup successfully completed in   0.5 seconds

Maximum memory used throughout the entire STARTUP-calculation: 27.6 MB
Occupation numbers will be reassigned to an Aufbau configuration
             **** ENERGY FILE WAS UPDATED (xtb_opt.en.tmp) ****
Finished Guess after   0.1 sec
Maximum memory used throughout the entire GUESS-calculation: 12.1 MB
----------------------------------------D-I-I-S--------------------------------------------
Iteration    Energy (Eh)           Delta-E    RMSDP     MaxDP     DIISErr   Damp  Time(sec)
-------------------------------------------------------------------------------------------
               ***  Starting incremental Fock matrix formation  ***
    1    -360.5535859032344206     0.00e+00  9.20e-05  2.18e-03  6.43e-03  0.700   1.1
    2    -360.5536726925201947    -8.68e-05  8.07e-05  2.01e-03  3.88e-03  0.700   0.9
                               ***Turning on AO-DIIS***
                              *** Initializing SOSCF ***
---------------------------------------S-O-S-C-F--------------------------------------
Iteration    Energy (Eh)           Delta-E    RMSDP     MaxDP     MaxGrad    Time(sec)
--------------------------------------------------------------------------------------
    3    -360.5537296295730130    -5.69e-05  2.07e-04  5.04e-03  2.22e-03     1.2
               *** Restarting incremental Fock matrix formation ***
    4    -360.5538540701962802    -1.24e-04  4.51e-05  1.16e-03  5.41e-04     1.1
    5    -360.5538390150503574     1.51e-05  3.38e-05  8.41e-04  1.80e-03     0.9
    6    -360.5538560690027907    -1.71e-05  7.28e-06  1.20e-04  4.55e-05     0.9
    7    -360.5538559190863452     1.50e-07  4.79e-06  9.91e-05  1.37e-04     0.8
    8    -360.5538561190498967    -2.00e-07  4.04e-06  7.45e-05  3.08e-05     0.8
    9    -360.5538560986947232     2.04e-08  2.41e-06  4.49e-05  3.02e-05     0.8
                 **** Energy Check signals convergence ****

               *****************************************************
               *                     SUCCESS                       *
               *           SCF CONVERGED AFTER   9 CYCLES          *
               *****************************************************

             **** ENERGY FILE WAS UPDATED (xtb_opt.en.tmp) ****

----------------
TOTAL SCF ENERGY
----------------

Total Energy       :       -360.55385609869472 Eh           -9811.16921 eV

Components:
Nuclear Repulsion  :        274.88320611880488 Eh            7479.95231 eV
Electronic Energy  :       -635.43706221749972 Eh          -17291.12153 eV
One Electron Energy:      -1034.38947047497550 Eh          -28147.16847 eV
Two Electron Energy:        398.95240825747584 Eh           10856.04694 eV

Virial components:
Potential Energy   :       -719.66527914804965 Eh          -19583.08783 eV
Kinetic Energy     :        359.11142304935498 Eh            9771.91862 eV
Virial Ratio       :          2.00401667270033

DFT components:
N(Alpha)           :       25.999998548171 electrons
N(Beta)            :       25.999998548171 electrons
N(Total)           :       51.999997096342 electrons
E(X)               :      -45.739137053417 Eh       
E(C)               :       -1.692325472901 Eh       
E(XC)              :      -47.431462526318 Eh       

---------------
SCF CONVERGENCE
---------------

  Last Energy change         ...   -2.0355e-08  Tolerance :   1.0000e-07
  Last MAX-Density change    ...    4.4930e-05  Tolerance :   1.0000e-07
  Last RMS-Density change    ...    2.4081e-06  Tolerance :   5.0000e-09
  Last DIIS Error            ...    2.2182e-03  Tolerance :   1.0000e-07
  Last Orbital Gradient      ...    3.0202e-05  Tolerance :   1.0000e-04
  Last Orbital Rotation      ...    2.8864e-05  Tolerance :   1.0000e-04


----------------
ORBITAL ENERGIES
----------------

  NO   OCC          E(Eh)            E(eV) 
   0   2.0000     -19.028000      -517.7782 
   1   2.0000     -18.964932      -516.0620 
   2   2.0000     -14.163753      -385.4153 
   3   2.0000     -10.191609      -277.3278 
   4   2.0000     -10.110490      -275.1204 
   5   2.0000     -10.107153      -275.0296 
   6   2.0000     -10.080402      -274.3017 
   7   2.0000      -1.099919       -29.9303 
   8   2.0000      -1.012698       -27.5569 
   9   2.0000      -0.880124       -23.9494 
  10   2.0000      -0.789204       -21.4753 
  11   2.0000      -0.710544       -19.3349 
  12   2.0000      -0.575483       -15.6597 
  13   2.0000      -0.512123       -13.9356 
  14   2.0000      -0.499311       -13.5869 
  15   2.0000      -0.491722       -13.3804 
  16   2.0000      -0.453700       -12.3458 
  17   2.0000      -0.446730       -12.1561 
  18   2.0000      -0.414104       -11.2683 
  19   2.0000      -0.378107       -10.2888 
  20   2.0000      -0.354446        -9.6450 
  21   2.0000      -0.333997        -9.0885 
  22   2.0000      -0.315119        -8.5748 
  23   2.0000      -0.313095        -8.5198 
  24   2.0000      -0.301198        -8.1960 
  25   2.0000      -0.272067        -7.4033 
  26   0.0000      -0.046352        -1.2613 
  27   0.0000      -0.009714        -0.2643 
  28   0.0000      -0.000790        -0.0215 
  29   0.0000       0.038203         1.0396 
  30   0.0000       0.070058         1.9064 
  31   0.0000       0.090157         2.4533 
  32   0.0000       0.132180         3.5968 
  33   0.0000       0.142827         3.8865 
  34   0.0000       0.148431         4.0390 
  35   0.0000       0.156800         4.2667 
  36   0.0000       0.162250         4.4151 
*Only the first 10 virtual orbitals were printed.
Total SCF time: 0 days 0 hours 0 min 8 sec 
Finished LeanSCF after  12.3 sec

Maximum memory used throughout the entire LEANSCF-calculation: 17.7 MB


-------------------------------------------------------------------------------
                          DFT DISPERSION CORRECTION                            
                                                                               
                                DFTD4 V3.4.0                                   
-------------------------------------------------------------------------------
-------------------------   ----------------
Dispersion correction           -0.002766534
-------------------------   ----------------

------------------   -----------------
gCP correction             0.007569487
------------------   -----------------

-------------------------   --------------------
FINAL SINGLE POINT ENERGY      -360.549053145898
-------------------------   --------------------

------------------------------------------------------------------------------
                         ORCA SCF GRADIENT CALCULATION
------------------------------------------------------------------------------

Nuc. rep. gradient        (SHARK) ... done (  0.0 sec)
HCore & Overlap gradient  (SHARK) ... done (  0.1 sec)
Split-RIJ-J gradient      (SHARK) ... done (  0.8 sec)
XC gradient                       ... done (  2.7 sec)
Dispersion correction             ... done (  0.0 sec)

-------------------
DISPERSION GRADIENT
-------------------

   1   C   :   -0.000058683    0.000003359    0.000006025
   2   O   :   -0.000040312   -0.000006587   -0.000009415
   3   C   :   -0.000018071   -0.000000140    0.000000072
   4   O   :   -0.000017343    0.000022056    0.000033903
   5   C   :    0.000037428   -0.000012745   -0.000020005
   6   C   :    0.000059097    0.000001959    0.000002072
   7   N   :    0.000076807    0.000011560    0.000016403
   8   H   :   -0.000024771   -0.000003445   -0.000004923
   9   H   :   -0.000022637    0.000003928    0.000000086
  10   H   :   -0.000022609   -0.000001869    0.000003819
  11   H   :    0.000015464   -0.000000858   -0.000019384
  12   H   :    0.000015629   -0.000017219   -0.000008653

Difference to translation invariance:
           :    0.0000000000   -0.0000000000    0.0000000000

Difference to rotation invariance:
           :   -0.0000000000   -0.0000000000   -0.0000000000

Norm of the Dispersion gradient    ...    0.0001490499
RMS gradient                       ...    0.0000248417
MAX gradient                       ...    0.0000768072
gCP correction                   ... done

------------------
CARTESIAN GRADIENT
------------------

   1   C   :    0.005814823   -0.002193351   -0.003401290
   2   O   :   -0.003372580    0.003532318    0.005498492
   3   C   :   -0.000183315   -0.001502288   -0.002490535
   4   O   :   -0.001153551   -0.000118290   -0.000133357
   5   C   :    0.000987421   -0.000348842   -0.000511437
   6   C   :   -0.005660927   -0.002235722   -0.003228543
   7   N   :    0.003925687    0.001599648    0.002325426
   8   H   :    0.000063953    0.000279115    0.000414395
   9   H   :   -0.000305842   -0.000031484    0.000248549
  10   H   :   -0.000315911    0.000221990    0.000060429
  11   H   :    0.000084563    0.000339337    0.000651567
  12   H   :    0.000115678    0.000457569    0.000566305

Difference to translation invariance:
           :   -0.0000000000   -0.0000000000   -0.0000000000

Difference to rotation invariance:
           :   -0.0000355009    0.0001191257   -0.0000043614

Norm of the Cartesian gradient     ...    0.0137109165
RMS gradient                       ...    0.0022851527
MAX gradient                       ...    0.0058148229

-------
TIMINGS
-------

Total SCF gradient time     ....        3.634 sec

Densities                   ....       0.000 sec  (  0.0%)
One electron gradient       ....       0.110 sec  (  3.0%)
RI-J Coulomb gradient       ....       0.772 sec  ( 21.2%)
XC gradient                 ....       2.714 sec  ( 74.7%)

Maximum memory used throughout the entire SCFGRAD-calculation: 32.2 MB

------------------------------------------------------------------------------
                              ORCA PROPERTY CALCULATIONS
------------------------------------------------------------------------------

GBWName                                 ... xtb_opt.gbw
Number of atoms                         ...     12
Number of basis functions               ...    173
Max core memory                         ...   1024 MB

Electric properties:
Dipole moment                           ... YES
Quadrupole moment                       ...  NO
Static polarizability (Dipole/Dipole)   ...  NO
Static polarizability (Dipole/Quad.)    ...  NO
Static polarizability (Quad./Quad.)     ...  NO
Static polarizability (Velocity)        ...  NO

Atomic electric properties:
Dipole moment                           ...  NO
Quadrupole moment                       ...  NO
Static polarizability                   ...  NO

Choice of electric origin               ... Center of mass
Position of electric origin             ...     0.005558     0.001404     0.002147

General magnetic properties:
Magnetizability                         ...  NO

EPR properties:
g-Tensor (aka g-matrix)                 ...  NO
Zero-Field splitting spin-orbit         ...  NO
Zero-field splitting spin-spin          ...  NO
Hyperfine couplings                     ...  NO (   0 nuclei)
Quadrupole couplings                    ...  NO (   0 nuclei)
Contact density                         ...  NO (   0 nuclei)

NMR properties:
Chemical shifts                         ...  NO (   0 nuclei)
Spin-rotation constants                 ...  NO (   0 nuclei)
Spin-spin couplings                     ...  NO (   0 nuclei,    0 pairs)

Choice of magnetic origin               ... GIAO
Position of magnetic origin             ...     0.000000     0.000000     0.000000

Properties with geometric perturbations:
SCF Hessian                             ...  NO
IR spectrum                             ...  NO
VCD spectrum                            ...  NO
X-ray spectroscopy properties:
SCF XES/XAS/RIXS spectra                ...  NO


-------------
DIPOLE MOMENT
-------------

Method             : SCF
Type of density    : Electron Density
Multiplicity       :   1
Irrep              :   0
Energy             :  -360.5538560986947232 Eh
Relativity type    : 
Basis              : AO
                                X                 Y                 Z
Electronic contribution:      5.388344708       0.837279063       1.193649685
Nuclear contribution   :     -7.071080342      -1.634245658      -2.382834170
                        -----------------------------------------
Total Dipole Moment    :     -1.682735634      -0.796966595      -1.189184485
                        -----------------------------------------
Magnitude (a.u.)       :      2.209279228
Magnitude (Debye)      :      5.615541523



--------------------
Rotational spectrum 
--------------------
 
Rotational constants in cm-1:             0.314209             0.047220             0.041691 
Rotational constants in MHz :          9419.752644          1415.619089          1249.873779 

Dipole components along the rotational axes: 
x,y,z [a.u.] :     1.832825     1.233558    -0.000147 
x,y,z [Debye]:     4.658672     3.135456    -0.000375 

 

Dipole moment calculation done in   0.3 sec 

Maximum memory used throughout the entire PROP-calculation: 10.5 MB

--------------------------------
SUGGESTED CITATIONS FOR THIS RUN
--------------------------------

Below you find a list of papers that are relevant to this ORCA run
We neither can nor want to force you to cite these papers, but we appreciate if you do
You receive ORCA, which is the product of decades of hard work by many enthusiastic individuals, for free
The only thing we kindly ask in return is that you cite our papers,
We deeply appreciate it, if you show your appreciation for ORCA by not just citing the generic ORCA reference.

Please note that relegating all ORCA citations to the supporting information does *not* help us.
SI sections are not indexed - citations you put there will not count into any citation statistics
[...]
Iteration    Energy (Eh)           Delta-E    RMSDP     MaxDP     MaxGrad    Time(sec)
--------------------------------------------------------------------------------------
    1    -360.5539464181874791     0.00e+00  3.07e-06  7.51e-05  1.33e-05     1.1
               *** Restarting incremental Fock matrix formation ***
    2    -360.5539464100197620     8.17e-09  5.61e-06  1.30e-04  4.66e-05     1.1
    3    -360.5539462174705250     1.93e-07  4.19e-06  9.18e-05  1.57e-04     0.8
    4    -360.5539464418770876    -2.24e-07  2.51e-06  4.88e-05  2.42e-05     0.8
                  *** Gradient check signals convergence ***

               *****************************************************
               *                     SUCCESS                       *
               *           SCF CONVERGED AFTER   4 CYCLES          *
               *****************************************************

             **** ENERGY FILE WAS UPDATED (xtb_opt.en.tmp) ****

----------------
TOTAL SCF ENERGY
----------------

Total Energy       :       -360.55394644187709 Eh           -9811.17167 eV

Components:
Nuclear Repulsion  :        274.44701533825878 Eh            7468.08296 eV
Electronic Energy  :       -635.00096178013587 Eh          -17279.25463 eV
One Electron Energy:      -1033.54546601178617 Eh          -28124.20194 eV
Two Electron Energy:        398.54450423165036 Eh           10844.94731 eV

Virial components:
Potential Energy   :       -719.64022147957826 Eh          -19582.40598 eV
Kinetic Energy     :        359.08627503770117 Eh            9771.23430 eV
Virial Ratio       :          2.00408723893449

DFT components:
N(Alpha)           :       25.999997362020 electrons
N(Beta)            :       25.999997362020 electrons
N(Total)           :       51.999994724041 electrons
E(X)               :      -45.732464367907 Eh       
E(C)               :       -1.691731180457 Eh       
E(XC)              :      -47.424195548364 Eh       

---------------
SCF CONVERGENCE
---------------

  Last Energy change         ...    2.2441e-07  Tolerance :   1.0000e-07
  Last MAX-Density change    ...    4.8806e-05  Tolerance :   1.0000e-07
  Last RMS-Density change    ...    2.5080e-06  Tolerance :   5.0000e-09
  Last DIIS Error            ...    1.0392e-04  Tolerance :   1.0000e-07
  Last Orbital Gradient      ...    2.4223e-05  Tolerance :   1.0000e-04
  Last Orbital Rotation      ...    5.4072e-05  Tolerance :   1.0000e-04


----------------
ORBITAL ENERGIES
----------------

  NO   OCC          E(Eh)            E(eV) 
   0   2.0000     -19.027555      -517.7661 
   1   2.0000     -18.965238      -516.0704 
   2   2.0000     -14.163209      -385.4005 
   3   2.0000     -10.191626      -277.3283 
   4   2.0000     -10.110583      -275.1229 
   5   2.0000     -10.107825      -275.0479 
   6   2.0000     -10.079871      -274.2872 
   7   2.0000      -1.096710       -29.8430 
   8   2.0000      -1.011835       -27.5334 
   9   2.0000      -0.880514       -23.9600 
  10   2.0000      -0.787887       -21.4395 
  11   2.0000      -0.708686       -19.2843 
  12   2.0000      -0.574710       -15.6386 
  13   2.0000      -0.510423       -13.8893 
  14   2.0000      -0.499073       -13.5805 
  15   2.0000      -0.490152       -13.3377 
  16   2.0000      -0.452631       -12.3167 
  17   2.0000      -0.445537       -12.1237 
  18   2.0000      -0.413521       -11.2525 
  19   2.0000      -0.378465       -10.2985 
  20   2.0000      -0.355631        -9.6772 
  21   2.0000      -0.333803        -9.0832 
  22   2.0000      -0.315557        -8.5868 
  23   2.0000      -0.313340        -8.5264 
  24   2.0000      -0.301492        -8.2040 
  25   2.0000      -0.272183        -7.4065 
  26   0.0000      -0.046366        -1.2617 
  27   0.0000      -0.009121        -0.2482 
  28   0.0000      -0.000135        -0.0037 
  29   0.0000       0.036504         0.9933 
  30   0.0000       0.067325         1.8320 
  31   0.0000       0.089813         2.4439 
  32   0.0000       0.132377         3.6021 
  33   0.0000       0.142875         3.8878 
  34   0.0000       0.148725         4.0470 
  35   0.0000       0.157316         4.2808 
  36   0.0000       0.161850         4.4042 
*Only the first 10 virtual orbitals were printed.
Total SCF time: 0 days 0 hours 0 min 4 sec 
Finished LeanSCF after   6.7 sec

Maximum memory used throughout the entire LEANSCF-calculation: 17.7 MB


-------------------------------------------------------------------------------
                          DFT DISPERSION CORRECTION                            
                                                                               
                                DFTD4 V3.4.0                                   
-------------------------------------------------------------------------------
-------------------------   ----------------
Dispersion correction           -0.002763895
-------------------------   ----------------

------------------   -----------------
gCP correction             0.007519579
------------------   -----------------

-------------------------   --------------------
FINAL SINGLE POINT ENERGY      -360.549190758006
-------------------------   --------------------

------------------------------------------------------------------------------
                         ORCA SCF GRADIENT CALCULATION
------------------------------------------------------------------------------

Nuc. rep. gradient        (SHARK) ... done (  0.0 sec)
HCore & Overlap gradient  (SHARK) ... done (  0.1 sec)
Split-RIJ-J gradient      (SHARK) ... done (  0.8 sec)
XC gradient                       ... done (  2.7 sec)
Dispersion correction             ... done (  0.0 sec)

-------------------
DISPERSION GRADIENT
-------------------

   1   C   :   -0.000057806    0.000003092    0.000005586
   2   O   :   -0.000041137   -0.000006415   -0.000009168
   3   C   :   -0.000018018   -0.000000160    0.000000066
   4   O   :   -0.000017425    0.000021997    0.000033933
   5   C   :    0.000037460   -0.000012732   -0.000019984
   6   C   :    0.000059061    0.000002004    0.000002186
   7   N   :    0.000076774    0.000011584    0.000016359
   8   H   :   -0.000024623   -0.000003358   -0.000004792
   9   H   :   -0.000022659    0.000003829    0.000000090
  10   H   :   -0.000022616   -0.000001793    0.000003731
  11   H   :    0.000015417   -0.000000859   -0.000019347
  12   H   :    0.000015572   -0.000017188   -0.000008660

Difference to translation invariance:
           :    0.0000000000   -0.0000000000   -0.0000000000

Difference to rotation invariance:
           :   -0.0000000000    0.0000000000   -0.0000000000

Norm of the Dispersion gradient    ...    0.0001488093
RMS gradient                       ...    0.0000248016
MAX gradient                       ...    0.0000767745
gCP correction                   ... done

------------------
CARTESIAN GRADIENT
------------------

   1   C   :    0.000138782   -0.000047071   -0.000058706
   2   O   :   -0.000116046    0.000008046    0.000102783
   3   C   :    0.000081940    0.000124471   -0.000100883
   4   O   :   -0.000046288   -0.000022077    0.000032883
   5   C   :    0.000012696    0.000148174   -0.000086316
   6   C   :   -0.000332091   -0.000494818   -0.000087063
   7   N   :    0.000304482    0.000287011    0.000141433
   8   H   :   -0.000003869   -0.000001578   -0.000006558
   9   H   :   -0.000002694    0.000011181    0.000013124
  10   H   :   -0.000023757   -0.000002828    0.000017010
  11   H   :   -0.000071721   -0.000027215    0.000008360
  12   H   :    0.000058566    0.000016702    0.000023932

Difference to translation invariance:
           :   -0.0000000000   -0.0000000000    0.0000000000

Difference to rotation invariance:
           :   -0.0000384134    0.0000943872   -0.0000175981

Norm of the Cartesian gradient     ...    0.0008270074
RMS gradient                       ...    0.0001378346
MAX gradient                       ...    0.0004948179

-------
TIMINGS
-------

Total SCF gradient time     ....        3.627 sec

Densities                   ....       0.000 sec  (  0.0%)
One electron gradient       ....       0.112 sec  (  3.1%)
RI-J Coulomb gradient       ....       0.769 sec  ( 21.2%)
XC gradient                 ....       2.709 sec  ( 74.7%)

Maximum memory used throughout the entire SCFGRAD-calculation: 32.2 MB

------------------------------------------------------------------------------
                              ORCA PROPERTY CALCULATIONS
------------------------------------------------------------------------------

GBWName                                 ... xtb_opt.gbw
Number of atoms                         ...     12
Number of basis functions               ...    173
Max core memory                         ...   1024 MB

Electric properties:
Dipole moment                           ... YES
Quadrupole moment                       ...  NO
Static polarizability (Dipole/Dipole)   ...  NO
Static polarizability (Dipole/Quad.)    ...  NO
Static polarizability (Quad./Quad.)     ...  NO
Static polarizability (Velocity)        ...  NO

Atomic electric properties:
Dipole moment                           ...  NO
Quadrupole moment                       ...  NO
Static polarizability                   ...  NO

Choice of electric origin               ... Center of mass
Position of electric origin             ...     0.005543     0.000260     0.001199

General magnetic properties:
Magnetizability                         ...  NO

EPR properties:
g-Tensor (aka g-matrix)                 ...  NO
Zero-Field splitting spin-orbit         ...  NO
Zero-field splitting spin-spin          ...  NO
Hyperfine couplings                     ...  NO (   0 nuclei)
Quadrupole couplings                    ...  NO (   0 nuclei)
Contact density                         ...  NO (   0 nuclei)

NMR properties:
Chemical shifts                         ...  NO (   0 nuclei)
Spin-rotation constants                 ...  NO (   0 nuclei)
Spin-spin couplings                     ...  NO (   0 nuclei,    0 pairs)

Choice of magnetic origin               ... GIAO
Position of magnetic origin             ...     0.000000     0.000000     0.000000

Properties with geometric perturbations:
SCF Hessian                             ...  NO
IR spectrum                             ...  NO
VCD spectrum                            ...  NO
X-ray spectroscopy properties:
SCF XES/XAS/RIXS spectra                ...  NO


-------------
DIPOLE MOMENT
-------------

Method             : SCF
Type of density    : Electron Density
Multiplicity       :   1
Irrep              :   0
Energy             :  -360.5539464418770876 Eh
Relativity type    : 
Basis              : AO
                                X                 Y                 Z
Electronic contribution:      5.376093834       0.839515274       1.202290706
Nuclear contribution   :     -7.070586472      -1.628762533      -2.379558822
                        -----------------------------------------
Total Dipole Moment    :     -1.694492638      -0.789247259      -1.177268116
                        -----------------------------------------
Magnitude (a.u.)       :      2.209112209
Magnitude (Debye)      :      5.615116995



--------------------
Rotational spectrum 
--------------------
 
Rotational constants in cm-1:             0.313731             0.047046             0.041547 
Rotational constants in MHz :          9405.426136          1410.398644          1245.558145 

Dipole components along the rotational axes: 
x,y,z [a.u.] :     1.843404     1.217390     0.000693 
x,y,z [Debye]:     4.685560     3.094359     0.001762 

 

Dipole moment calculation done in   0.4 sec 

Maximum memory used throughout the entire PROP-calculation: 10.5 MB

--------------------------------
SUGGESTED CITATIONS FOR THIS RUN
--------------------------------

Below you find a list of papers that are relevant to this ORCA run
We neither can nor want to force you to cite these papers, but we appreciate if you do
You receive ORCA, which is the product of decades of hard work by many enthusiastic individuals, for free
The only thing we kindly ask in return is that you cite our papers,
We deeply appreciate it, if you show your appreciation for ORCA by not just citing the generic ORCA reference.

Please note that relegating all ORCA citations to the supporting information does *not* help us.
SI sections are not indexed - citations you put there will not count into any citation statistics
But we need these citations in order to attract the funding resources that allow us to do what we are doing

Therefore, if you are a happy ORCA user, please consider citing a few of the papers listed below in the main body of your paper

In addition to the list printed below, the program has created the file xtb_opt.bibtex that contains the list in bibtex format
You can import this file easily into all common literature databanks and citation aid programs


List of essential papers. We consider these as the minimum necessary citations

  1. Neese,F.
     Software update: the ORCA program system, version 5.0
     WIRES Comput. Molec. Sci., 2022 12(1)e1606
     doi.org/10.1002/wcms.1606
  2. Grimme,S.; Hansen,A.; Ehlert,S.; Mewes,J.
     r2SCAN-3c: A 'Swiss army knife' composite electronic-structure method
     J. Chem. Phys., 2021 154 064103
     doi.org/10.1063/5.0040021

List of papers to cite with high priority. The work reported in these papers was absolutely
necessary for this run to complete.
Our perspective: the developers of density functionals and basis sets usually get cited in chemistry papers
Good! But without the algorithms to do something with them, the functionals or basis sets would not do anything.
Hence, in our opinion, the algorithm design and method developments papers are equally worthy of getting cited

  1. Neese,F.
     An improvement of the resolution of the identity approximation for the formation of the Coulomb matrix
     J. Comp. Chem., 2003 24(14)1740-1747
     doi.org/10.1002/jcc.10318
  2. Neese,F.
     The SHARK Integral Generation and Digestion System
     J. Comp. Chem., 2022  1-16
     doi.org/10.1002/jcc.26942
  3. Lehtola,S.; Steigemann,C.; Oliveira,M.; Marques,M.
     Recent developments in Libxc - A comprehensive library of functionals for density functional theory
     Software X, 2018 7 
     doi.org/10.1016/j.softx.2017.11.002
  4. Caldeweyher,E.; Bannwarth,C.; Grimme,S.
     Extension of the D3 dispersion coefficient model
     J. Chem. Phys., 2017 147 034112
     doi.org/10.1063/1.4993215
  5. Caldeweyher,E.; Ehlert,S.; Hansen,A.; Neugebauer,H.; Spicher,S.; Bannwarth,C.; Grimme,S.
     A generally applicable atomic-charge dependent London dispersion correction
     J. Chem. Phys., 2019 150 154122
     doi.org/10.1063/1.5090222
  6. Caldeweyher,E.; Mewes,J.; Ehlert,S.; Grimme,S.
     Extension and evaluation of the D4 London-dispersion model for periodic systems
     Phys. Chem. Chem. Phys., 2020 22(16)8499-8512
     doi.org/10.1039/D0CP00502A
  7. Wittmann,L.; Gordiy,I.; Friede,M.; Helmich-Paris,B.; Grimme,S.; Hansen,A.; Bursch,M.
     Extension of the D3 and D4 London Dispersion Corrections to the full Actinides Series
     Phys. Chem. Chem. Phys., 2024 26(32)21379-21394
     doi.org/https://doi.org/10.1039/D4CP01514B 

List of suggested additional citations. These are papers that are important in the 'surrounding' of 
of this run, or papers that preceded the highly important papers. If you like your results we are grateful for a citation.

  1. Neese,F.
     The ORCA program system
     WIRES Comput. Molec. Sci., 2012 2(1)73-78
     doi.org/10.1002/wcms.81
  2. Neese,F.
     Software update: the ORCA program system, version 4.0
     WIRES Comput. Molec. Sci., 2018 8(1)1-6
     doi.org/10.1002/wcms.1327
  3. Neese,F.; Wennmohs,F.; Becker,U.; Riplinger,C.
     The ORCA quantum chemistry program package
     J. Chem. Phys., 2020 152 Art. No. L224108
     doi.org/10.1063/5.0004608

List of optional additional citations

  1. Neese,F.
     Approximate second-order SCF convergence for spin unrestricted wavefunctions
     Chem. Phys. Lett., 2000 325(1-3)93-98
     doi.org/10.1016/s0009-2614(00)00662-x

Timings for individual modules:

Sum of individual times          ...       12.035 sec (=   0.201 min)
Startup calculation              ...        0.557 sec (=   0.009 min)   4.6 %
SCF iterations                   ...        6.828 sec (=   0.114 min)  56.7 %
Property calculations            ...        0.424 sec (=   0.007 min)   3.5 %
SCF Gradient evaluation          ...        4.226 sec (=   0.070 min)  35.1 %
                             ****ORCA TERMINATED NORMALLY****
TOTAL RUN TIME: 0 days 0 hours 0 minutes 14 seconds 625 msec
  ------------------------------------------------------------------------
          * successful ORCA run, taking over control again...

         :::::::::::::::::::::::::::::::::::::::::::::::::::::
         ::                  ORCA SUMMARY                   ::
         :::::::::::::::::::::::::::::::::::::::::::::::::::::
         :: total energy            -360.549190758006 Eh    ::
         :: gradient norm              0.000827007429 Eh/a0 ::
         :: HOMO-LUMO gap              0.000000000000 eV    ::
         :::::::::::::::::::::::::::::::::::::::::::::::::::::

           -------------------------------------------------
          |                Property Printout                |
           -------------------------------------------------
           -------------------------------------------------
          |                Geometry Summary                 |
           -------------------------------------------------

      molecular mass/u    :       99.0881604
   center of mass at/Å    :        0.0029213       0.0001397       0.0006381
  moments of inertia/u·Å² :        0.5373277E+02   0.3583169E+03   0.4057388E+03
rotational constants/cm⁻¹ :        0.3137310E+00   0.4704672E-01   0.4154799E-01

 * 8 selected distances

     #   Z          #   Z                                           value/Å
     2   8 O        3   6 C                                       1.3468852 (max)
     3   6 C        4   8 O                                       1.2013675
     6   6 C        7   7 N                                       1.1537466
     1   6 C        8   1 H                                       1.0891446 (min)
     1   6 C        9   1 H                                       1.0924768
     1   6 C       10   1 H                                       1.0925152
     5   6 C       11   1 H                                       1.0959099
     5   6 C       12   1 H                                       1.0959724

 * 3 distinct bonds (by element types)

   Z      Z             #   av. dist./Å        max./Å        min./Å
   1 H    6 C           5     1.0932038     1.0959724     1.0891446
   6 C    7 N           1     1.1537466     1.1537466     1.1537466
   6 C    8 O           2     1.2741264     1.3468852     1.2013675


optimized geometry written to: xtbopt.coord


           -------------------------------------------------
          | TOTAL ENERGY             -360.549190758006 Eh   |
          | GRADIENT NORM               0.000827007429 Eh/α |
           -------------------------------------------------

------------------------------------------------------------------------
 * finished run on 2025/04/16 at 09:56:34.459     
------------------------------------------------------------------------
 total:
 * wall-time:     0 d,  0 h,  1 min, 56.121 sec
 *  cpu-time:     0 d,  0 h,  0 min,  2.784 sec
 * ratio c/w:     0.024 speedup
 SCF:
 * wall-time:     0 d,  0 h,  0 min,  8.652 sec
 *  cpu-time:     0 d,  0 h,  0 min,  0.770 sec
 * ratio c/w:     0.089 speedup
 ANC optimizer:
 * wall-time:     0 d,  0 h,  1 min, 47.344 sec
 *  cpu-time:     0 d,  0 h,  0 min,  1.458 sec
 * ratio c/w:     0.014 speedup

