
                                 *****************
                                 * O   R   C   A *
                                 *****************

                                            #,                                       
                                            ###                                      
                                            ####                                     
                                            #####                                    
                                            ######                                   
                                           ########,                                 
                                     ,,################,,,,,                         
                               ,,#################################,,                 
                          ,,##########################################,,             
                       ,#########################################, ''#####,          
                    ,#############################################,,   '####,        
                  ,##################################################,,,,####,       
                ,###########''''           ''''###############################       
              ,#####''   ,,,,##########,,,,          '''####'''          '####       
            ,##' ,,,,###########################,,,                        '##       
           ' ,,###''''                  '''############,,,                           
         ,,##''                                '''############,,,,        ,,,,,,###''
      ,#''                                            '''#######################'''  
     '                                                          ''''####''''         
             ,#######,   #######,   ,#######,      ##                                
            ,#'     '#,  ##    ##  ,#'     '#,    #''#        ,####,   ,####,        
            ##       ##  ##   ,#'  ##            #'  '#       #'       #'  '#        
            ##       ##  #######   ##           ,######,      #####,   #    #        
            '#,     ,#'  ##    ##  '#,     ,#' ,#      #,     #,   #   #,  ,#        
             '#######'   ##     ##  '#######'  #'      '#     '####' # '####'        



                #########################################################
                #                        -***-                          #
                #          Department of theory and spectroscopy        #
                #                                                       #
                #                      Frank Neese                      #
                #                                                       #
                #     Directorship, Architecture, Infrastructure        #
                #                    SHARK, DRIVERS                     #
                #        Core code/Algorithms in most modules           #
                #                                                       #
                #        Max Planck Institute fuer Kohlenforschung      #
                #                Kaiser Wilhelm Platz 1                 #
                #                 D-45470 Muelheim/Ruhr                 #
                #                      Germany                          #
                #                                                       #
                #                  All rights reserved                  #
                #                        -***-                          #
                #########################################################


                         Program Version 6.0.0  -   RELEASE  -


 With contributions from (in alphabetic order):
   Daniel Aravena         : Magnetic Suceptibility
   Michael Atanasov       : Ab Initio Ligand Field Theory (pilot matlab implementation)
   Alexander A. Auer      : GIAO ZORA, VPT2 properties, NMR spectrum
   Ute Becker             : All parallelization in ORCA, NUMFREQ, NUMCALC
   Giovanni Bistoni       : ED, misc. LED, open-shell LED, HFLD
   Martin Brehm           : Molecular dynamics
   Dmytro Bykov           : pre 5.0 version of the SCF Hessian
   Marcos Casanova-Páez   : Triplet and SCS-CIS(D). UHF-(DLPNO)-IP/EA/STEOM-CCSD. UHF-CVS-IP/STEOM-CCSD
   Vijay G. Chilkuri      : MRCI spin determinant printing, contributions to CSF-ICE
   Pauline Colinet        : FMM embedding
   Dipayan Datta          : RHF DLPNO-CCSD density
   Achintya Kumar Dutta   : EOM-CC, STEOM-CC
   Nicolas Foglia         : Exact transition moments, OPA infrastructure, MCD improvements
   Dmitry Ganyushin       : Spin-Orbit,Spin-Spin,Magnetic field MRCI
   Miquel Garcia          : C-PCM and meta-GGA Hessian, CCSD/C-PCM, Gaussian charge scheme
   Tiago L. C. Gouveia    : GS-ROHF, GS-ROCIS
   Yang Guo               : DLPNO-NEVPT2, F12-NEVPT2, CIM, IAO-localization
   Andreas Hansen         : Spin unrestricted coupled pair/coupled cluster methods
   Ingolf Harden          : AUTO-CI MPn and infrastructure 
   Benjamin Helmich-Paris : MC-RPA, TRAH-(SCF,CASSCF), AVAS, COSX integrals, SCF dyn. polar.
   Lee Huntington         : MR-EOM, pCC
   Robert Izsak           : Overlap fitted RIJCOSX, COSX-SCS-MP3, EOM
   Riya Kayal             : Wick's Theorem for AUTO-CI, AUTO-CI UHF-CCSDT
   Emily Kempfer          : AUTO-CI, RHF CISDT and CCSDT
   Christian Kollmar      : KDIIS, OOCD, Brueckner-CCSD(T), CCSD density, CASPT2, CASPT2-K, improved NEVPT2
   Axel Koslowski         : Symmetry handling
   Simone Kossmann        : Meta GGA functionals, TD-DFT gradient, OOMP2, (MP2 Hessian; deprecated post 5.0)
   Lucas Lang             : DCDCAS
   Marvin Lechner         : AUTO-CI (C++ implementation), FIC-MRCC
   Spencer Leger          : CASSCF response
   Dagmar Lenk            : GEPOL surface, SMD, ORCA-2-JSON
   Dimitrios Liakos       : Extrapolation schemes; Compound Job, initial MDCI parallelization
   Dimitrios Manganas     : Further ROCIS development; embedding schemes. LFT, Crystal Embedding
   Dimitrios Pantazis     : SARC Basis sets
   Anastasios Papadopoulos: AUTO-CI, single reference methods and gradients
   Taras Petrenko         : pre 6.0 DFT Hessian and TD-DFT gradient, (ASA, deprecated), ECA, 1-Electron XAS/XES, NRVS
   Peter Pinski           : DLPNO-MP2, DLPNO-MP2 Gradient
   Christoph Reimann      : Effective Core Potentials
   Marius Retegan         : Local ZFS, SOC
   Christoph Riplinger    : Optimizer, TS searches, QM/MM, DLPNO-CCSD(T), (RO)-DLPNO pert. Triples
   Michael Roemelt        : Original ROCIS implementation
   Masaaki Saitow         : Open-shell DLPNO-CCSD energy and density
   Barbara Sandhoefer     : DKH picture change effects
   Kantharuban Sivalingam : CASSCF convergence/infrastructure, NEVPT2 and variants, FIC-MRCI
   Bernardo de Souza      : ESD, SOC TD-DFT
   Georgi Stoychev        : AutoAux, RI-MP2 NMR, DLPNO-MP2 response, X2C
   Van Anh Tran           : RI-MP2 g-tensors
   Willem Van den Heuvel  : Paramagnetic NMR
   Zikuan Wang            : NOTCH, Electric field optimization 
   Frank Wennmohs         : Technical directorship and infrastructure
   Hang Xu                : AUTO-CI-Response properties 


 We gratefully acknowledge several colleagues who have allowed us to
 interface, adapt or use parts of their codes:
   Stefan Grimme, W. Hujo, H. Kruse, P. Pracht,  : VdW corrections, initial TS optimization,
                  C. Bannwarth, S. Ehlert,         DFT functionals, gCP, sTDA/sTD-DF
                  L. Wittmann, M. Mueller
   Ed Valeev, F. Pavosevic, A. Kumar             : LibInt (2-el integral package), F12 methods
   Garnet Chan, S. Sharma, J. Yang, R. Olivares  : DMRG
   Ulf Ekstrom                                   : XCFun DFT Library
   Mihaly Kallay                                 : mrcc  (arbitrary order and MRCC methods)
   Frank Weinhold                                : gennbo (NPA and NBO analysis)
   Simon Mueller                                 : openCOSMO-RS
   Christopher J. Cramer and Donald G. Truhlar   : smd solvation model
   Lars Goerigk                                  : TD-DFT with DH, B97 family of functionals
   V. Asgeirsson, H. Jonsson                     : NEB implementation
   FAccTs GmbH                                   : IRC, NEB, NEB-TS, DLPNO-Multilevel, CI-OPT
                                                   MM, QMMM, 2- and 3-layer-ONIOM, Crystal-QMMM,
                                                   LR-CPCM, SF, NACMEs, symmetry and pop. for TD-DFT,
                                                   nearIR, NL-DFT gradient (VV10), updates on ESD,
                                                   ML-optimized integration grids, MBIS, APM,
                                                   GOAT, DOCKER, SOLVATOR, interface openCOSMO-RS
   S Lehtola, MJT Oliveira, MAL Marques          : LibXC Library
   Liviu Ungur et al                             : ANISO software


 Your calculation uses the libint2 library for the computation of 2-el integrals
 For citations please refer to: http://libint.valeyev.net

 Your ORCA version has been built with support for libXC version: 6.2.2
 For citations please refer to: https://libxc.gitlab.io

 This ORCA versions uses:
   CBLAS   interface :  Fast vector & matrix operations
   LAPACKE interface :  Fast linear algebra routines
   SCALAPACK package :  Parallel linear algebra routines
   Shared memory     :  Shared parallel matrices
   BLAS/LAPACK       :  OpenBLAS 0.3.27  USE64BITINT DYNAMIC_ARCH NO_AFFINITY SkylakeX SINGLE_THREADED
        Core in use  :  SkylakeX
   Copyright (c) 2011-2014, The OpenBLAS Project




***************************************
The coordinates will be read from file: vacuum_censo.xyz
***************************************


Your calculation utilizes the geometrical counterpoise correction gCP
Please cite in your paper:
H.Kruse, S. Grimme J.Chem.Phys., 136, (2012), 154101 
   

Your calculation utilizes the atom-pairwise dispersion correction
based on EEQ partial charges (D4)


================================================================================

----- Orbital basis set information -----
Your calculation utilizes the basis: def2-TZVP
   F. Weigend and R. Ahlrichs, Phys. Chem. Chem. Phys. 7, 3297 (2005).

----- AuxJ basis set information -----
Your calculation utilizes the basis: def2-mTZVPP/J
   Stefan Grimme, Andreas Hansen, Sebastian Ehlert, and Jan-Michael Mewes 
   J. Chem. Phys. 154, 000000 (2021). DOI: 10.1063/5.0040021

================================================================================
                                        WARNINGS
                       Please study these warnings very carefully!
================================================================================

Using LibXC functional ID 497 : Re-regularized SCAN exchange by Furness et al
[ 1]  J. W. Furness, A. D. Kaplan, J. Ning, J. P. Perdew, and J. Sun.,  J. Phys. Chem. Lett. 11, 8208-8215 (2020)
[ 2]  J. W. Furness, A. D. Kaplan, J. Ning, J. P. Perdew, and J. Sun.,  J. Phys. Chem. Lett. 11, 9248-9248 (2020)
Using LibXC functional ID 498 : Re-regularized SCAN correlation by Furness et al
[ 1]  J. W. Furness, A. D. Kaplan, J. Ning, J. P. Perdew, and J. Sun.,  J. Phys. Chem. Lett. 11, 8208-8215 (2020)
[ 2]  J. W. Furness, A. D. Kaplan, J. Ning, J. P. Perdew, and J. Sun.,  J. Phys. Chem. Lett. 11, 9248-9248 (2020)
Using LibXC functional ID 497 : Re-regularized SCAN exchange by Furness et al
[ 1]  J. W. Furness, A. D. Kaplan, J. Ning, J. P. Perdew, and J. Sun.,  J. Phys. Chem. Lett. 11, 8208-8215 (2020)
[ 2]  J. W. Furness, A. D. Kaplan, J. Ning, J. P. Perdew, and J. Sun.,  J. Phys. Chem. Lett. 11, 9248-9248 (2020)
Using LibXC functional ID 498 : Re-regularized SCAN correlation by Furness et al
[ 1]  J. W. Furness, A. D. Kaplan, J. Ning, J. P. Perdew, and J. Sun.,  J. Phys. Chem. Lett. 11, 8208-8215 (2020)
[ 2]  J. W. Furness, A. D. Kaplan, J. Ning, J. P. Perdew, and J. Sun.,  J. Phys. Chem. Lett. 11, 9248-9248 (2020)

================================================================================
                                       INPUT FILE
================================================================================
NAME = vacuum_censo.inp
|  1> ! r2SCAN-3c DEF2-TZVP FREQ
|  2> * xyzfile 0 1 vacuum_censo.xyz
|  3> 
|  4>                          ****END OF INPUT****
================================================================================

                       ****************************
                       * Single Point Calculation *
                       ****************************

---------------------------------
CARTESIAN COORDINATES (ANGSTROEM)
---------------------------------
  C     -4.179376   -0.000185   -0.015405
  C     -2.675830    0.000100    0.010585
  C     -1.957322   -1.197483    0.009260
  C     -0.566145   -1.209880    0.001544
  C      0.114692    0.000057   -0.002835
  C     -0.566081    1.209957    0.001484
  C     -1.957331    1.197603    0.009185
  Br     2.029130   -0.000016   -0.006998
  H     -4.585392    0.889764    0.472583
  H     -4.550165   -0.008653   -1.047101
  H     -4.585235   -0.882319    0.486809
  H     -2.491786   -2.143452    0.015314
  H     -0.021173   -2.146493    0.003205
  H     -0.021100    2.146564    0.003110
  H     -2.491736    2.143592    0.015186

----------------------------
CARTESIAN COORDINATES (A.U.)
----------------------------
  NO LB      ZA    FRAG     MASS         X           Y           Z
   0 C     6.0000    0    12.011   -7.897876   -0.000349   -0.029112
   1 C     6.0000    0    12.011   -5.056586    0.000189    0.020003
   2 C     6.0000    0    12.011   -3.698803   -2.262915    0.017499
   3 C     6.0000    0    12.011   -1.069859   -2.286341    0.002917
   4 C     6.0000    0    12.011    0.216736    0.000108   -0.005357
   5 C     6.0000    0    12.011   -1.069739    2.286488    0.002805
   6 C     6.0000    0    12.011   -3.698820    2.263141    0.017356
   7 Br   35.0000    0    79.900    3.834500   -0.000031   -0.013224
   8 H     1.0000    0     1.008   -8.665135    1.681410    0.893052
   9 H     1.0000    0     1.008   -8.598566   -0.016353   -1.978733
  10 H     1.0000    0     1.008   -8.664839   -1.667341    0.919936
  11 H     1.0000    0     1.008   -4.708793   -4.050537    0.028939
  12 H     1.0000    0     1.008   -0.040012   -4.056283    0.006057
  13 H     1.0000    0     1.008   -0.039874    4.056418    0.005878
  14 H     1.0000    0     1.008   -4.708699    4.050801    0.028698

--------------------------------
INTERNAL COORDINATES (ANGSTROEM)
--------------------------------
 C      0   0   0     0.000000000000     0.00000000     0.00000000
 C      1   0   0     1.503770767563     0.00000000     0.00000000
 C      2   1   0     1.396588831184   120.94518620     0.00000000
 C      3   2   1     1.391253798554   121.47262995   178.47338597
 C      4   3   2     1.388346129999   118.85660775     0.09955021
 C      5   4   3     1.388283029796   121.26724006     0.05501712
 C      6   5   4     1.391326096205   118.85681256   359.94419399
 Br     5   4   3     1.914442652458   119.36467684   179.77804581
 H      1   2   3     1.093155685008   111.31474629   151.57945952
 H      1   2   3     1.096335479244   110.75810621   271.12663822
 H      1   2   3     1.093206825156   111.30993371    30.65242467
 H      3   2   1     1.086529358840   119.57079416   358.41476776
 H      4   3   2     1.083623704633   120.70255604   179.83988615
 H      6   5   4     1.083623071126   120.44126059   179.68537629
 H      7   6   5     1.086517240194   118.95507744   179.84253098

---------------------------
INTERNAL COORDINATES (A.U.)
---------------------------
 C      0   0   0     0.000000000000     0.00000000     0.00000000
 C      1   0   0     2.841714918890     0.00000000     0.00000000
 C      2   1   0     2.639170412631   120.94518620     0.00000000
 C      3   2   1     2.629088662045   121.47262995   178.47338597
 C      4   3   2     2.623593964787   118.85660775     0.09955021
 C      5   4   3     2.623474722685   121.26724006     0.05501712
 C      6   5   4     2.629225284805   118.85681256   359.94419399
 Br     5   4   3     3.617772312244   119.36467684   179.77804581
 H      1   2   3     2.065764866404   111.31474629   151.57945952
 H      1   2   3     2.071773806672   110.75810621   271.12663822
 H      1   2   3     2.065861507278   111.30993371    30.65242467
 H      3   2   1     2.053242924674   119.57079416   358.41476776
 H      4   3   2     2.047752033982   120.70255604   179.83988615
 H      6   5   4     2.047750836826   120.44126059   179.68537629
 H      7   6   5     2.053220023751   118.95507744   179.84253098

---------------------
BASIS SET INFORMATION
---------------------
There are 3 groups of distinct atoms

 Group   1 Type C   : 11s6p2d1f contracted to 5s3p2d1f pattern {62111/411/11/1}
 Group   2 Type Br  : 17s13p8d1f contracted to 6s5p4d1f pattern {842111/64111/5111/1}
 Group   3 Type H   : 5s1p contracted to 3s1p pattern {311/1}

Atom   0C    basis set group =>   1
Atom   1C    basis set group =>   1
Atom   2C    basis set group =>   1
Atom   3C    basis set group =>   1
Atom   4C    basis set group =>   1
Atom   5C    basis set group =>   1
Atom   6C    basis set group =>   1
Atom   7Br   basis set group =>   2
Atom   8H    basis set group =>   3
Atom   9H    basis set group =>   3
Atom  10H    basis set group =>   3
Atom  11H    basis set group =>   3
Atom  12H    basis set group =>   3
Atom  13H    basis set group =>   3
Atom  14H    basis set group =>   3
---------------------------------
AUXILIARY/J BASIS SET INFORMATION
---------------------------------
There are 3 groups of distinct atoms

 Group   1 Type C   : 8s3p3d contracted to 6s3p3d pattern {311111/111/111}
 Group   2 Type Br  : 19s5p5d3f1g contracted to 8s4p3d2f1g pattern {121111111/2111/311/21/1}
 Group   3 Type H   : 5s2p1d contracted to 3s1p1d pattern {311/2/1}

Atom   0C    basis set group =>   1
Atom   1C    basis set group =>   1
Atom   2C    basis set group =>   1
Atom   3C    basis set group =>   1
Atom   4C    basis set group =>   1
Atom   5C    basis set group =>   1
Atom   6C    basis set group =>   1
Atom   7Br   basis set group =>   2
Atom   8H    basis set group =>   3
Atom   9H    basis set group =>   3
Atom  10H    basis set group =>   3
Atom  11H    basis set group =>   3
Atom  12H    basis set group =>   3
Atom  13H    basis set group =>   3
Atom  14H    basis set group =>   3
------------------------------------------------------------------------------
                             ORCA STARTUP CALCULATIONS
                           -- RI-GTO INTEGRALS CHOSEN --
------------------------------------------------------------------------------
------------------------------------------------------------------------------
                   ___                                                        
                  /   \      - P O W E R E D   B Y -                         
                 /     \                                                     
                 |  |  |   _    _      __       _____    __    __             
                 |  |  |  | |  | |    /  \     |  _  \  |  |  /  |          
                  \  \/   | |  | |   /    \    | | | |  |  | /  /          
                 / \  \   | |__| |  /  /\  \   | |_| |  |  |/  /          
                |  |  |   |  __  | /  /__\  \  |    /   |      \           
                |  |  |   | |  | | |   __   |  |    \   |  |\   \          
                \     /   | |  | | |  |  |  |  | |\  \  |  | \   \       
                 \___/    |_|  |_| |__|  |__|  |_| \__\ |__|  \__/        
                                                                              
                      - O R C A' S   B I G   F R I E N D -                    
                                      &                                       
                       - I N T E G R A L  F E E D E R -                       
                                                                              
 v1 FN, 2020, v2 2021, v3 2022-2024                                           
------------------------------------------------------------------------------


----------------------
SHARK INTEGRAL PACKAGE
----------------------

Number of atoms                             ...     15
Number of basis functions                   ...    307
Number of shells                            ...    121
Maximum angular momentum                    ...      3
Integral batch strategy                     ... SHARK/LIBINT Hybrid
RI-J (if used) integral strategy            ... SPLIT-RIJ (Revised 2003 algorithm where possible)
Printlevel                                  ...      1
Contraction scheme used                     ... SEGMENTED contraction
Prescreening option                         ... SCHWARTZ
   Thresh                                   ... 1.000e-10
   Tcut                                     ... 1.000e-11
   Tpresel                                  ... 1.000e-11 
Coulomb Range Separation                    ... NOT USED
Exchange Range Separation                   ... NOT USED
Multipole approximations                    ... NOT USED
Finite Nucleus Model                        ... NOT USED
CABS basis                                  ... NOT available
Auxiliary Coulomb fitting basis             ... AVAILABLE
   # of basis functions in Aux-J            ...    345
   # of shells in Aux-J                     ...    137
   Maximum angular momentum in Aux-J        ...      4
Auxiliary J/K fitting basis                 ... NOT available
Auxiliary Correlation fitting basis         ... NOT available
Auxiliary 'external' fitting basis          ... NOT available

Checking pre-screening integrals            ... done (  0.0 sec) Dimension = 121
Check shell pair data                       ... done (  0.0 sec)
Shell pair information
Shell pair cut-off parameter TPreSel        ...   1.0e-11
Total number of shell pairs                 ...      7381
Shell pairs after pre-screening             ...      6574
Total number of primitive shell pairs       ...     24772
Primitive shell pairs kept                  ...     15963
          la=0 lb=0:   1658 shell pairs
          la=1 lb=0:   1838 shell pairs
          la=1 lb=1:    516 shell pairs
          la=2 lb=0:    994 shell pairs
          la=2 lb=1:    546 shell pairs
          la=2 lb=2:    159 shell pairs
          la=3 lb=0:    443 shell pairs
          la=3 lb=1:    249 shell pairs
          la=3 lb=2:    136 shell pairs
          la=3 lb=3:     35 shell pairs

Calculating one electron integrals          ... done (  0.0 sec)
Calculating RI/J V-Matrix + Cholesky decomp.... done (  0.0 sec)
Calculating Nuclear repulsion               ... done (  0.0 sec) ENN=    518.327226178163 Eh

Diagonalization of the overlap matrix:
Smallest eigenvalue                        ... 7.796e-06
Time for diagonalization                   ...    0.010 sec
Threshold for overlap eigenvalues          ... 1.000e-07
Number of eigenvalues below threshold      ... 0
Time for construction of square roots      ...    0.018 sec
Total time needed                          ...    0.037 sec

-------------------
DFT GRID GENERATION
-------------------

General Integration Accuracy     IntAcc      ... 4.388
Radial Grid Type                 RadialGrid  ... OptM3 with GC (2021)
Angular Grid (max. ang.)         AngularGrid ... 4 (Lebedev-302)
Angular grid pruning method      GridPruning ... 4 (adaptive)
Weight generation scheme         WeightScheme... mBecke (2022)
Basis function cutoff            BFCut       ... 1.0000e-10
Integration weight cutoff        WCut        ... 1.0000e-14
Partially contracted basis set               ... off
Rotationally invariant grid construction     ... off
Angular grids for H and He will be reduced by one unit
Core-polarized basis detected: some atoms will have their core
                               angular grid increased.

Total number of grid points                  ...    75880
Total number of batches                      ...     1192
Average number of points per batch           ...       63
Average number of grid points per atom       ...     5059
Initializing property integral containers    ... done (  0.0 sec)

SHARK setup successfully completed in   1.2 seconds

Maximum memory used throughout the entire STARTUP-calculation: 50.0 MB
-------------------------------------------------------------------------------
                                 ORCA GUESS
                   Start orbitals & Density for SCF / CASSCF
-------------------------------------------------------------------------------

------------
SCF SETTINGS
------------
Hamiltonian:
 Density Functional     Method          .... DFT(GTOs)
  Functional kind                       .... Exchange
  Functional name                       .... Re-regularized SCAN exchange by Furness et al
  Functional family                     .... MGGA
  Functional refs                              
    [ 0] J. W. Furness, A. D. Kaplan, J. Ning, J. P. Perdew, and J. Sun.,  J. Phys. Chem. Lett. 11, 8208-8215 (2020), doi: 10.1021/acs.jpclett.0c02405
    [ 1] J. W. Furness, A. D. Kaplan, J. Ning, J. P. Perdew, and J. Sun.,  J. Phys. Chem. Lett. 11, 9248-9248 (2020), doi: 10.1021/acs.jpclett.0c03077
  Functional external parameters        .... 6
    Parameter  0 _c1        =  6.670000e-01 : c1 parameter        
    Parameter  1 _c2        =  8.000000e-01 : c2 parameter        
    Parameter  2 _d         =  1.240000e+00 : d parameter         
    Parameter  3 _k1        =  6.500000e-02 : k1 parameter        
    Parameter  4 _eta       =  1.000000e-03 : eta parameter       
    Parameter  5 _dp2       =  3.610000e-01 : dp2 parameter       
  Functional kind                       .... Correlation
  Functional name                       .... Re-regularized SCAN correlation by Furness et al
  Functional family                     .... MGGA
  Functional refs                              
    [ 0] J. W. Furness, A. D. Kaplan, J. Ning, J. P. Perdew, and J. Sun.,  J. Phys. Chem. Lett. 11, 8208-8215 (2020), doi: 10.1021/acs.jpclett.0c02405
    [ 1] J. W. Furness, A. D. Kaplan, J. Ning, J. P. Perdew, and J. Sun.,  J. Phys. Chem. Lett. 11, 9248-9248 (2020), doi: 10.1021/acs.jpclett.0c03077
  Functional external parameters        .... 1
    Parameter  0 _eta       =  1.000000e-03 : Regularization parameter
 Gradients option       PostSCFGGA      .... off
 RI-approximation to the Coulomb term is turned on
   Number of AuxJ basis functions       .... 345


General Settings:
 Integral files         IntName         .... vacuum_censo
 Hartree-Fock type      HFTyp           .... RHF
 Total Charge           Charge          ....    0
 Multiplicity           Mult            ....    1
 Number of Electrons    NEL             ....   84
 Basis Dimension        Dim             ....  307
 Nuclear Repulsion      ENuc            ....    518.3272261782 Eh

Convergence Acceleration:
 AO-DIIS                CNVDIIS         .... on
   Start iteration      DIISMaxIt       ....    12
   Startup error        DIISStart       ....  0.200000
   # of expansion vecs  DIISMaxEq       ....     5
   Bias factor          DIISBfac        ....   1.050
   Max. coefficient     DIISMaxC        ....  10.000
 MO-DIIS                CNVKDIIS        .... off
 Trust-Rad. Augm. Hess. CNVTRAH         .... auto
   Auto Start mean grad. ratio tolernc. ....  1.125000
   Auto Start start iteration           ....    50
   Auto Start num. interpolation iter.  ....    10
   Max. Number of Micro iterations      ....    24
   Max. Number of Macro iterations      .... Maxiter - #DIIS iter
   Number of Davidson start vectors     ....     2
   Converg. threshold    (grad. norm)   ....   5.000e-05
   Grad. Scal. Fac. for Micro threshold ....   0.100
   Minimum threshold for Micro iter.    ....   1.000e-02
   NR start threshold (gradient norm)   ....   1.000e-04
   Initial trust radius                 ....   0.400
   Minimum AH scaling param. (alpha)    ....   1.000
   Maximum AH scaling param. (alpha)    .... 1000.000
   Quad. conv. algorithm                .... NR
   White noise on init. David. guess    .... on
   Maximum white noise                  ....   0.010
   Pseudo random numbers                .... off
   Inactive MOs                         .... canonical
   Orbital update algorithm             .... Taylor
   Preconditioner                       .... Diag
   Full preconditioner red. dimension   ....   250
   COSX micro iterations for RIJONX calc.... off
 SOSCF                  CNVSOSCF        .... on
   Start iteration      SOSCFMaxIt      ....   150
   Startup grad/error   SOSCFStart      ....  0.003300
   Hessian update       SOSCFHessUp     .... L-BFGS
 Level Shifting         CNVShift        .... on
   Level shift para.    LevelShift      ....    0.2500
   Turn off err/grad.   ShiftErr        ....    0.0010
 Zerner damping         CNVZerner       .... off
 Static damping         CNVDamp         .... on
   Fraction old density DampFac         ....    0.7000
   Max. Damping (<1)    DampMax         ....    0.9800
   Min. Damping (>=0)   DampMin         ....    0.0000
   Turn off err/grad.   DampErr         ....    0.1000

SCF Procedure:
 Maximum # iterations   MaxIter         ....   125
 SCF integral mode      SCFMode         .... Direct
   Integral package                     .... SHARK and LIBINT hybrid scheme
 Reset frequency        DirectResetFreq ....    20
 Integral Threshold     Thresh          ....  1.000e-10 Eh
 Primitive CutOff       TCut            ....  1.000e-11 Eh

Convergence Tolerance:
 Convergence Check Mode ConvCheckMode   .... Total+1el-Energy
 Convergence forced     ConvForced      .... 0
 Energy Change          TolE            ....  1.000e-06 Eh
 1-El. energy change                    ....  1.000e-03 Eh
 Orbital Gradient       TolG            ....  5.000e-05
 Orbital Rotation angle TolX            ....  5.000e-05
 DIIS Error             TolErr          ....  1.000e-06

------------------------------
INITIAL GUESS: MODEL POTENTIAL
------------------------------
Loading Hartree-Fock densities                     ... done
Calculating cut-offs                               ... done
Initializing the effective Hamiltonian             ... done
Setting up the integral package (SHARK)            ... done
Starting the Coulomb interaction                   ... done (   0.4 sec)
Making the grid                                    ... done (   0.2 sec)
Mapping shells                                     ... done
Starting the XC term evaluation                    ... done (   0.4 sec)
  promolecular density results
     # of electrons  =     83.997979577
     EX              =   -127.141590947
     EC              =     -3.331995995
     EX+EC           =   -130.473586942
Transforming the Hamiltonian                       ... done (   0.0 sec)
Diagonalizing the Hamiltonian                      ... done (   0.0 sec)
Back transforming the eigenvectors                 ... done (   0.0 sec)
Now organizing SCF variables                       ... done
                      ------------------
                      INITIAL GUESS DONE (   1.1 sec)
                      ------------------
             **** ENERGY FILE WAS UPDATED (vacuum_censo.en.tmp) ****
Finished Guess after   1.4 sec
Maximum memory used throughout the entire GUESS-calculation: 34.3 MB

-------------------------------------------------------------------------------------------
                                      ORCA LEAN-SCF
                              memory conserving SCF solver
-------------------------------------------------------------------------------------------

----------------------------------------D-I-I-S--------------------------------------------
Iteration    Energy (Eh)           Delta-E    RMSDP     MaxDP     DIISErr   Damp  Time(sec)
-------------------------------------------------------------------------------------------
               ***  Starting incremental Fock matrix formation  ***
    1    -2844.8572208903833598     0.00e+00  1.40e-03  3.34e-02  1.80e-01  0.700   4.1
    2    -2844.9481449596260063    -9.09e-02  1.00e-03  2.20e-02  9.34e-02  0.700   3.6
                               ***Turning on AO-DIIS***
    3    -2844.9825440967106260    -3.44e-02  5.55e-04  1.98e-02  3.41e-02  0.700   3.6
    4    -2845.0024884467270567    -1.99e-02  1.31e-03  4.25e-02  1.39e-02  0.000   3.5
    5    -2845.0471085173617212    -4.46e-02  1.77e-04  7.19e-03  7.49e-03  0.000   3.6
                              *** Initializing SOSCF ***
---------------------------------------S-O-S-C-F--------------------------------------
Iteration    Energy (Eh)           Delta-E    RMSDP     MaxDP     MaxGrad    Time(sec)
--------------------------------------------------------------------------------------
    6    -2845.0474847152740949    -3.76e-04  8.27e-05  2.66e-03  1.31e-03     3.3
               *** Restarting incremental Fock matrix formation ***
    7    -2845.0475084521362987    -2.37e-05  5.69e-05  1.79e-03  2.87e-04     4.0
    8    -2845.0475053201989795     3.13e-06  1.88e-05  4.85e-04  7.39e-04     3.0
    9    -2845.0475118787389874    -6.56e-06  1.68e-05  4.32e-04  2.21e-04     3.0
   10    -2845.0475111064120028     7.72e-07  7.68e-06  2.76e-04  2.37e-04     3.0
                 **** Energy Check signals convergence ****

               *****************************************************
               *                     SUCCESS                       *
               *           SCF CONVERGED AFTER  10 CYCLES          *
               *****************************************************

             **** ENERGY FILE WAS UPDATED (vacuum_censo.en.tmp) ****

----------------
TOTAL SCF ENERGY
----------------

Total Energy       :      -2845.04751110641200 Eh          -77417.67862 eV

Components:
Nuclear Repulsion  :        518.32722617816296 Eh           14104.40088 eV
Electronic Energy  :      -3363.37473728457553 Eh          -91522.07949 eV
One Electron Energy:      -4977.05847570208880 Eh         -135432.64639 eV
Two Electron Energy:       1613.68373841751350 Eh           43910.56689 eV

Virial components:
Potential Energy   :      -5685.30189844188135 Eh         -154704.92970 eV
Kinetic Energy     :       2840.25438733546980 Eh           77287.25109 eV
Virial Ratio       :          2.00168756847708

DFT components:
N(Alpha)           :       41.999997996576 electrons
N(Beta)            :       41.999997996576 electrons
N(Total)           :       83.999995993152 electrons
E(X)               :     -128.513238752915 Eh       
E(C)               :       -3.290973675349 Eh       
E(XC)              :     -131.804212428264 Eh       

---------------
SCF CONVERGENCE
---------------

  Last Energy change         ...   -7.7233e-07  Tolerance :   1.0000e-06
  Last MAX-Density change    ...    2.7576e-04  Tolerance :   1.0000e-05
  Last RMS-Density change    ...    7.6810e-06  Tolerance :   1.0000e-06
  Last DIIS Error            ...    1.3143e-03  Tolerance :   1.0000e-06
  Last Orbital Gradient      ...    2.3743e-04  Tolerance :   5.0000e-05
  Last Orbital Rotation      ...    4.7974e-04  Tolerance :   5.0000e-05


----------------
ORBITAL ENERGIES
----------------

  NO   OCC          E(Eh)            E(eV) 
   0   2.0000    -482.224124    -13121.9855 
   1   2.0000     -62.295186     -1695.1382 
   2   2.0000     -56.076450     -1525.9178 
   3   2.0000     -56.072368     -1525.8067 
   4   2.0000     -56.072368     -1525.8067 
   5   2.0000     -10.094501      -274.6853 
   6   2.0000     -10.056296      -273.6457 
   7   2.0000     -10.051307      -273.5100 
   8   2.0000     -10.051290      -273.5095 
   9   2.0000     -10.047422      -273.4043 
  10   2.0000     -10.047404      -273.4038 
  11   2.0000     -10.039816      -273.1973 
  12   2.0000      -8.628407      -234.7909 
  13   2.0000      -6.434738      -175.0981 
  14   2.0000      -6.422936      -174.7770 
  15   2.0000      -6.422540      -174.7662 
  16   2.0000      -2.532487       -68.9125 
  17   2.0000      -2.529872       -68.8413 
  18   2.0000      -2.529602       -68.8340 
  19   2.0000      -2.520404       -68.5837 
  20   2.0000      -2.520404       -68.5837 
  21   2.0000      -0.845171       -22.9983 
  22   2.0000      -0.778953       -21.1964 
  23   2.0000      -0.728254       -19.8168 
  24   2.0000      -0.721567       -19.6348 
  25   2.0000      -0.649250       -17.6670 
  26   2.0000      -0.591401       -16.0928 
  27   2.0000      -0.558200       -15.1894 
  28   2.0000      -0.476837       -12.9754 
  29   2.0000      -0.448575       -12.2063 
  30   2.0000      -0.432822       -11.7777 
  31   2.0000      -0.403529       -10.9806 
  32   2.0000      -0.402038       -10.9400 
  33   2.0000      -0.381541       -10.3823 
  34   2.0000      -0.366669        -9.9776 
  35   2.0000      -0.357257        -9.7215 
  36   2.0000      -0.325589        -8.8597 
  37   2.0000      -0.324409        -8.8276 
  38   2.0000      -0.286631        -7.7996 
  39   2.0000      -0.264469        -7.1966 
  40   2.0000      -0.249901        -6.8002 
  41   2.0000      -0.221441        -6.0257 
  42   0.0000      -0.048347        -1.3156 
  43   0.0000      -0.042645        -1.1604 
  44   0.0000      -0.023301        -0.6340 
  45   0.0000       0.057755         1.5716 
  46   0.0000       0.076733         2.0880 
  47   0.0000       0.084078         2.2879 
  48   0.0000       0.089595         2.4380 
  49   0.0000       0.109768         2.9869 
  50   0.0000       0.122549         3.3347 
  51   0.0000       0.135940         3.6991 
  52   0.0000       0.136834         3.7234 
*Only the first 10 virtual orbitals were printed.

                    ********************************
                    * MULLIKEN POPULATION ANALYSIS *
                    ********************************

-----------------------
MULLIKEN ATOMIC CHARGES
-----------------------
   0 C :   -0.346543
   1 C :    0.170500
   2 C :   -0.182215
   3 C :   -0.136842
   4 C :    0.085539
   5 C :   -0.136821
   6 C :   -0.182149
   7 Br:   -0.100781
   8 H :    0.115269
   9 H :    0.124693
  10 H :    0.115471
  11 H :    0.107609
  12 H :    0.129364
  13 H :    0.129368
  14 H :    0.107537
Sum of atomic charges:   -0.0000000

--------------------------------
MULLIKEN REDUCED ORBITAL CHARGES
--------------------------------
  0 C s       :     3.302541  s :     3.302541
      pz      :     1.050436  p :     2.995419
      px      :     0.883761
      py      :     1.061222
      dz2     :     0.002366  d :     0.044784
      dxz     :     0.020022
      dyz     :     0.001948
      dx2y2   :     0.003643
      dxy     :     0.016804
      f0      :     0.000830  f :     0.003799
      f+1     :     0.000407
      f-1     :     0.000055
      f+2     :     0.000711
      f-2     :    -0.000136
      f+3     :     0.001016
      f-3     :     0.000916

  1 C s       :     3.196934  s :     3.196934
      pz      :     0.908835  p :     2.493155
      px      :     0.765328
      py      :     0.818992
      dz2     :     0.004889  d :     0.127708
      dxz     :     0.025897
      dyz     :     0.022678
      dx2y2   :     0.031959
      dxy     :     0.042285
      f0      :     0.001896  f :     0.011703
      f+1     :     0.000855
      f-1     :     0.000600
      f+2     :     0.001027
      f-2     :     0.001203
      f+3     :     0.002193
      f-3     :     0.003929

  2 C s       :     3.259973  s :     3.259973
      pz      :     0.978596  p :     2.837074
      px      :     0.938545
      py      :     0.919933
      dz2     :     0.003368  d :     0.076408
      dxz     :     0.019034
      dyz     :     0.008422
      dx2y2   :     0.020755
      dxy     :     0.024829
      f0      :     0.001751  f :     0.008761
      f+1     :     0.000660
      f-1     :     0.000625
      f+2     :     0.000943
      f-2     :     0.000468
      f+3     :     0.001772
      f-3     :     0.002543

  3 C s       :     3.203841  s :     3.203841
      pz      :     0.972322  p :     2.840779
      px      :     0.955432
      py      :     0.913025
      dz2     :     0.003656  d :     0.083382
      dxz     :     0.019390
      dyz     :     0.010150
      dx2y2   :     0.018110
      dxy     :     0.032076
      f0      :     0.001823  f :     0.008840
      f+1     :     0.000697
      f-1     :     0.000690
      f+2     :     0.001014
      f-2     :     0.000465
      f+3     :     0.001771
      f-3     :     0.002381

  4 C s       :     3.238407  s :     3.238407
      pz      :     0.988647  p :     2.513410
      px      :     0.710390
      py      :     0.814372
      dz2     :     0.006755  d :     0.151551
      dxz     :     0.023496
      dyz     :     0.026202
      dx2y2   :     0.052254
      dxy     :     0.042844
      f0      :     0.002013  f :     0.011093
      f+1     :     0.000937
      f-1     :     0.000618
      f+2     :     0.000820
      f-2     :     0.001235
      f+3     :     0.001942
      f-3     :     0.003529

  5 C s       :     3.203766  s :     3.203766
      pz      :     0.972318  p :     2.840814
      px      :     0.955402
      py      :     0.913094
      dz2     :     0.003660  d :     0.083400
      dxz     :     0.019393
      dyz     :     0.010148
      dx2y2   :     0.018121
      dxy     :     0.032077
      f0      :     0.001823  f :     0.008840
      f+1     :     0.000697
      f-1     :     0.000690
      f+2     :     0.001014
      f-2     :     0.000465
      f+3     :     0.001771
      f-3     :     0.002381

  6 C s       :     3.259523  s :     3.259523
      pz      :     0.978646  p :     2.837347
      px      :     0.938863
      py      :     0.919838
      dz2     :     0.003372  d :     0.076517
      dxz     :     0.019051
      dyz     :     0.008420
      dx2y2   :     0.020831
      dxy     :     0.024844
      f0      :     0.001751  f :     0.008761
      f+1     :     0.000659
      f-1     :     0.000625
      f+2     :     0.000943
      f-2     :     0.000468
      f+3     :     0.001772
      f-3     :     0.002543

  7 Brs       :     7.926295  s :     7.926295
      pz      :     5.935090  p :    17.114390
      px      :     5.204504
      py      :     5.974797
      dz2     :     2.005561  d :    10.053143
      dxz     :     2.020527
      dyz     :     2.000526
      dx2y2   :     2.016539
      dxy     :     2.009990
      f0      :     0.000816  f :     0.006952
      f+1     :     0.001259
      f-1     :     0.000099
      f+2     :     0.001188
      f-2     :     0.000043
      f+3     :     0.002191
      f-3     :     0.001357

  8 H s       :     0.861625  s :     0.861625
      pz      :     0.006685  p :     0.023105
      px      :     0.006458
      py      :     0.009962

  9 H s       :     0.852107  s :     0.852107
      pz      :     0.011607  p :     0.023201
      px      :     0.006267
      py      :     0.005327

 10 H s       :     0.861432  s :     0.861432
      pz      :     0.006769  p :     0.023097
      px      :     0.006455
      py      :     0.009873

 11 H s       :     0.868876  s :     0.868876
      pz      :     0.005566  p :     0.023515
      px      :     0.006598
      py      :     0.011352

 12 H s       :     0.846994  s :     0.846994
      pz      :     0.005503  p :     0.023642
      px      :     0.006867
      py      :     0.011272

 13 H s       :     0.846990  s :     0.846990
      pz      :     0.005504  p :     0.023642
      px      :     0.006867
      py      :     0.011271

 14 H s       :     0.868944  s :     0.868944
      pz      :     0.005567  p :     0.023519
      px      :     0.006598
      py      :     0.011354



                     *******************************
                     * LOEWDIN POPULATION ANALYSIS *
                     *******************************

----------------------
LOEWDIN ATOMIC CHARGES
----------------------
   0 C :   -0.251577
   1 C :   -0.171084
   2 C :   -0.108838
   3 C :   -0.142284
   4 C :   -0.373858
   5 C :   -0.142281
   6 C :   -0.108936
   7 Br:    0.316446
   8 H :    0.127999
   9 H :    0.132466
  10 H :    0.128088
  11 H :    0.148118
  12 H :    0.148827
  13 H :    0.148827
  14 H :    0.148087

-------------------------------
LOEWDIN REDUCED ORBITAL CHARGES
-------------------------------
  0 C s       :     2.825312  s :     2.825312
      pz      :     1.068992  p :     3.151566
      px      :     1.017994
      py      :     1.064579
      dz2     :     0.035901  d :     0.250017
      dxz     :     0.069256
      dyz     :     0.023933
      dx2y2   :     0.049722
      dxy     :     0.071205
      f0      :     0.004001  f :     0.024682
      f+1     :     0.003433
      f-1     :     0.000320
      f+2     :     0.004259
      f-2     :     0.002626
      f+3     :     0.004637
      f-3     :     0.005408

  1 C s       :     2.719813  s :     2.719813
      pz      :     0.828110  p :     2.860843
      px      :     0.985734
      py      :     1.046999
      dz2     :     0.033365  d :     0.531577
      dxz     :     0.075200
      dyz     :     0.075823
      dx2y2   :     0.182055
      dxy     :     0.165134
      f0      :     0.004191  f :     0.058851
      f+1     :     0.004109
      f-1     :     0.004365
      f+2     :     0.006141
      f-2     :     0.007583
      f+3     :     0.009422
      f-3     :     0.023040

  2 C s       :     2.764005  s :     2.764005
      pz      :     0.889789  p :     2.914343
      px      :     1.030871
      py      :     0.993683
      dz2     :     0.026464  d :     0.387301
      dxz     :     0.062656
      dyz     :     0.026589
      dx2y2   :     0.122111
      dxy     :     0.149482
      f0      :     0.003163  f :     0.043188
      f+1     :     0.004126
      f-1     :     0.003488
      f+2     :     0.006135
      f-2     :     0.002863
      f+3     :     0.008223
      f-3     :     0.015191

  3 C s       :     2.771082  s :     2.771082
      pz      :     0.887980  p :     2.938397
      px      :     1.049845
      py      :     1.000572
      dz2     :     0.026653  d :     0.388683
      dxz     :     0.064134
      dyz     :     0.030548
      dx2y2   :     0.115718
      dxy     :     0.151629
      f0      :     0.003429  f :     0.044122
      f+1     :     0.004232
      f-1     :     0.003703
      f+2     :     0.006562
      f-2     :     0.003273
      f+3     :     0.008507
      f-3     :     0.014415

  4 C s       :     2.791776  s :     2.791776
      pz      :     0.919684  p :     2.965665
      px      :     0.942484
      py      :     1.103497
      dz2     :     0.039329  d :     0.560796
      dxz     :     0.069420
      dyz     :     0.083621
      dx2y2   :     0.212650
      dxy     :     0.155776
      f0      :     0.003872  f :     0.055621
      f+1     :     0.004126
      f-1     :     0.004652
      f+2     :     0.004430
      f-2     :     0.007719
      f+3     :     0.009745
      f-3     :     0.021077

  5 C s       :     2.771084  s :     2.771084
      pz      :     0.887998  p :     2.938415
      px      :     1.049816
      py      :     1.000601
      dz2     :     0.026654  d :     0.388663
      dxz     :     0.064129
      dyz     :     0.030545
      dx2y2   :     0.115725
      dxy     :     0.151609
      f0      :     0.003429  f :     0.044120
      f+1     :     0.004232
      f-1     :     0.003703
      f+2     :     0.006561
      f-2     :     0.003273
      f+3     :     0.008507
      f-3     :     0.014414

  6 C s       :     2.764014  s :     2.764014
      pz      :     0.889833  p :     2.914399
      px      :     1.030887
      py      :     0.993679
      dz2     :     0.026468  d :     0.387335
      dxz     :     0.062685
      dyz     :     0.026585
      dx2y2   :     0.122129
      dxy     :     0.149468
      f0      :     0.003163  f :     0.043188
      f+1     :     0.004126
      f-1     :     0.003488
      f+2     :     0.006134
      f-2     :     0.002863
      f+3     :     0.008223
      f-3     :     0.015190

  7 Brs       :     7.595527  s :     7.595527
      pz      :     5.872889  p :    16.956162
      px      :     5.201756
      py      :     5.881517
      dz2     :     2.014879  d :    10.117445
      dxz     :     2.036243
      dyz     :     2.000568
      dx2y2   :     2.041818
      dxy     :     2.023937
      f0      :     0.001487  f :     0.014419
      f+1     :     0.002668
      f-1     :     0.000200
      f+2     :     0.002288
      f-2     :     0.000026
      f+3     :     0.004745
      f-3     :     0.003005

  8 H s       :     0.809543  s :     0.809543
      pz      :     0.018622  p :     0.062458
      px      :     0.015288
      py      :     0.028548

  9 H s       :     0.804783  s :     0.804783
      pz      :     0.033366  p :     0.062751
      px      :     0.015161
      py      :     0.014224

 10 H s       :     0.809445  s :     0.809445
      pz      :     0.018882  p :     0.062467
      px      :     0.015293
      py      :     0.028291

 11 H s       :     0.791551  s :     0.791551
      pz      :     0.014406  p :     0.060332
      px      :     0.016738
      py      :     0.029187

 12 H s       :     0.789884  s :     0.789884
      pz      :     0.014322  p :     0.061289
      px      :     0.017404
      py      :     0.029564

 13 H s       :     0.789883  s :     0.789883
      pz      :     0.014323  p :     0.061290
      px      :     0.017405
      py      :     0.029563

 14 H s       :     0.791579  s :     0.791579
      pz      :     0.014409  p :     0.060334
      px      :     0.016737
      py      :     0.029188



                      *****************************
                      * MAYER POPULATION ANALYSIS *
                      *****************************

  NA   - Mulliken gross atomic population
  ZA   - Total nuclear charge
  QA   - Mulliken gross atomic charge
  VA   - Mayer's total valence
  BVA  - Mayer's bonded valence
  FA   - Mayer's free valence

  ATOM       NA         ZA         QA         VA         BVA        FA
  0 C      6.3465     6.0000    -0.3465     3.8591     3.8591     0.0000
  1 C      5.8295     6.0000     0.1705     3.6124     3.6124     0.0000
  2 C      6.1822     6.0000    -0.1822     3.8877     3.8877     0.0000
  3 C      6.1368     6.0000    -0.1368     3.8326     3.8326    -0.0000
  4 C      5.9145     6.0000     0.0855     3.8762     3.8762    -0.0000
  5 C      6.1368     6.0000    -0.1368     3.8326     3.8326    -0.0000
  6 C      6.1821     6.0000    -0.1821     3.8884     3.8884     0.0000
  7 Br    35.1008    35.0000    -0.1008     1.1836     1.1836    -0.0000
  8 H      0.8847     1.0000     0.1153     0.9787     0.9787     0.0000
  9 H      0.8753     1.0000     0.1247     0.9689     0.9689     0.0000
 10 H      0.8845     1.0000     0.1155     0.9784     0.9784    -0.0000
 11 H      0.8924     1.0000     0.1076     0.9766     0.9766    -0.0000
 12 H      0.8706     1.0000     0.1294     0.9727     0.9727    -0.0000
 13 H      0.8706     1.0000     0.1294     0.9727     0.9727    -0.0000
 14 H      0.8925     1.0000     0.1075     0.9766     0.9766     0.0000

  Mayer bond orders larger than 0.100000
B(  0-C ,  1-C ) :   0.9102 B(  0-C ,  8-H ) :   0.9831 B(  0-C ,  9-H ) :   0.9526 
B(  0-C , 10-H ) :   0.9827 B(  1-C ,  2-C ) :   1.3331 B(  1-C ,  6-C ) :   1.3341 
B(  2-C ,  3-C ) :   1.3893 B(  2-C , 11-H ) :   0.9770 B(  3-C ,  4-C ) :   1.3397 
B(  3-C , 12-H ) :   0.9707 B(  4-C ,  5-C ) :   1.3402 B(  4-C ,  7-Br) :   1.0343 
B(  5-C ,  6-C ) :   1.3888 B(  5-C , 13-H ) :   0.9706 B(  6-C , 14-H ) :   0.9768 


-------
TIMINGS
-------

Total SCF time: 0 days 0 hours 0 min 35 sec 

Total time                  ....      35.078 sec
Sum of individual times     ....      34.597 sec  ( 98.6%)

SCF preparation             ....       0.208 sec  (  0.6%)
Fock matrix formation       ....      33.307 sec  ( 94.9%)
  Startup                   ....       0.061 sec  (  0.2% of F)
  Split-RI-J                ....       4.641 sec  ( 13.9% of F)
  XC integration            ....      28.024 sec  ( 84.1% of F)
    XC Preparation          ....       0.000 sec  (  0.0% of XC)
    Basis function eval.    ....       4.250 sec  ( 15.2% of XC)
    Density eval.           ....       8.762 sec  ( 31.3% of XC)
    XC-Functional eval.     ....       2.190 sec  (  7.8% of XC)
    XC-Potential eval.      ....      11.853 sec  ( 42.3% of XC)
Diagonalization             ....       0.000 sec  (  0.0%)
Density matrix formation    ....       0.238 sec  (  0.7%)
Total Energy calculation    ....       0.035 sec  (  0.1%)
Population analysis         ....       0.037 sec  (  0.1%)
Orbital Transformation      ....       0.085 sec  (  0.2%)
Orbital Orthonormalization  ....       0.000 sec  (  0.0%)
DIIS solution               ....       0.433 sec  (  1.2%)
SOSCF solution              ....       0.254 sec  (  0.7%)
Finished LeanSCF after  35.2 sec

Maximum memory used throughout the entire LEANSCF-calculation: 36.6 MB

------------------------------------------------------------------------------
                         ORCA PROPERTY INTEGRAL CALCULATIONS
------------------------------------------------------------------------------

GBWName                                   ... vacuum_censo.gbw
Number of atoms                           ...     15
Number of basis functions                 ...    307
Max core memory                           ...   1024 MB

Dipole integrals                          ... YES
Quadrupole integrals                      ...  NO
Linear momentum integrals                 ...  NO
Angular momentum integrals                ...  NO
Higher moments length integrals           ...  NO
Higher moments velocity integrals         ...  NO
Kinetic energy integrals                  ...  NO
GIAO right hand sides                     ...  NO
GIAO dipole derivative integrals          ...  NO
SOC integrals                             ...  NO
EPR diamagnetic integrals (GIAO)          ...  NO
EPR gauge integrals                       ...  NO
Field gradient integrals                  ...  NO (   0 nuclei)
Spin-dipole/Fermi contact integrals       ...  NO (   0 nuclei)
Contact density integrals                 ...  NO (   0 nuclei)
Nucleus-orbit integrals                   ...  NO (   0 nuclei)
Geometric perturbations                   ... YES (  15 nuclei)

Choice of electric origin   ... Center of mass
Position of electric origin ... (  0.0183, -0.0000, -0.0049) 
Choice of magnetic origin   ... GIAO
Position of magnetic origin ... (  0.0000,  0.0000,  0.0000) 

Calculating integrals                     ... Electric Dipole (Length)     done (  0.0 sec)
Calculating integrals                     ... Geometrical perturbation right hand sides

-----------------------
GEOMETRIC PERTURBATIONS (15 nuclei)
-----------------------

MaxCore                            ...   1024 MB
Number of batches                  ...      1

BATCH   0: Atoms    0 -   14 ( 45 perturbations)
   => H(core) and overlap derivative integrals     ... done (     0.5 sec)
   => Making and storing internal U-coefficients   ... done (     0.4 sec)
   => RI-J derivative integrals                    ... done (     6.0 sec)
   => RI-J response operators                      ... done (     1.5 sec)
   => XC derivative integrals                      ... done (   304.3 sec)
   => XC response operators                        ... done (    83.5 sec)
   => Completing and storing right hand sides      ... done (     0.2 sec)
   => Total time for right hand sides = 399.2 sec

  geometrical perturbations done (399.3 sec)

Property integrals calculated in 399.3 sec

Maximum memory used throughout the entire PROPINT-calculation: 160.3 MB


-------------------------------------------------------------------------------
                          DFT DISPERSION CORRECTION                            
                                                                               
                                DFTD4 V3.4.0                                   
-------------------------------------------------------------------------------
The R2SCAN3C composite method is recognized
Using three-body term ABC
Active option DFTDOPT                   ...         5   

-------------------------   ----------------
Dispersion correction           -0.005219588
-------------------------   ----------------

------------------   -----------------
gCP correction             0.004437220
------------------   -----------------

-------------------------   --------------------
FINAL SINGLE POINT ENERGY     -2845.048293474440
-------------------------   --------------------

------------------------------------------------------------------------------
                            ORCA SCF RESPONSE CALCULATION
------------------------------------------------------------------------------

GBWName                                 ... vacuum_censo.gbw
Number of atoms                         ...     15
Number of basis functions               ...    307
Max core memory                         ...   1024 MB

Electric field perturbation             ...  NO
Quadrupolar field perturbation          ...  NO
Magnetic field perturbation (no GIAO)   ...  NO
Magnetic field perturbation (with GIAO) ...  NO
Linear momentum (velocity) perturbation ...  NO
Spin-orbit coupling perturbation        ...  NO
Choice of electric origin               ... Center of mass
Position of electric origin             ...     0.018259    -0.000003    -0.004911
Choice of magnetic origin               ... GIAO
Position of magnetic origin             ...     0.000000     0.000000     0.000000
Nuclear geometric perturbations         ... YES (  45 perturbations)
Nucleus-orbit perturbations             ...  NO (   0 perturbations)
Spin-dipole/Fermi contact perturbations ...  NO (   0 perturbations)

Total number of real perturbations      ...     45
Total number of imaginary perturbations ...      0
Total number of triplet perturbations   ...      0
Total number of SOC perturbations       ...      0


                                **********************
                                * REAL PERTURBATIONS *
                                **********************



-------------------
SHARK CP-SCF DRIVER
-------------------

Dimension of the orbital basis          ...    307
Dimension of the CPSCF-problem          ...  11130
Number of operators                     ...      1
Max. number of iterations               ...    128
Convergence Tolerance                   ... 1.0e-03
Number of perturbations                 ...     45
Perturbation type                       ... REAL

----------------------------
POPLE LINEAR EQUATION SOLVER
----------------------------

  ITERATION   0:   ||err||_max =   4.0458e-01 (  27.3 sec   0/ 45 done)
  ITERATION   1:   ||err||_max =   4.9872e-02 (  29.4 sec   0/ 45 done)
  ITERATION   2:   ||err||_max =   1.5824e-02 (  29.8 sec   3/ 45 done)
  ITERATION   3:   ||err||_max =   4.2413e-03 (  29.5 sec  17/ 45 done)
  ITERATION   4:   ||err||_max =   1.8042e-03 (  19.9 sec  37/ 45 done)
  ITERATION   5:   ||err||_max =   6.2550e-04 (   6.5 sec  45/ 45 done)

CP-SCF equations solved in 144.1 sec
Response densities calculated in   0.2 sec

Maximum memory used throughout the entire SCFRESP-calculation: 110.4 MB

------------------------------------------------------------------------------
                              ORCA PROPERTY CALCULATIONS
------------------------------------------------------------------------------

GBWName                                 ... vacuum_censo.gbw
Number of atoms                         ...     15
Number of basis functions               ...    307
Max core memory                         ...   1024 MB

Electric properties:
Dipole moment                           ... YES
Quadrupole moment                       ...  NO
Static polarizability (Dipole/Dipole)   ...  NO
Static polarizability (Dipole/Quad.)    ...  NO
Static polarizability (Quad./Quad.)     ...  NO
Static polarizability (Velocity)        ...  NO

Atomic electric properties:
Dipole moment                           ...  NO
Quadrupole moment                       ...  NO
Static polarizability                   ...  NO

Choice of electric origin               ... Center of mass
Position of electric origin             ...     0.018259    -0.000003    -0.004911

General magnetic properties:
Magnetizability                         ...  NO

EPR properties:
g-Tensor (aka g-matrix)                 ...  NO
Zero-Field splitting spin-orbit         ...  NO
Zero-field splitting spin-spin          ...  NO
Hyperfine couplings                     ...  NO (   0 nuclei)
Quadrupole couplings                    ...  NO (   0 nuclei)
Contact density                         ...  NO (   0 nuclei)

NMR properties:
Chemical shifts                         ...  NO (   0 nuclei)
Spin-rotation constants                 ...  NO (   0 nuclei)
Spin-spin couplings                     ...  NO (   0 nuclei,    0 pairs)

Choice of magnetic origin               ... GIAO
Position of magnetic origin             ...     0.000000     0.000000     0.000000

Properties with geometric perturbations:
SCF Hessian                             ... YES
IR spectrum                             ... YES
VCD spectrum                            ...  NO
X-ray spectroscopy properties:
SCF XES/XAS/RIXS spectra                ...  NO


-------------
DIPOLE MOMENT
-------------

Method             : SCF
Type of density    : Electron Density
Multiplicity       :   1
Irrep              :   0
Energy             : -2845.0475111064120028 Eh
Relativity type    : 
Basis              : AO
                                X                 Y                 Z
Electronic contribution:     35.455557727       0.000353651      -0.024833202
Nuclear contribution   :    -36.401829196      -0.000788094       0.010167435
                        -----------------------------------------
Total Dipole Moment    :     -0.946271469      -0.000434443      -0.014665766
                        -----------------------------------------
Magnitude (a.u.)       :      0.946385210
Magnitude (Debye)      :      2.405520034



--------------------
Rotational spectrum 
--------------------
 
Rotational constants in cm-1:             0.184582             0.021019             0.018937 
Rotational constants in MHz :          5533.643992           630.148356           567.731427 

Dipole components along the rotational axes: 
x,y,z [a.u.] :    -0.946255     0.000426    -0.015689 
x,y,z [Debye]:    -2.405189     0.001083    -0.039878 

 

Dipole moment calculation done in   0.0 sec 

-----------
SCF HESSIAN
-----------

Occupied/Occupied contributions to the Hessian:
   => Occupied/Occupied contributions              ... done (  0.0 sec)
Perturbed density contributions to the Hessian:
   => Perturbed density contributions              ... done (  0.0 sec)
Explicit contributions to the Hessian:
   => Nuclear repulsion Hessian                    ... done (  0.0 sec)
   => HCore and overlap Hessian                    ... done ( 14.7 sec)
   => RI-J Hessian                                 ... done ( 14.8 sec)
   => XC-Hessian                                   ... done ( 90.5 sec)
   => Van der Waals-Hessian                        ... done (  2.9 sec)
   => GCP-Hessian                                  ... done (  0.1 sec)
   => Explicit contributions done
Dipole derivatives                                 ... done (  0.2 sec)
Mass weighting the Hessian           ... done
Calculating normal modes             ... done
Scaling frequencies                  ... done

-----------------------
VIBRATIONAL FREQUENCIES
-----------------------

Scaling factor for frequencies =  1.000000000  (already applied!)

     0:       0.00 cm**-1
     1:       0.00 cm**-1
     2:       0.00 cm**-1
     3:       0.00 cm**-1
     4:       0.00 cm**-1
     5:       0.00 cm**-1
     6:      67.95 cm**-1
     7:     107.65 cm**-1
     8:     215.71 cm**-1
     9:     287.93 cm**-1
    10:     293.57 cm**-1
    11:     370.31 cm**-1
    12:     413.06 cm**-1
    13:     485.57 cm**-1
    14:     599.29 cm**-1
    15:     648.74 cm**-1
    16:     714.73 cm**-1
    17:     804.20 cm**-1
    18:     811.53 cm**-1
    19:     829.22 cm**-1
    20:     943.14 cm**-1
    21:     946.59 cm**-1
    22:    1004.81 cm**-1
    23:    1032.02 cm**-1
    24:    1056.42 cm**-1
    25:    1079.47 cm**-1
    26:    1131.92 cm**-1
    27:    1201.96 cm**-1
    28:    1228.08 cm**-1
    29:    1321.24 cm**-1
    30:    1334.10 cm**-1
    31:    1401.62 cm**-1
    32:    1421.16 cm**-1
    33:    1481.71 cm**-1
    34:    1482.82 cm**-1
    35:    1512.24 cm**-1
    36:    1608.13 cm**-1
    37:    1623.85 cm**-1
    38:    3008.64 cm**-1
    39:    3075.48 cm**-1
    40:    3104.87 cm**-1
    41:    3155.16 cm**-1
    42:    3156.13 cm**-1
    43:    3192.34 cm**-1
    44:    3193.52 cm**-1


------------
NORMAL MODES
------------

These modes are the Cartesian displacements weighted by the diagonal matrix
M(i,i)=1/sqrt(m[i]) where m[i] is the mass of the displaced atom
Thus, these vectors are normalized but *not* orthogonal

                  0          1          2          3          4          5    
      0       0.000000   0.000000   0.000000   0.000000   0.000000   0.000000
      1       0.000000   0.000000   0.000000   0.000000   0.000000   0.000000
      2       0.000000   0.000000   0.000000   0.000000   0.000000   0.000000
      3       0.000000   0.000000   0.000000   0.000000   0.000000   0.000000
      4       0.000000   0.000000   0.000000   0.000000   0.000000   0.000000
      5       0.000000   0.000000   0.000000   0.000000   0.000000   0.000000
      6       0.000000   0.000000   0.000000   0.000000   0.000000   0.000000
      7       0.000000   0.000000   0.000000   0.000000   0.000000   0.000000
      8       0.000000   0.000000   0.000000   0.000000   0.000000   0.000000
      9       0.000000   0.000000   0.000000   0.000000   0.000000   0.000000
     10       0.000000   0.000000   0.000000   0.000000   0.000000   0.000000
     11       0.000000   0.000000   0.000000   0.000000   0.000000   0.000000
     12       0.000000   0.000000   0.000000   0.000000   0.000000   0.000000
     13       0.000000   0.000000   0.000000   0.000000   0.000000   0.000000
     14       0.000000   0.000000   0.000000   0.000000   0.000000   0.000000
     15       0.000000   0.000000   0.000000   0.000000   0.000000   0.000000
     16       0.000000   0.000000   0.000000   0.000000   0.000000   0.000000
     17       0.000000   0.000000   0.000000   0.000000   0.000000   0.000000
     18       0.000000   0.000000   0.000000   0.000000   0.000000   0.000000
     19       0.000000   0.000000   0.000000   0.000000   0.000000   0.000000
     20       0.000000   0.000000   0.000000   0.000000   0.000000   0.000000
     21       0.000000   0.000000   0.000000   0.000000   0.000000   0.000000
     22       0.000000   0.000000   0.000000   0.000000   0.000000   0.000000
     23       0.000000   0.000000   0.000000   0.000000   0.000000   0.000000
     24       0.000000   0.000000   0.000000   0.000000   0.000000   0.000000
     25       0.000000   0.000000   0.000000   0.000000   0.000000   0.000000
     26       0.000000   0.000000   0.000000   0.000000   0.000000   0.000000
     27       0.000000   0.000000   0.000000   0.000000   0.000000   0.000000
     28       0.000000   0.000000   0.000000   0.000000   0.000000   0.000000
     29       0.000000   0.000000   0.000000   0.000000   0.000000   0.000000
     30       0.000000   0.000000   0.000000   0.000000   0.000000   0.000000
     31       0.000000   0.000000   0.000000   0.000000   0.000000   0.000000
     32       0.000000   0.000000   0.000000   0.000000   0.000000   0.000000
     33       0.000000   0.000000   0.000000   0.000000   0.000000   0.000000
     34       0.000000   0.000000   0.000000   0.000000   0.000000   0.000000
     35       0.000000   0.000000   0.000000   0.000000   0.000000   0.000000
     36       0.000000   0.000000   0.000000   0.000000   0.000000   0.000000
     37       0.000000   0.000000   0.000000   0.000000   0.000000   0.000000
     38       0.000000   0.000000   0.000000   0.000000   0.000000   0.000000
     39       0.000000   0.000000   0.000000   0.000000   0.000000   0.000000
     40       0.000000   0.000000   0.000000   0.000000   0.000000   0.000000
     41       0.000000   0.000000   0.000000   0.000000   0.000000   0.000000
     42       0.000000   0.000000   0.000000   0.000000   0.000000   0.000000
     43       0.000000   0.000000   0.000000   0.000000   0.000000   0.000000
     44       0.000000   0.000000   0.000000   0.000000   0.000000   0.000000
                  6          7          8          9         10         11    
      0       0.000030   0.005845  -0.000136   0.268806   0.108673   0.000077
      1       0.011465  -0.000138   0.252838  -0.000081   0.000056  -0.194526
      2      -0.000825  -0.318512   0.000006  -0.092146   0.138588   0.000064
      3       0.000014  -0.000620  -0.000067   0.229988   0.105260  -0.000003
      4      -0.007891   0.000088  -0.032922   0.000174  -0.000067   0.163536
      5       0.000457   0.011376  -0.000102   0.167642  -0.241831  -0.000052
      6      -0.000405  -0.000523  -0.097819   0.162997   0.077375  -0.079420
      7      -0.004889  -0.000069  -0.099550  -0.034610  -0.014585   0.126307
      8       0.024423   0.127688  -0.001986   0.117560  -0.175217   0.013325
      9       0.002591  -0.000022  -0.076824   0.131539   0.065250  -0.091400
     10      -0.003533   0.000073  -0.220269  -0.035327  -0.015476  -0.072712
     11       0.024780   0.214710   0.000402  -0.100230   0.141612  -0.012731
     12      -0.000035  -0.000107   0.000014   0.033365   0.020651  -0.000097
     13      -0.005005   0.000058  -0.252966  -0.000230   0.000031  -0.123773
     14       0.000045   0.187475   0.000116  -0.191866   0.279640   0.000129
     15      -0.002654  -0.000018   0.076794   0.131811   0.065190   0.091160
     16      -0.003513   0.000022  -0.220306   0.034977   0.015520  -0.072679
     17      -0.024324   0.215145  -0.000249  -0.099901   0.141034   0.012794
     18       0.000411  -0.000542   0.097781   0.163262   0.077334   0.079169
     19      -0.004867   0.000204  -0.099581   0.034756   0.014513   0.126347
     20      -0.023524   0.128017   0.001913   0.117506  -0.175070  -0.013482
     21       0.000006  -0.000941   0.000048  -0.186796  -0.085707   0.000077
     22       0.001922  -0.000027   0.096308   0.000063  -0.000005   0.018709
     23      -0.000126  -0.077652  -0.000019   0.018972  -0.025978  -0.000008
     24       0.005258  -0.110097   0.204510   0.150845   0.276043  -0.318402
     25      -0.256133   0.003439   0.379880   0.004619  -0.008338  -0.362736
     26       0.496138  -0.421739  -0.061586  -0.199482   0.293130   0.041209
     27       0.000944   0.252484  -0.002214   0.517579  -0.256688   0.003074
     28       0.602962  -0.005336   0.270370  -0.002154   0.003031  -0.295574
     29      -0.006068  -0.407477   0.000617  -0.183078   0.270876  -0.000191
     30      -0.006079  -0.113329  -0.202991   0.147883   0.280922   0.316131
     31      -0.264173   0.000999   0.380895  -0.003213   0.005763  -0.363490
     32      -0.494469  -0.412984   0.061188  -0.195937   0.287790  -0.040715
     33       0.001699  -0.001248  -0.175455   0.111987   0.055399  -0.201681
     34      -0.005415   0.000119  -0.056334  -0.004138  -0.001922   0.195603
     35       0.043665   0.089278  -0.004186   0.165361  -0.246294   0.028360
     36       0.002666   0.000054  -0.156860   0.199217   0.094896  -0.212444
     37      -0.003447   0.000140  -0.268029   0.005310   0.002533  -0.143149
     38       0.044110   0.237195   0.000576  -0.143207   0.202554  -0.024557
     39      -0.002677   0.000071   0.156781   0.199787   0.094780   0.212209
     40      -0.003454  -0.000049  -0.268037  -0.005839  -0.002455  -0.143119
     41      -0.043425   0.237921  -0.000388  -0.142437   0.201278   0.024643
     42      -0.001688  -0.001208   0.175531   0.112610   0.055280   0.201129
     43      -0.005417  -0.000013  -0.056315   0.004451   0.001850   0.195500
     44      -0.042244   0.089853   0.004102   0.165323  -0.246025  -0.028651
                 12         13         14         15         16         17    
      0       0.000012  -0.009065   0.355212   0.000212  -0.000949   0.142670
      1       0.016037  -0.000043   0.000315   0.056803  -0.000002   0.000155
      2       0.000057   0.001531   0.012700   0.000037   0.040186   0.026284
      3       0.000019  -0.002195   0.159542   0.000094  -0.006791  -0.034932
      4      -0.012368   0.000013  -0.000159   0.118376  -0.000003   0.000019
      5      -0.000258  -0.236985  -0.013112  -0.000007   0.233430   0.033170
      6       0.005074   0.004637  -0.131763   0.284021  -0.000356  -0.030836
      7      -0.009379   0.002080  -0.129712   0.208451   0.007059   0.111996
      8       0.215560   0.066138  -0.009390  -0.000725  -0.178817  -0.055489
      9       0.005296   0.004906  -0.165828   0.287783   0.001451  -0.062881
     10       0.004605   0.001644  -0.113879  -0.214457   0.009119   0.133906
     11      -0.212998   0.076574   0.009275  -0.001660   0.165705  -0.067216
     12       0.000005   0.004074  -0.280166  -0.000210   0.010782   0.105064
     13       0.007409  -0.000016   0.000188  -0.123008   0.000008   0.000017
     14       0.000032  -0.257923  -0.010840  -0.000132  -0.238605   0.084155
     15      -0.005270   0.004963  -0.165695  -0.287953   0.001525  -0.062971
     16       0.004622  -0.001632   0.114090  -0.214274  -0.009063  -0.133963
     17       0.213178   0.076391   0.009263   0.001790   0.165609  -0.067352
     18      -0.005041   0.004692  -0.131652  -0.284135  -0.000279  -0.030917
     19      -0.009378  -0.002048   0.129157   0.208660  -0.007130  -0.112069
     20      -0.215696   0.066399  -0.009325   0.000669  -0.178887  -0.055619
     21      -0.000015  -0.001632   0.050650   0.000028  -0.001178  -0.005438
     22      -0.000925   0.000002  -0.000002  -0.009439   0.000003  -0.000002
     23      -0.000008   0.005804  -0.000265   0.000006   0.000947  -0.002080
     24       0.014310   0.110480   0.351600   0.070888  -0.144213   0.072731
     25       0.022953  -0.003056  -0.000085   0.099012   0.008464   0.019924
     26      -0.000578   0.108934   0.005089  -0.014457  -0.098064  -0.073732
     27      -0.000802  -0.270640   0.358050  -0.000534   0.318951   0.337363
     28       0.018358   0.000065  -0.000104   0.090839  -0.000045  -0.000215
     29       0.000324   0.097058   0.009824   0.000043  -0.077307  -0.045540
     30      -0.013549   0.114161   0.351840  -0.070030  -0.148515   0.070948
     31       0.023012   0.002801   0.000579   0.099358  -0.008473  -0.020162
     32       0.001259   0.108540   0.005377   0.014438  -0.097542  -0.072940
     33       0.015197   0.010238  -0.335079   0.174656   0.007673   0.038932
     34      -0.013610   0.001494  -0.011115   0.268651   0.001314   0.080918
     35       0.450185   0.418524   0.018376   0.001129  -0.362160   0.421217
     36       0.013415   0.005795  -0.055984   0.173147  -0.006207  -0.213890
     37       0.008869   0.002796  -0.048668  -0.280846   0.005186   0.049550
     38      -0.450755   0.432969   0.050179  -0.004556   0.409047   0.364329
     39      -0.013368   0.005879  -0.056280  -0.173125  -0.006150  -0.214075
     40       0.008883  -0.002785   0.049124  -0.280778  -0.005111  -0.049537
     41       0.451650   0.432250   0.050062   0.004804   0.410089   0.365360
     42      -0.015161   0.010318  -0.335139  -0.175002   0.007727   0.038806
     43      -0.013603  -0.001434   0.010446   0.268725  -0.001403  -0.081040
     44      -0.449932   0.418629   0.018308  -0.001515  -0.361839   0.422380
                 18         19         20         21         22         23    
      0      -0.110233  -0.000002   0.001657   0.000001  -0.000230   0.002319
      1      -0.000122  -0.004269   0.000009   0.002526   0.147506   0.000962
      2       0.018054   0.000044  -0.021340   0.000065   0.000022  -0.038089
      3       0.018670   0.000014   0.001487  -0.000017  -0.000030  -0.031289
      4       0.000013  -0.000822  -0.000012   0.000634   0.052886   0.000351
      5       0.056299  -0.000201   0.004526   0.000018  -0.000038   0.037773
      6       0.022960  -0.000253   0.000362  -0.000176  -0.002339   0.105842
      7      -0.083709   0.001392   0.003127  -0.000975  -0.061677   0.305180
      8      -0.065222   0.068958   0.070716  -0.091744   0.002114  -0.013252
      9       0.049322  -0.000019  -0.001313   0.000108   0.033640   0.027644
     10      -0.098502   0.000656   0.000521   0.000149  -0.021599  -0.165295
     11      -0.070747   0.078852  -0.079246   0.082808   0.002103   0.001701
     12      -0.072751  -0.000036   0.000087   0.000040   0.000543  -0.248712
     13      -0.000011  -0.000651  -0.000001   0.000314   0.028822   0.000213
     14       0.085044  -0.000073   0.021846  -0.000135  -0.000002   0.001236
     15       0.049341   0.000017  -0.001292  -0.000096  -0.033536   0.027049
     16       0.098513   0.000697  -0.000512   0.000102  -0.022048   0.164967
     17      -0.070906  -0.078716  -0.080497  -0.081611  -0.002123   0.001640
     18       0.022982   0.000260   0.000364   0.000144   0.001937   0.106043
     19       0.083787   0.001388  -0.003131  -0.000889  -0.060313  -0.305992
     20      -0.065314  -0.068707   0.072055   0.090640  -0.002052  -0.013210
     21       0.003490   0.000004   0.000041  -0.000002  -0.000023   0.008062
     22      -0.000001   0.000013   0.000001   0.000009  -0.000709  -0.000006
     23      -0.002242   0.000002  -0.001028   0.000007   0.000000  -0.000031
     24      -0.206837   0.010084   0.061537  -0.006665  -0.615843   0.096748
     25       0.008620   0.004668  -0.013778  -0.003841  -0.175599  -0.016322
     26      -0.075606  -0.004819   0.055266   0.003456   0.061114   0.072447
     27       0.075512  -0.000269  -0.127988   0.000755   0.005969  -0.143891
     28       0.000096   0.013231  -0.000264  -0.009865  -0.285712  -0.002412
     29      -0.050462  -0.000029   0.026925  -0.000086   0.001276   0.020743
     30      -0.209962  -0.009854   0.063257   0.005958   0.610478   0.107048
     31      -0.008395   0.004634   0.013985  -0.003957  -0.177753   0.014549
     32      -0.074596   0.004709   0.054668  -0.003873  -0.062467   0.071120
     33      -0.014941  -0.004668  -0.007588   0.005720   0.010974  -0.103747
     34      -0.062581   0.000303   0.003965  -0.000132  -0.074412   0.431116
     35       0.443126  -0.468666  -0.460009   0.522662  -0.020361   0.052775
     36       0.164579  -0.003824  -0.000498  -0.002960   0.150131  -0.178482
     37      -0.032883  -0.002528   0.002041  -0.002544   0.042748  -0.275131
     38       0.417065  -0.519661   0.503775  -0.468028  -0.003852  -0.001554
     39       0.164678   0.003838  -0.000413   0.002936  -0.149199  -0.181111
     40       0.032865  -0.002472  -0.002058  -0.002530   0.041880   0.275930
     41       0.418190   0.518569   0.510585   0.460131   0.003938  -0.001431
     42      -0.014832   0.004619  -0.007699  -0.005597  -0.010483  -0.103283
     43       0.062706   0.000280  -0.003969  -0.000022  -0.072506  -0.431855
     44       0.444034   0.467898  -0.467429  -0.515330   0.020071   0.052865
                 24         25         26         27         28         29    
[...]
     21       0.000004   0.001341  -0.000012   0.000001  -0.000000  -0.000000
     22       0.001333  -0.000003   0.000000  -0.000000   0.000002  -0.000012
     23       0.000001  -0.000022   0.000001  -0.000005  -0.000000  -0.000000
     24       0.246394   0.022957   0.159490  -0.194613  -0.260943  -0.007816
     25       0.015789  -0.026529  -0.375088   0.444054   0.574040   0.015753
     26       0.126815   0.040170  -0.214073   0.222587   0.325504   0.008548
     27      -0.001928   0.079753   0.241474   0.218042   0.001875   0.000111
     28      -0.188669   0.001774   0.005822   0.005166  -0.023269  -0.001152
     29       0.001959  -0.022982   0.716404   0.599765   0.005345   0.000025
     30      -0.243803   0.026176   0.159995  -0.199785   0.256410   0.008591
     31       0.011969   0.027302   0.373014  -0.451888   0.558793   0.016537
     32      -0.128374   0.042347  -0.220940   0.236308  -0.329329  -0.009476
     33      -0.299794  -0.373872  -0.004290   0.004514  -0.011470   0.358782
     34       0.005690   0.281541  -0.005038   0.006926  -0.016075   0.636055
     35       0.000289  -0.002097   0.000198  -0.001268   0.001039  -0.004324
     36      -0.285251   0.164567  -0.000388   0.000383  -0.001578   0.068353
     37       0.012994   0.197805  -0.000195  -0.000209   0.002799  -0.122794
     38       0.001249  -0.002720   0.000176  -0.000151   0.000044   0.000205
     39       0.287171   0.162831  -0.000372   0.000354   0.001626  -0.059572
     40       0.011229  -0.197534   0.000222   0.000156   0.002871  -0.107046
     41      -0.001272  -0.002684   0.000176  -0.000148  -0.000046  -0.000178
     42       0.297618  -0.375026  -0.004179   0.004277   0.011797  -0.319976
     43       0.003744  -0.280850   0.004853  -0.006523  -0.016610   0.566912
     44      -0.000319  -0.002087   0.000201  -0.001219  -0.001049   0.003830
                 42         43         44    
      0      -0.000619  -0.000001  -0.000076
      1       0.000184  -0.000232   0.000005
      2       0.000814   0.000002   0.000150
      3      -0.003677  -0.000005  -0.001197
      4      -0.000128   0.001469  -0.000008
      5       0.000071   0.000000   0.000008
      6      -0.026342  -0.007837  -0.008717
      7      -0.048930  -0.009834  -0.012179
      8       0.000339   0.000081   0.000103
      9      -0.004535   0.030902   0.029540
     10       0.011051  -0.052589  -0.052223
     11      -0.000041   0.000070   0.000069
     12      -0.000583   0.000020   0.004046
     13      -0.000032   0.003587  -0.000019
     14       0.000003  -0.000000  -0.000008
     15      -0.004992  -0.030597   0.029849
     16      -0.012173  -0.052052   0.052749
     17      -0.000043  -0.000067   0.000068
     18      -0.029732   0.007758  -0.008811
     19       0.054908  -0.009734   0.012310
     20       0.000378  -0.000079   0.000103
     21      -0.000000  -0.000000  -0.000089
     22       0.000001  -0.000004   0.000000
     23       0.000001  -0.000000  -0.000000
     24       0.006937  -0.000022   0.001695
     25      -0.008266   0.000558  -0.001620
     26      -0.005171   0.000312  -0.001019
     27       0.001480   0.000001   0.000761
     28       0.000048  -0.000209   0.000000
     29      -0.000842   0.000002   0.000207
     30       0.005808   0.000046   0.001677
     31       0.005963   0.000577   0.001564
     32      -0.004034  -0.000346  -0.001028
     33       0.315549   0.065941   0.078475
     34       0.562605   0.112435   0.135463
     35      -0.004043  -0.000789  -0.000996
     36       0.073888  -0.348714  -0.341597
     37      -0.132421   0.602166   0.591501
     38       0.000187  -0.001030  -0.001025
     39       0.081435   0.345200  -0.345092
     40       0.145970   0.596062  -0.597518
     41       0.000209   0.000995  -0.001010
     42       0.354748  -0.065287   0.079340
     43      -0.632090   0.111319  -0.136953
     44      -0.004508   0.000781  -0.001006


-----------
IR SPECTRUM
-----------

 Mode   freq       eps      Int      T**2         TX        TY        TZ
       cm**-1   L/(mol*cm) km/mol    a.u.
----------------------------------------------------------------------------
  6:     67.95   0.000053    0.27  0.000242  ( 0.000260  0.015530 -0.000685)
  7:    107.65   0.000063    0.32  0.000184  ( 0.001259  0.000093 -0.013493)
  8:    215.71   0.000004    0.02  0.000006  (-0.000014  0.002443  0.000005)
  9:    287.93   0.000440    2.22  0.000477  ( 0.021310  0.000017 -0.004780)
 10:    293.57   0.000194    0.98  0.000206  ( 0.011818 -0.000048  0.008155)
 11:    370.31   0.000034    0.17  0.000028  (-0.000088 -0.005321  0.000005)
 12:    413.06   0.000001    0.01  0.000001  ( 0.000011  0.000947  0.000040)
 13:    485.57   0.003787   19.14  0.002434  ( 0.002317 -0.000017  0.049280)
 14:    599.29   0.002161   10.92  0.001125  (-0.033468 -0.000019  0.002243)
 15:    648.74   0.000015    0.07  0.000007  (-0.000015 -0.002661 -0.000002)
 16:    714.73   0.000010    0.05  0.000004  ( 0.000519  0.000012  0.002041)
 17:    804.20   0.004109   20.77  0.001595  ( 0.018985 -0.000005  0.035131)
 18:    811.53   0.005821   29.42  0.002239  (-0.016872  0.000026  0.044203)
 19:    829.22   0.000003    0.01  0.000001  (-0.000011 -0.000989 -0.000056)
 20:    943.14   0.000100    0.51  0.000033  ( 0.003433 -0.000013  0.004632)
 21:    946.59   0.000000    0.00  0.000000  (-0.000008 -0.000042 -0.000040)
 22:   1004.81   0.000000    0.00  0.000000  (-0.000189 -0.000230 -0.000004)
 23:   1032.02   0.006109   30.87  0.001847  (-0.042893  0.000003  0.002711)
 24:   1056.42   0.002964   14.98  0.000875  ( 0.025880 -0.000054  0.014340)
 25:   1079.47   0.005363   27.10  0.001550  ( 0.039375 -0.000005  0.000100)
 26:   1131.92   0.001481    7.49  0.000408  ( 0.000110  0.020207  0.000001)
 27:   1201.96   0.000225    1.14  0.000058  ( 0.007642  0.000004  0.000200)
 28:   1228.08   0.001422    7.19  0.000361  ( 0.018869  0.000022  0.002312)
 29:   1321.24   0.000041    0.20  0.000010  (-0.000029 -0.003094  0.000001)
 30:   1334.10   0.000029    0.15  0.000007  (-0.000130 -0.002610 -0.000001)
 31:   1401.62   0.000221    1.12  0.000049  ( 0.006790 -0.000008  0.001757)
 32:   1421.16   0.000392    1.98  0.000086  ( 0.000065 -0.009275 -0.000017)
 33:   1481.71   0.001433    7.24  0.000302  ( 0.002518  0.001978 -0.017074)
 34:   1482.82   0.002366   11.96  0.000498  ( 0.000364 -0.022265 -0.001446)
 35:   1512.24   0.012682   64.09  0.002617  (-0.051145 -0.000042 -0.001094)
 36:   1608.13   0.000239    1.21  0.000046  ( 0.000128 -0.006814 -0.000001)
 37:   1623.85   0.000381    1.93  0.000073  ( 0.008542  0.000026 -0.000583)
 38:   3008.64   0.005794   29.28  0.000601  (-0.024210 -0.000002 -0.003856)
 39:   3075.48   0.002938   14.85  0.000298  ( 0.007434  0.000007 -0.015584)
 40:   3104.87   0.002629   13.28  0.000264  ( 0.000165 -0.016253 -0.000046)
 41:   3155.16   0.002522   12.75  0.000249  (-0.000781 -0.015776  0.000009)
 42:   3156.13   0.001865    9.42  0.000184  (-0.013548  0.000914  0.000102)
 43:   3192.34   0.000805    4.07  0.000079  ( 0.000004 -0.008872  0.000001)
 44:   3193.52   0.000000    0.00  0.000000  ( 0.000159  0.000047  0.000039)

* The epsilon (eps) is given for a Dirac delta lineshape.
** The dipole moment derivative (T) already includes vibrational overlap.

The first frequency considered to be a vibration is 6
The total number of vibrations considered is 39


--------------------------
THERMOCHEMISTRY AT 298.15K
--------------------------

Temperature         ...   298.15 K
Pressure            ...     1.00 atm
Total Mass          ...   171.03 AMU
Quasi RRHO          ...     True
Cut-Off Frequency   ...     1.00 cm^-1

Throughout the following assumptions are being made:
  (1) The electronic state is orbitally nondegenerate
  (2) There are no thermally accessible electronically excited states
  (3) Hindered rotations indicated by low frequency modes are not
      treated as such but are treated as vibrations and this may
      cause some error
  (4) All equations used are the standard statistical mechanics
      equations for an ideal gas
  (5) All vibrations are strictly harmonic

freq.      67.95  E(vib)   ...       0.50 
freq.     107.65  E(vib)   ...       0.45 
freq.     215.71  E(vib)   ...       0.34 
freq.     287.93  E(vib)   ...       0.27 
freq.     293.57  E(vib)   ...       0.27 
freq.     370.31  E(vib)   ...       0.21 
freq.     413.06  E(vib)   ...       0.19 
freq.     485.57  E(vib)   ...       0.15 
freq.     599.29  E(vib)   ...       0.10 
freq.     648.74  E(vib)   ...       0.08 
freq.     714.73  E(vib)   ...       0.07 
freq.     804.20  E(vib)   ...       0.05 
freq.     811.53  E(vib)   ...       0.05 
freq.     829.22  E(vib)   ...       0.04 
freq.     943.14  E(vib)   ...       0.03 
freq.     946.59  E(vib)   ...       0.03 
freq.    1004.81  E(vib)   ...       0.02 
freq.    1032.02  E(vib)   ...       0.02 
freq.    1056.42  E(vib)   ...       0.02 
freq.    1079.47  E(vib)   ...       0.02 
freq.    1131.92  E(vib)   ...       0.01 
freq.    1201.96  E(vib)   ...       0.01 
freq.    1228.08  E(vib)   ...       0.01 
freq.    1321.24  E(vib)   ...       0.01 
freq.    1334.10  E(vib)   ...       0.01 
freq.    1401.62  E(vib)   ...       0.00 
freq.    1421.16  E(vib)   ...       0.00 
freq.    1481.71  E(vib)   ...       0.00 
freq.    1482.82  E(vib)   ...       0.00 
freq.    1512.24  E(vib)   ...       0.00 
freq.    1608.13  E(vib)   ...       0.00 
freq.    1623.85  E(vib)   ...       0.00 
freq.    3008.64  E(vib)   ...       0.00 
freq.    3075.48  E(vib)   ...       0.00 
freq.    3104.87  E(vib)   ...       0.00 
freq.    3155.16  E(vib)   ...       0.00 
freq.    3156.13  E(vib)   ...       0.00 
freq.    3192.34  E(vib)   ...       0.00 
freq.    3193.52  E(vib)   ...       0.00 

------------
INNER ENERGY
------------

The inner energy is: U= E(el) + E(ZPE) + E(vib) + E(rot) + E(trans)
    E(el)   - is the total energy from the electronic structure calculation
              = E(kin-el) + E(nuc-el) + E(el-el) + E(nuc-nuc)
    E(ZPE)  - the the zero temperature vibrational energy from the frequency calculation
    E(vib)  - the the finite temperature correction to E(ZPE) due to population
              of excited vibrational states
    E(rot)  - is the rotational thermal energy
    E(trans)- is the translational thermal energy

Summary of contributions to the inner energy U:
Electronic energy                ...  -2845.04829347 Eh
Zero point energy                ...      0.11697676 Eh      73.40 kcal/mol
Thermal vibrational correction   ...      0.00474016 Eh       2.97 kcal/mol
Thermal rotational correction    ...      0.00141627 Eh       0.89 kcal/mol
Thermal translational correction ...      0.00141627 Eh       0.89 kcal/mol
-----------------------------------------------------------------------
Total thermal energy                  -2844.92374401 Eh


Summary of corrections to the electronic energy:
(perhaps to be used in another calculation)
Total thermal correction                  0.00757271 Eh       4.75 kcal/mol
Non-thermal (ZPE) correction              0.11697676 Eh      73.40 kcal/mol
-----------------------------------------------------------------------
Total correction                          0.12454946 Eh      78.16 kcal/mol


--------
ENTHALPY
--------

The enthalpy is H = U + kB*T
                kB is Boltzmann's constant
Total thermal energy              ...  -2844.92374401 Eh 
Thermal Enthalpy correction       ...      0.00094421 Eh       0.59 kcal/mol
-----------------------------------------------------------------------
Total Enthalpy                    ...  -2844.92279980 Eh


Note: Only C1 symmetry has been detected, increase convergence thresholds 
      if your molecule has a higher symmetry. Symmetry factor of 1.0 is   
      used for the rotational entropy correction. 
 

Note: Rotational entropy computed according to Herzberg 
Infrared and Raman Spectra, Chapter V,1, Van Nostrand Reinhold, 1945 
Point Group:  C1, Symmetry Number:   1  
Rotational constants in cm-1:     0.184582     0.021019     0.018937 

Vibrational entropy computed according to the QRRHO of S. Grimme
Chem.Eur.J. 2012 18 9955 using a reference frequency of 100.0 cm-1


-------
ENTROPY
-------

The entropy contributions are T*S = T*(S(el)+S(vib)+S(rot)+S(trans))
     S(el)   - electronic entropy
     S(vib)  - vibrational entropy
     S(rot)  - rotational entropy
     S(trans)- translational entropy
The entropies will be listed as multiplied by the temperature to get
units of energy

Electronic entropy                ...      0.00000000 Eh      0.00 kcal/mol
Vibrational entropy               ...      0.00791352 Eh      4.97 kcal/mol
Rotational entropy                ...      0.01400444 Eh      8.79 kcal/mol
Translational entropy             ...      0.01963134 Eh     12.32 kcal/mol
-----------------------------------------------------------------------
Final entropy term                ...      0.04154930 Eh     26.07 kcal/mol

In case the symmetry of your molecule has not been determined correctly
or in case you have a reason to use a different symmetry number we print 
out the resulting rotational entropy values for sn=1,12:

 non-linear molecules -----------------------------------
|  sn= 1 | S(rot)=       0.01400444 Eh      8.79 kcal/mol|
|  sn= 2 | S(rot)=       0.01334998 Eh      8.38 kcal/mol|
|  sn= 3 | S(rot)=       0.01296715 Eh      8.14 kcal/mol|
|  sn= 4 | S(rot)=       0.01269553 Eh      7.97 kcal/mol|
|  sn= 5 | S(rot)=       0.01248484 Eh      7.83 kcal/mol|
|  sn= 6 | S(rot)=       0.01231269 Eh      7.73 kcal/mol|
|  sn= 7 | S(rot)=       0.01216715 Eh      7.63 kcal/mol|
|  sn= 8 | S(rot)=       0.01204107 Eh      7.56 kcal/mol|
|  sn= 9 | S(rot)=       0.01192986 Eh      7.49 kcal/mol|
|  sn=10 | S(rot)=       0.01183038 Eh      7.42 kcal/mol|
|  sn=11 | S(rot)=       0.01174039 Eh      7.37 kcal/mol|
|  sn=12 | S(rot)=       0.01165824 Eh      7.32 kcal/mol|
 linear molecules ---------------------------------------
|  Dinfh | S(rot)=       0.00907101 Eh      5.69 kcal/mol|
|  Cinfv | S(rot)=       0.00972546 Eh      6.10 kcal/mol|
 --------------------------------------------------------


-------------------
GIBBS FREE ENERGY
-------------------

The Gibbs free energy is G = H - T*S

Total enthalpy                    ...  -2844.92279980 Eh 
Total entropy correction          ...     -0.04154930 Eh    -26.07 kcal/mol
-----------------------------------------------------------------------
Final Gibbs free energy         ...  -2844.96434910 Eh

For completeness - the Gibbs free energy minus the electronic energy
G-E(el)                           ...      0.08394437 Eh     52.68 kcal/mol


Maximum memory used throughout the entire PROP-calculation: 64.0 MB

--------------------------------
SUGGESTED CITATIONS FOR THIS RUN
--------------------------------

Below you find a list of papers that are relevant to this ORCA run
We neither can nor want to force you to cite these papers, but we appreciate if you do
You receive ORCA, which is the product of decades of hard work by many enthusiastic individuals, for free
The only thing we kindly ask in return is that you cite our papers,
We deeply appreciate it, if you show your appreciation for ORCA by not just citing the generic ORCA reference.

Please note that relegating all ORCA citations to the supporting information does *not* help us.
SI sections are not indexed - citations you put there will not count into any citation statistics
But we need these citations in order to attract the funding resources that allow us to do what we are doing

Therefore, if you are a happy ORCA user, please consider citing a few of the papers listed below in the main body of your paper

In addition to the list printed below, the program has created the file vacuum_censo.bibtex that contains the list in bibtex format
You can import this file easily into all common literature databanks and citation aid programs


List of essential papers. We consider these as the minimum necessary citations

  1. Neese,F.
     Software update: the ORCA program system, version 5.0
     WIRES Comput. Molec. Sci., 2022 12(1)e1606
     doi.org/10.1002/wcms.1606
  2. Grimme,S.; Hansen,A.; Ehlert,S.; Mewes,J.
     r2SCAN-3c: A 'Swiss army knife' composite electronic-structure method
     J. Chem. Phys., 2021 154 064103
     doi.org/10.1063/5.0040021

List of papers to cite with high priority. The work reported in these papers was absolutely
necessary for this run to complete.
Our perspective: the developers of density functionals and basis sets usually get cited in chemistry papers
Good! But without the algorithms to do something with them, the functionals or basis sets would not do anything.
Hence, in our opinion, the algorithm design and method developments papers are equally worthy of getting cited

  1. Neese,F.
     An improvement of the resolution of the identity approximation for the formation of the Coulomb matrix
     J. Comp. Chem., 2003 24(14)1740-1747
     doi.org/10.1002/jcc.10318
  2. Bykov,D.; Petrenko,T.; Izsak,R.; Kossmann,S.; Becker,U.; Valeev,E.; Neese,F.
     Efficient implementation of the analytic second derivatives of Hartree-Fock and hybrid DFT energies: a detailed analysis of different approximations
     Molec. Phys., 2015 113 1961-1977
     doi.org/10.1080/00268976.2015.1025114
  3. Neese,F.
     The SHARK Integral Generation and Digestion System
     J. Comp. Chem., 2022  1-16
     doi.org/10.1002/jcc.26942
  4. Lehtola,S.; Steigemann,C.; Oliveira,M.; Marques,M.
     Recent developments in Libxc - A comprehensive library of functionals for density functional theory
     Software X, 2018 7 
     doi.org/10.1016/j.softx.2017.11.002
  5. Caldeweyher,E.; Bannwarth,C.; Grimme,S.
     Extension of the D3 dispersion coefficient model
     J. Chem. Phys., 2017 147 034112-XXXX
     doi.org/10.1063/1.4993215
  6. Caldeweyher,E.; Ehlert,S.; Hansen,A.; Neugebauer,H.; Spicher,S.; Bannwarth,C.; Grimme,S.
     A generally applicable atomic-charge dependent London dispersion correction
     J. Chem. Phys., 2019 150 154122-XXXX
     doi.org/10.1063/1.5090222
  7. Caldeweyher,E.; Mewes,J.; Ehlert,S.; Grimme,S.
     Extension and evaluation of the D4 London-dispersion model for periodic systems
     Phys. Chem. Chem. Phys., 2020 22(16)8499-8512
     doi.org/10.1039/D0CP00502A

List of suggested additional citations. These are papers that are important in the 'surrounding' of 
of this run, or papers that preceded the highly important papers. If you like your results we are grateful for a citation.

  1. Neese,F.
     The ORCA program system
     WIRES Comput. Molec. Sci., 2012 2(1)73-78
     doi.org/10.1002/wcms.81
  2. Neese,F.
     Software update: the ORCA program system, version 4.0
     WIRES Comput. Molec. Sci., 2018 8(1)1-6
     doi.org/10.1002/wcms.1327
  3. Neese,F.; Wennmohs,F.; Becker,U.; Riplinger,C.
     The ORCA quantum chemistry program package
     J. Chem. Phys., 2020 152 Art. No. L224108
     doi.org/10.1063/5.0004608

List of optional additional citations

  1. Neese,F.
     Approximate second-order SCF convergence for spin unrestricted wavefunctions
     Chem. Phys. Lett., 2000 325(1-3)93-98
     doi.org/10.1016/s0009-2614(00)00662-x

Timings for individual modules:

Sum of individual times          ...      705.938 sec (=  11.766 min)
Startup calculation              ...        1.277 sec (=   0.021 min)   0.2 %
SCF iterations                   ...       36.585 sec (=   0.610 min)   5.2 %
Property integrals               ...      399.399 sec (=   6.657 min)  56.6 %
SCF Response                     ...      145.331 sec (=   2.422 min)  20.6 %
Property calculations            ...      123.345 sec (=   2.056 min)  17.5 %
                             ****ORCA TERMINATED NORMALLY****
TOTAL RUN TIME: 0 days 0 hours 11 minutes 46 seconds 623 msec
