
                                 *****************
                                 * O   R   C   A *
                                 *****************

                                            #,                                       
                                            ###                                      
                                            ####                                     
                                            #####                                    
                                            ######                                   
                                           ########,                                 
                                     ,,################,,,,,                         
                               ,,#################################,,                 
                          ,,##########################################,,             
                       ,#########################################, ''#####,          
                    ,#############################################,,   '####,        
                  ,##################################################,,,,####,       
                ,###########''''           ''''###############################       
              ,#####''   ,,,,##########,,,,          '''####'''          '####       
            ,##' ,,,,###########################,,,                        '##       
           ' ,,###''''                  '''############,,,                           
         ,,##''                                '''############,,,,        ,,,,,,###''
      ,#''                                            '''#######################'''  
     '                                                          ''''####''''         
             ,#######,   #######,   ,#######,      ##                                
            ,#'     '#,  ##    ##  ,#'     '#,    #''#        ,####,   ,####,        
            ##       ##  ##   ,#'  ##            #'  '#       #'       #'  '#        
            ##       ##  #######   ##           ,######,      #####,   #    #        
            '#,     ,#'  ##    ##  '#,     ,#' ,#      #,     #,   #   #,  ,#        
             '#######'   ##     ##  '#######'  #'      '#     '####' # '####'        



                #########################################################
                #                        -***-                          #
                #          Department of theory and spectroscopy        #
                #                                                       #
                #                      Frank Neese                      #
                #                                                       #
                #     Directorship, Architecture, Infrastructure        #
                #                    SHARK, DRIVERS                     #
                #        Core code/Algorithms in most modules           #
                #                                                       #
                #        Max Planck Institute fuer Kohlenforschung      #
                #                Kaiser Wilhelm Platz 1                 #
                #                 D-45470 Muelheim/Ruhr                 #
                #                      Germany                          #
                #                                                       #
                #                  All rights reserved                  #
                #                        -***-                          #
                #########################################################


                         Program Version 6.0.1  -  RELEASE   -


 With contributions from (in alphabetic order):
[Max-Planck-Institut fuer Kohlenforschung]                               
  Daniel Aravena         : Magnetic Suceptibility                        
  Michael Atanasov       : Ab Initio Ligand Field Theory (pilot matlab implementation)
  Alexander A. Auer      : GIAO ZORA, VPT2 properties, NMR spectrum      
  Ute Becker             : All parallelization in ORCA, NUMFREQ, NUMCALC 
  Giovanni Bistoni       : ED, misc. LED, open-shell LED, HFLD           
  Martin Brehm           : Molecular dynamics                            
  Dmytro Bykov           : pre 5.0 version of the SCF Hessian            
  Marcos Casanova-Páez   : Triplet and SCS-CIS(D). UHF-(DLPNO)-IP/EA/STEOM-CCSD. UHF-CVS-IP/STEOM-CCSD   
  Vijay G. Chilkuri      : MRCI spin determinant printing, contributions to CSF-ICE 
  Pauline Colinet        : FMM embedding                                 
  Dipayan Datta          : RHF DLPNO-CCSD density                        
  Achintya Kumar Dutta   : EOM-CC, STEOM-CC                              
  Nicolas Foglia         : Exact transition moments, OPA infrastructure, MCD improvements    
  Dmitry Ganyushin       : Spin-Orbit,Spin-Spin,Magnetic field MRCI      
  Miquel Garcia-Rates    : C-PCM and meta-GGA Hessian, CCSD/C-PCM, Gaussian charge scheme 
  Tiago L. C. Gouveia    : GS-ROHF, GS-ROCIS                             
  Yang Guo               : DLPNO-NEVPT2, F12-NEVPT2, CIM, IAO-localization        
  Andreas Hansen         : Spin unrestricted coupled pair/coupled cluster methods 
  Ingolf Harden          : AUTO-CI MPn and infrastructure                
  Benjamin Helmich-Paris : MC-RPA, TRAH-(SCF,CASSCF), AVAS, COSX integrals, SCF dyn. polar. 
  Lee Huntington         : MR-EOM, pCC                                   
  Robert Izsak           : Overlap fitted RIJCOSX, COSX-SCS-MP3, EOM     
  Riya Kayal             : Wick's Theorem for AUTO-CI, AUTO-CI UHF-CCSDT 
  Emily Kempfer          : AUTO-CI, RHF CISDT and CCSDT                  
  Christian Kollmar      : KDIIS, OOCD, Brueckner-CCSD(T), CCSD density, CASPT2, CASPT2-K, improved NEVPT2 
  Axel Koslowski         : Symmetry handling                             
  Simone Kossmann        : meta-GGA functionals, TD-DFT gradient, OOMP2, (MP2 Hessian; deprecated post 5.0) 
  Lucas Lang             : DCDCAS                                        
  Marvin Lechner         : AUTO-CI (C++ implementation), FIC-MRCC        
  Spencer Leger          : CASSCF response                               
  Dagmar Lenk            : GEPOL surface, SMD, ORCA-2-JSON               
  Dimitrios Liakos       : Extrapolation schemes; Compound Job, initial MDCI parallelization 
  Dimitrios Manganas     : Further ROCIS development; embedding schemes. LFT, Crystal Embedding 
  Dimitrios Pantazis     : SARC Basis sets                               
  Anastasios Papadopoulos: AUTO-CI, single reference methods and gradients 
  Taras Petrenko         : pre 6.0 DFT Hessian and TD-DFT gradient, (ASA, deprecated), ECA, 1-Electron XAS/XES, NRVS 
  Peter Pinski           : DLPNO-MP2, DLPNO-MP2 Gradient                 
  Christoph Reimann      : Effective Core Potentials                     
  Marius Retegan         : Local ZFS, SOC                                
  Christoph Riplinger    : Optimizer, TS searches, QM/MM, DLPNO-CCSD(T), (RO)-DLPNO pert. Triples 
  Michael Roemelt        : Original ROCIS implementation                 
  Masaaki Saitow         : Open-shell DLPNO-CCSD energy and density      
  Barbara Sandhoefer     : DKH picture change effects                    
  Kantharuban Sivalingam : CASSCF convergence/infrastructure, NEVPT2 and variants, FIC-MRCI 
  Bernardo de Souza      : ESD, SOC TD-DFT                               
  Georgi L. Stoychev     : AutoAux, RI-MP2 NMR, DLPNO-MP2 response, X2C  
  Van Anh Tran           : RI-MP2 g-tensors                              
  Willem Van den Heuvel  : Paramagnetic NMR                              
  Zikuan Wang            : NOTCH, Electric field optimization            
  Frank Wennmohs         : Technical directorship and infrastructure     
  Hang Xu                : AUTO-CI-Response properties                   
                                                                         
[FACCTs GmbH]                                                            
  Markus Bursch, Miquel Garcia-Rates, Christoph Riplinger, Bernardo de Souza, Georgi L. Stoychev 
                                                                 
  APM, Basis sets (HGBS, AHGBS, def-TZVP (Ac-Lr), def2-XVPD (La-Lu)), CI-OPT, improved COSX, DLPNO-Multilevel,           
  DOCKER, DRACO, updates on ESD, GOAT, IRC, LR-CPCM, MBIS, meta-GGA TD-DFT gradient, ML-optimized integration grids, 
  MM, NACMEs, nearIR, NEB, NEB-TS, NL-DFT gradient (VV10), 2- and 3-layer-ONIOM, interface openCOSMO-RS, QMMM,   
  Crystal-QMMM, SF, symmetry and pop. for TD-DFT, r2SCAN hybrids, SOLVATOR                                   
                                                                         
[Other institutions]                                                     
  V. Asgeirsson          : NEB                                           
  Christoph Bannwarth    : sTDA-DFT, sTD-DFT, PBEh-3c, B97-3c, D3        
  Sebastian Ehlert       : rSCAN, r2SCAN, r2SCAN-3c, D4, dhf basis sets  
  Marvin Friede          : D4 for Fr, Ra, Ac-Lr                          
  Lars Goerigk           : TD-DFT with DH, B97 family of functionals     
  Stefan Grimme          : VdW corrections, initial TS optimization, DFT functionals, gCP, sTDA/sTD-DF 
  Waldemar Hujo          : DFT-NL                                        
  H. Jonsson             : NEB                                           
  Holger Kruse           : gCP                                           
  Marcel Mueller         : wB97X-3c, vDZP basis set                      
  Hagen Neugebauer       : wr2SCAN                                       
  Tobias Risthaus        : range-separated hybrid DFT                    
  Lukas Wittmann         : regularized MP2, r2SCAN double-hybrids, wr2SCAN        
                                                                         
We gratefully acknowledge several colleagues who have allowed us to      
interface, adapt or use parts of their codes:                            
  Ed Valeev, F. Pavosevic, A. Kumar             : LibInt (2-el integral package), F12 methods 
  Garnet Chan, S. Sharma, J. Yang, R. Olivares  : DMRG                   
  Ulf Ekstrom                                   : XCFun DFT Library      
  Mihaly Kallay                                 : mrcc  (arbitrary order and MRCC methods)
  Frank Weinhold                                : gennbo (NPA and NBO analysis)           
  Simon Mueller                                 : openCOSMO-RS                            
  Christopher J. Cramer and Donald G. Truhlar   : smd solvation model                     
  S Lehtola, MJT Oliveira, MAL Marques          : LibXC Library                           
  Liviu Ungur et al                             : ANISO software                          


 Your calculation uses the libint2 library for the computation of 2-el integrals
 For citations please refer to: http://libint.valeyev.net

 Your ORCA version has been built with support for libXC version: 6.2.2
 For citations please refer to: https://libxc.gitlab.io

 This ORCA versions uses:
   CBLAS   interface :  Fast vector & matrix operations
   LAPACKE interface :  Fast linear algebra routines
   SCALAPACK package :  Parallel linear algebra routines
   Shared memory     :  Shared parallel matrices
   BLAS/LAPACK       :  OpenBLAS 0.3.27  USE64BITINT DYNAMIC_ARCH NO_AFFINITY Zen SINGLE_THREADED
        Core in use  :  Zen
   Copyright (c) 2011-2014, The OpenBLAS Project


Your calculation utilizes the geometrical counterpoise correction gCP
Please cite in your paper:
H.Kruse, S. Grimme J.Chem.Phys., 136, (2012), 154101 
   

Your calculation utilizes the atom-pairwise dispersion correction
based on EEQ partial charges (D4)


================================================================================

----- Orbital basis set information -----
Your calculation utilizes the basis: def2-SV(P)
   F. Weigend and R. Ahlrichs, Phys. Chem. Chem. Phys. 7, 3297 (2005).

----- AuxJ basis set information -----
Your calculation utilizes the auxiliary basis: def2/J
   F. Weigend, Phys. Chem. Chem. Phys. 8, 1057 (2006).

================================================================================
                                        WARNINGS
                       Please study these warnings very carefully!
================================================================================


================================================================================
                                       INPUT FILE
================================================================================
NAME = sp.inp
|  1> ! pbe def2-sv(p) def2/J RI DEFGRID1 loosescf d4 GCP(DFT/SV(P)) printgap
|  2> %output
|  3>     printlevel normal
|  4> end
|  5> * xyz 0 1
|  6> C -1.7961776992 -1.0285492877 -0.6858267329
|  7> C -1.0339379858 -0.4403396743 0.5206533467
|  8> H -1.6988823088 -0.514056806 1.3912926658
|  9> C -0.6842116545 1.0540744274 0.3293367234
| 10> H -1.5058488032 1.535469535 -0.2203290121
| 11> C 0.6224526418 1.2499939021 -0.4715389333
| 12> H 0.943884948 2.2920873263 -0.326718629
| 13> C 1.7332010571 0.3445024685 0.0826225718
| 14> H 2.6028844707 0.4054589216 -0.5897892477
| 15> C 1.2473603716 -1.1180214566 0.1197866641
| 16> H 1.9719827513 -1.741442107 0.6639482824
| 17> O 0.0842598524 -1.2262012385 0.8983973086
| 18> O 1.1504375747 -1.6589516296 -1.1517890765
| 19> O 2.0514753522 0.8176600096 1.3707988801
| 20> O 0.4678428246 0.9591395979 -1.8459537822
| 21> O -0.6099854135 1.7336078667 1.5513864413
| 22> O -3.1767808922 -0.7765993527 -0.6117080512
| 23> H -1.6866481825 -2.1146733365 -0.6678797084
| 24> H -1.3887569027 -0.6487404863 -1.632745035
| 25> H 0.7785302213 -0.9985293682 -1.7554154809
| 26> H 2.646014227 0.1918278909 1.7997900981
| 27> H -0.0709136355 1.6448323725 -2.2555032099
| 28> H 0.1989475798 1.4458452467 2.0009829967
| 29> H -3.3281769517 0.1695687132 -0.5082685961
| 30> *
| 31> 
| 32>                          ****END OF INPUT****
================================================================================

                       ****************************
                       * Single Point Calculation *
                       ****************************

---------------------------------
CARTESIAN COORDINATES (ANGSTROEM)
---------------------------------
  C     -1.796178   -1.028549   -0.685827
  C     -1.033938   -0.440340    0.520653
  H     -1.698882   -0.514057    1.391293
  C     -0.684212    1.054074    0.329337
  H     -1.505849    1.535470   -0.220329
  C      0.622453    1.249994   -0.471539
  H      0.943885    2.292087   -0.326719
  C      1.733201    0.344502    0.082623
  H      2.602884    0.405459   -0.589789
  C      1.247360   -1.118021    0.119787
  H      1.971983   -1.741442    0.663948
  O      0.084260   -1.226201    0.898397
  O      1.150438   -1.658952   -1.151789
  O      2.051475    0.817660    1.370799
  O      0.467843    0.959140   -1.845954
  O     -0.609985    1.733608    1.551386
  O     -3.176781   -0.776599   -0.611708
  H     -1.686648   -2.114673   -0.667880
  H     -1.388757   -0.648740   -1.632745
  H      0.778530   -0.998529   -1.755415
  H      2.646014    0.191828    1.799790
  H     -0.070914    1.644832   -2.255503
  H      0.198948    1.445845    2.000983
  H     -3.328177    0.169569   -0.508269

----------------------------
CARTESIAN COORDINATES (A.U.)
----------------------------
  NO LB      ZA    FRAG     MASS         X           Y           Z
   0 C     6.0000    0    12.011   -3.394284   -1.943676   -1.296025
   1 C     6.0000    0    12.011   -1.953860   -0.832121    0.983892
   2 H     1.0000    0     1.008   -3.210422   -0.971427    2.629162
   3 C     6.0000    0    12.011   -1.292973    1.991912    0.622356
   4 H     1.0000    0     1.008   -2.845642    2.901617   -0.416361
   5 C     6.0000    0    12.011    1.176265    2.362146   -0.891079
   6 H     1.0000    0     1.008    1.783684    4.331417   -0.617409
   7 C     6.0000    0    12.011    3.275275    0.651015    0.156134
   8 H     1.0000    0     1.008    4.918739    0.766206   -1.114540
   9 C     6.0000    0    12.011    2.357169   -2.112754    0.226364
  10 H     1.0000    0     1.008    3.726507   -3.290849    1.254680
  11 O     8.0000    0    15.999    0.159228   -2.317185    1.697725
  12 O     8.0000    0    15.999    2.174012   -3.134964   -2.176566
  13 O     8.0000    0    15.999    3.876727    1.545153    2.590434
  14 O     8.0000    0    15.999    0.884095    1.812511   -3.488347
  15 O     8.0000    0    15.999   -1.152705    3.276044    2.931696
  16 O     8.0000    0    15.999   -6.003246   -1.467560   -1.155961
  17 H     1.0000    0     1.008   -3.187303   -3.996153   -1.262110
  18 H     1.0000    0     1.008   -2.624370   -1.225942   -3.085441
  19 H     1.0000    0     1.008    1.471209   -1.886947   -3.317255
  20 H     1.0000    0     1.008    5.000242    0.362502    3.401110
  21 H     1.0000    0     1.008   -0.134007    3.108283   -4.262283
  22 H     1.0000    0     1.008    0.375956    2.732252    3.781310
  23 H     1.0000    0     1.008   -6.289343    0.320438   -0.960488

--------------------------------
INTERNAL COORDINATES (ANGSTROEM)
--------------------------------
 C      0   0   0     0.000000000000     0.00000000     0.00000000
 C      1   0   0     1.543565389756     0.00000000     0.00000000
 H      2   1   0     1.097997264186   107.16552933     0.00000000
 C      2   1   3     1.546668699016   112.53044647   242.09912342
 H      4   2   1     1.099527750686   108.41495976    35.44575915
 C      4   2   1     1.545042990110   112.20170679   275.63638008
 H      6   4   2     1.100113790827   107.39649984   195.33237657
 C      6   4   2     1.536480312972   110.46883193   312.20493267
 H      8   6   4     1.101000719377   108.55021221   172.39359386
 C      8   6   4     1.541557190938   109.87523942    53.97166841
 H     10   8   6     1.099928528286   110.00034399   189.16968681
 O     10   8   6     1.403830551991   110.34051864   302.33722525
 O     10   8   6     1.385245229085   111.74001028    71.48132351
 O      8   6   4     1.408749369791   107.16884532   292.56986416
 O      6   4   2     1.413335274704   112.67267628    73.05853260
 O      4   2   1     1.400243101393   111.89659603   151.10750857
 O      1   2   3     1.405360283075   112.06004411    33.83320503
 H      1   2   3     1.091780316776   108.46398886   277.13341394
 H      1   2   3     1.098590324868   111.02814362   157.73969208
 H     13  10   8     0.968936261554   109.42395329   319.27468124
 H     14   8   6     0.963937642986   109.16168185   171.30102800
 H     15   6   4     0.963412600171   109.15358244    70.65021390
 H     16   4   2     0.969183664610   107.75886392    72.25740416
 H     17   1   2     0.963770977272   109.63237034    54.52312413

---------------------------
INTERNAL COORDINATES (A.U.)
---------------------------
 C      0   0   0     0.000000000000     0.00000000     0.00000000
 C      1   0   0     2.916915856438     0.00000000     0.00000000
 H      2   1   0     2.074914125105   107.16552933     0.00000000
 C      2   1   3     2.922780261048   112.53044647   242.09912342
 H      4   2   1     2.077806325442   108.41495976    35.44575915
 C      4   2   1     2.919708116442   112.20170679   275.63638008
 H      6   4   2     2.078913780813   107.39649984   195.33237657
 C      6   4   2     2.903527001678   110.46883193   312.20493267
 H      8   6   4     2.080589832873   108.55021221   172.39359386
 C      8   6   4     2.913120910650   109.87523942    53.97166841
 H     10   8   6     2.078563685348   110.00034399   189.16968681
 O     10   8   6     2.652855281695   110.34051864   302.33722525
 O     10   8   6     2.617734111292   111.74001028    71.48132351
 O      8   6   4     2.662150500239   107.16884532   292.56986416
 O      6   4   2     2.670816604601   112.67267628    73.05853260
 O      4   2   1     2.646075982546   111.89659603   151.10750857
 O      1   2   3     2.655746054502   112.06004411    33.83320503
 H      1   2   3     2.063165797112   108.46398886   277.13341394
 H      1   2   3     2.076034847376   111.02814362   157.73969208
 H     13  10   8     1.831024175563   109.42395329   319.27468124
 H     14   8   6     1.821578155422   109.16168185   171.30102800
 H     15   6   4     1.820585968291   109.15358244    70.65021390
 H     16   4   2     1.831491699582   107.75886392    72.25740416
 H     17   1   2     1.821263202866   109.63237034    54.52312413

---------------------
BASIS SET INFORMATION
---------------------
There are 3 groups of distinct atoms

 Group   1 Type C   : 7s4p1d contracted to 3s2p1d pattern {511/31/1}
 Group   2 Type H   : 4s contracted to 2s pattern {31}
 Group   3 Type O   : 7s4p1d contracted to 3s2p1d pattern {511/31/1}

Atom   0C    basis set group =>   1
Atom   1C    basis set group =>   1
Atom   2H    basis set group =>   2
Atom   3C    basis set group =>   1
Atom   4H    basis set group =>   2
Atom   5C    basis set group =>   1
Atom   6H    basis set group =>   2
Atom   7C    basis set group =>   1
Atom   8H    basis set group =>   2
Atom   9C    basis set group =>   1
Atom  10H    basis set group =>   2
Atom  11O    basis set group =>   3
Atom  12O    basis set group =>   3
Atom  13O    basis set group =>   3
Atom  14O    basis set group =>   3
Atom  15O    basis set group =>   3
Atom  16O    basis set group =>   3
Atom  17H    basis set group =>   2
Atom  18H    basis set group =>   2
Atom  19H    basis set group =>   2
Atom  20H    basis set group =>   2
Atom  21H    basis set group =>   2
Atom  22H    basis set group =>   2
Atom  23H    basis set group =>   2
---------------------------------
AUXILIARY/J BASIS SET INFORMATION
---------------------------------
There are 3 groups of distinct atoms

 Group   1 Type C   : 12s5p4d2f1g contracted to 6s4p3d1f1g pattern {711111/2111/211/2/1}
 Group   2 Type H   : 5s2p1d contracted to 3s1p1d pattern {311/2/1}
 Group   3 Type O   : 12s5p4d2f1g contracted to 6s4p3d1f1g pattern {711111/2111/211/2/1}

Atom   0C    basis set group =>   1
Atom   1C    basis set group =>   1
Atom   2H    basis set group =>   2
Atom   3C    basis set group =>   1
Atom   4H    basis set group =>   2
Atom   5C    basis set group =>   1
Atom   6H    basis set group =>   2
Atom   7C    basis set group =>   1
Atom   8H    basis set group =>   2
Atom   9C    basis set group =>   1
Atom  10H    basis set group =>   2
Atom  11O    basis set group =>   3
Atom  12O    basis set group =>   3
Atom  13O    basis set group =>   3
Atom  14O    basis set group =>   3
Atom  15O    basis set group =>   3
Atom  16O    basis set group =>   3
Atom  17H    basis set group =>   2
Atom  18H    basis set group =>   2
Atom  19H    basis set group =>   2
Atom  20H    basis set group =>   2
Atom  21H    basis set group =>   2
Atom  22H    basis set group =>   2
Atom  23H    basis set group =>   2
------------------------------------------------------------------------------
                             ORCA STARTUP CALCULATIONS
                           -- RI-GTO INTEGRALS CHOSEN --
------------------------------------------------------------------------------
------------------------------------------------------------------------------
                   ___                                                        
                  /   \      - P O W E R E D   B Y -                         
                 /     \                                                     
                 |  |  |   _    _      __       _____    __    __             
                 |  |  |  | |  | |    /  \     |  _  \  |  |  /  |          
                  \  \/   | |  | |   /    \    | | | |  |  | /  /          
                 / \  \   | |__| |  /  /\  \   | |_| |  |  |/  /          
                |  |  |   |  __  | /  /__\  \  |    /   |      \           
                |  |  |   | |  | | |   __   |  |    \   |  |\   \          
                \     /   | |  | | |  |  |  |  | |\  \  |  | \   \       
                 \___/    |_|  |_| |__|  |__|  |_| \__\ |__|  \__/        
                                                                              
                      - O R C A' S   B I G   F R I E N D -                    
                                      &                                       
                       - I N T E G R A L  F E E D E R -                       
                                                                              
 v1 FN, 2020, v2 2021, v3 2022-2024                                           
------------------------------------------------------------------------------


----------------------
SHARK INTEGRAL PACKAGE
----------------------

Number of atoms                             ...     24
Number of basis functions                   ...    192
Number of shells                            ...     96
Maximum angular momentum                    ...      2
Integral batch strategy                     ... SHARK/LIBINT Hybrid
RI-J (if used) integral strategy            ... SPLIT-RIJ (Revised 2003 algorithm where possible)
Printlevel                                  ...      1
Contraction scheme used                     ... SEGMENTED contraction
Prescreening option                         ... SCHWARTZ
   Thresh                                   ... 1.000e-09
   Tcut                                     ... 1.000e-10
   Tpresel                                  ... 1.000e-10 
Coulomb Range Separation                    ... NOT USED
Exchange Range Separation                   ... NOT USED
Multipole approximations                    ... NOT USED
Finite Nucleus Model                        ... NOT USED
CABS basis                                  ... NOT available
Auxiliary Coulomb fitting basis             ... AVAILABLE
   # of basis functions in Aux-J            ...    720
   # of shells in Aux-J                     ...    240
   Maximum angular momentum in Aux-J        ...      4
Auxiliary J/K fitting basis                 ... NOT available
Auxiliary Correlation fitting basis         ... NOT available
Auxiliary 'external' fitting basis          ... NOT available

Checking pre-screening integrals            ... done (  0.0 sec) Dimension = 96
Check shell pair data                       ... done (  0.0 sec)
Shell pair information
Shell pair cut-off parameter TPreSel        ...   1.0e-10
Total number of shell pairs                 ...      4656
Shell pairs after pre-screening             ...      4286
Total number of primitive shell pairs       ...     18720
Primitive shell pairs kept                  ...     11656
          la=0 lb=0:   1667 shell pairs
          la=1 lb=0:   1357 shell pairs
          la=1 lb=1:    291 shell pairs
          la=2 lb=0:    632 shell pairs
          la=2 lb=1:    270 shell pairs
          la=2 lb=2:     69 shell pairs

Calculating one electron integrals          ... done (  0.0 sec)
Calculating RI/J V-Matrix + Cholesky decomp.... done (  0.0 sec)
Calculating Nuclear repulsion               ... done (  0.0 sec) ENN=    859.867123646418 Eh

Diagonalization of the overlap matrix:
Smallest eigenvalue                        ... 8.102e-04
Time for diagonalization                   ...    0.003 sec
Threshold for overlap eigenvalues          ... 1.000e-07
Number of eigenvalues below threshold      ... 0
Time for construction of square roots      ...    0.004 sec
Total time needed                          ...    0.009 sec

-------------------
DFT GRID GENERATION
-------------------

General Integration Accuracy     IntAcc      ... 4.159
Radial Grid Type                 RadialGrid  ... OptM3 with GC (2021)
Angular Grid (max. ang.)         AngularGrid ... 3 (Lebedev-194)
Angular grid pruning method      GridPruning ... 4 (adaptive)
Weight generation scheme         WeightScheme... mBecke (2022)
Basis function cutoff            BFCut       ... 1.0000e-10
Integration weight cutoff        WCut        ... 1.0000e-14
Partially contracted basis set               ... off
Rotationally invariant grid construction     ... off
Angular grids for H and He will be reduced by one unit

Total number of grid points                  ...    55573
Total number of batches                      ...      881
Average number of points per batch           ...       63
Average number of grid points per atom       ...     2316
Initializing property integral containers    ... done (  0.0 sec)

SHARK setup successfully completed in   0.6 seconds

Maximum memory used throughout the entire STARTUP-calculation: 28.9 MB
-------------------------------------------------------------------------------
                                 ORCA GUESS
                   Start orbitals & Density for SCF / CASSCF
-------------------------------------------------------------------------------

------------
SCF SETTINGS
------------
Hamiltonian:
 Density Functional     Method          .... DFT(GTOs)
 Exchange Functional    Exchange        .... PBE
   PBE kappa parameter   XKappa         ....  0.804000
   PBE mue parameter    XMuePBE         ....  0.219520
 Correlation Functional Correlation     .... PBE
   PBE beta parameter  CBetaPBE         ....  0.066725
 LDA part of GGA corr.  LDAOpt          .... PW91-LDA
 Gradients option       PostSCFGGA      .... off
   NL short-range parameter             ....  6.400000
 RI-approximation to the Coulomb term is turned on
   Number of AuxJ basis functions       .... 720


General Settings:
 Integral files         IntName         .... sp
 Hartree-Fock type      HFTyp           .... RHF
 Total Charge           Charge          ....    0
 Multiplicity           Mult            ....    1
 Number of Electrons    NEL             ....   96
 Basis Dimension        Dim             ....  192
 Nuclear Repulsion      ENuc            ....    859.8671236464 Eh

Convergence Acceleration:
 AO-DIIS                CNVDIIS         .... on
   Start iteration      DIISMaxIt       ....    12
   Startup error        DIISStart       ....  0.200000
   # of expansion vecs  DIISMaxEq       ....     5
   Bias factor          DIISBfac        ....   1.050
   Max. coefficient     DIISMaxC        ....  10.000
 MO-DIIS                CNVKDIIS        .... off
 Trust-Rad. Augm. Hess. CNVTRAH         .... auto
   Auto Start mean grad. ratio tolernc. ....  1.125000
   Auto Start start iteration           ....    50
   Auto Start num. interpolation iter.  ....    10
   Max. Number of Micro iterations      ....    24
   Max. Number of Macro iterations      .... Maxiter - #DIIS iter
   Number of Davidson start vectors     ....     2
   Converg. threshold    (grad. norm)   ....   1.000e-04
   Grad. Scal. Fac. for Micro threshold ....   0.100
   Minimum threshold for Micro iter.    ....   1.000e-02
   NR start threshold (gradient norm)   ....   1.000e-04
   Initial trust radius                 ....   0.400
   Minimum AH scaling param. (alpha)    ....   1.000
   Maximum AH scaling param. (alpha)    .... 1000.000
   Quad. conv. algorithm                .... NR
   White noise on init. David. guess    .... on
   Maximum white noise                  ....   0.010
   Pseudo random numbers                .... off
   Inactive MOs                         .... canonical
   Orbital update algorithm             .... Taylor
   Preconditioner                       .... Diag
   Full preconditioner red. dimension   ....   250
 SOSCF                  CNVSOSCF        .... on
   Start iteration      SOSCFMaxIt      ....   150
   Startup grad/error   SOSCFStart      ....  0.003300
   Hessian update       SOSCFHessUp     .... L-BFGS
 Level Shifting         CNVShift        .... on
   Level shift para.    LevelShift      ....    0.2500
   Turn off err/grad.   ShiftErr        ....    0.0010
 Zerner damping         CNVZerner       .... off
 Static damping         CNVDamp         .... on
   Fraction old density DampFac         ....    0.7000
   Max. Damping (<1)    DampMax         ....    0.9800
   Min. Damping (>=0)   DampMin         ....    0.0000
   Turn off err/grad.   DampErr         ....    0.1000

SCF Procedure:
 Maximum # iterations   MaxIter         ....   125
 SCF integral mode      SCFMode         .... Direct
   Integral package                     .... SHARK and LIBINT hybrid scheme
 Reset frequency        DirectResetFreq ....    20
 Integral Threshold     Thresh          ....  1.000e-09 Eh
 Primitive CutOff       TCut            ....  1.000e-10 Eh

Convergence Tolerance:
 Convergence Check Mode ConvCheckMode   .... Total+1el-Energy
 Convergence forced     ConvForced      .... 0
 Energy Change          TolE            ....  1.000e-05 Eh
 1-El. energy change                    ....  1.000e-02 Eh
 Orbital Gradient       TolG            ....  1.000e-04
 Orbital Rotation angle TolX            ....  1.000e-04
 DIIS Error             TolErr          ....  5.000e-04

------------------------------
INITIAL GUESS: MODEL POTENTIAL
------------------------------
Loading Hartree-Fock densities                     ... done
Calculating cut-offs                               ... done
Initializing the effective Hamiltonian             ... done
Setting up the integral package (SHARK)            ... done
Starting the Coulomb interaction                   ... done (   0.2 sec)
Making the grid                                    ... done (   0.2 sec)
Mapping shells                                     ... done
Starting the XC term evaluation                    ... done (   0.2 sec)
  promolecular density results
     # of electrons  =     95.996661240
     EX              =    -83.244813301
     EC              =     -3.277019777
     EX+EC           =    -86.521833077
Transforming the Hamiltonian                       ... done (   0.0 sec)
Diagonalizing the Hamiltonian                      ... done (   0.0 sec)
Back transforming the eigenvectors                 ... done (   0.0 sec)
Now organizing SCF variables                       ... done
                      ------------------
                      INITIAL GUESS DONE (   0.6 sec)
                      ------------------
             **** ENERGY FILE WAS UPDATED (sp.en.tmp) ****
Finished Guess after   0.7 sec
Maximum memory used throughout the entire GUESS-calculation: 22.7 MB

-------------------------------------------------------------------------------------------
                                      ORCA LEAN-SCF
                              memory conserving SCF solver
-------------------------------------------------------------------------------------------

----------------------------------------D-I-I-S--------------------------------------------
Iteration    Energy (Eh)           Delta-E    RMSDP     MaxDP     DIISErr   Damp  Time(sec)
-------------------------------------------------------------------------------------------
               ***  Starting incremental Fock matrix formation  ***
    1    -685.5297995996453437     0.00e+00  4.42e-03  1.09e-01  2.44e-01  0.700   0.8
    2    -685.6763669279865780    -1.47e-01  2.85e-03  7.53e-02  9.64e-02  0.700   0.8
                               ***Turning on AO-DIIS***
    3    -685.7232032396469776    -4.68e-02  1.06e-03  2.22e-02  1.69e-02  0.700   0.8
    4    -685.7543024005973393    -3.11e-02  1.45e-03  2.28e-02  9.86e-03  0.000   0.7
    5    -685.8259227308634536    -7.16e-02  4.20e-04  1.33e-02  4.75e-03  0.000   0.7
                              *** Initializing SOSCF ***
---------------------------------------S-O-S-C-F--------------------------------------
Iteration    Energy (Eh)           Delta-E    RMSDP     MaxDP     MaxGrad    Time(sec)
--------------------------------------------------------------------------------------
    6    -685.8262217287750673    -2.99e-04  1.28e-04  2.36e-03  9.81e-04     0.7
               *** Restarting incremental Fock matrix formation ***
    7    -685.8262484986813661    -2.68e-05  8.86e-05  1.90e-03  1.62e-04     0.8
    8    -685.8262486347051663    -1.36e-07  3.50e-05  7.18e-04  1.96e-04     0.7
                 **** Energy Check signals convergence ****

               *****************************************************
               *                     SUCCESS                       *
               *           SCF CONVERGED AFTER   8 CYCLES          *
               *****************************************************

             **** ENERGY FILE WAS UPDATED (sp.en.tmp) ****

----------------
TOTAL SCF ENERGY
----------------

Total Energy       :       -685.82624863470517 Eh          -18662.28100 eV

Components:
Nuclear Repulsion  :        859.86712364641846 Eh           23398.17397 eV
Electronic Energy  :      -1545.69337228112363 Eh          -42060.45497 eV
One Electron Energy:      -2648.33113343900504 Eh          -72064.75384 eV
Two Electron Energy:       1102.63776115788141 Eh           30004.29887 eV

Virial components:
Potential Energy   :      -1366.93043691687217 Eh          -37196.06820 eV
Kinetic Energy     :        681.10418828216712 Eh           18533.78720 eV
Virial Ratio       :          2.00693294863514

DFT components:
N(Alpha)           :       48.000125308490 electrons
N(Beta)            :       48.000125308490 electrons
N(Total)           :       96.000250616980 electrons
E(X)               :      -84.607503324101 Eh       
E(C)               :       -3.286440860611 Eh       
E(XC)              :      -87.893944184712 Eh       

---------------
SCF CONVERGENCE
---------------

  Last Energy change         ...    1.3602e-07  Tolerance :   1.0000e-05
  Last MAX-Density change    ...    7.1795e-04  Tolerance :   1.0000e-03
  Last RMS-Density change    ...    3.5027e-05  Tolerance :   1.0000e-04
  Last DIIS Error            ...    9.8128e-04  Tolerance :   5.0000e-04
  Last Orbital Gradient      ...    1.9580e-04  Tolerance :   1.0000e-04
  Last Orbital Rotation      ...    1.4467e-04  Tolerance :   1.0000e-04


----------------
ORBITAL ENERGIES
----------------

  NO   OCC          E(Eh)            E(eV) 
   0   2.0000     -18.793786      -511.4049 
   1   2.0000     -18.784674      -511.1570 
   2   2.0000     -18.763427      -510.5788 
   3   2.0000     -18.755865      -510.3730 
   4   2.0000     -18.746762      -510.1253 
   5   2.0000     -18.743902      -510.0475 
   6   2.0000      -9.988847      -271.8103 
   7   2.0000      -9.964497      -271.1477 
   8   2.0000      -9.959509      -271.0120 
   9   2.0000      -9.952266      -270.8149 
  10   2.0000      -9.939328      -270.4629 
  11   2.0000      -9.926004      -270.1003 
  12   2.0000      -0.987015       -26.8580 
  13   2.0000      -0.963054       -26.2060 
  14   2.0000      -0.954586       -25.9756 
  15   2.0000      -0.930198       -25.3120 
  16   2.0000      -0.923368       -25.1261 
  17   2.0000      -0.909445       -24.7472 
  18   2.0000      -0.711132       -19.3509 
  19   2.0000      -0.695705       -18.9311 
  20   2.0000      -0.614714       -16.7272 
  21   2.0000      -0.606857       -16.5134 
  22   2.0000      -0.574221       -15.6254 
  23   2.0000      -0.538529       -14.6541 
  24   2.0000      -0.518893       -14.1198 
  25   2.0000      -0.499889       -13.6027 
  26   2.0000      -0.476898       -12.9771 
  27   2.0000      -0.461998       -12.5716 
  28   2.0000      -0.453404       -12.3377 
  29   2.0000      -0.434681       -11.8283 
  30   2.0000      -0.421348       -11.4655 
  31   2.0000      -0.411232       -11.1902 
  32   2.0000      -0.391927       -10.6649 
  33   2.0000      -0.381192       -10.3728 
  34   2.0000      -0.363447        -9.8899 
  35   2.0000      -0.349046        -9.4980 
  36   2.0000      -0.343978        -9.3601 
  37   2.0000      -0.337486        -9.1835 
  38   2.0000      -0.319054        -8.6819 
  39   2.0000      -0.294028        -8.0009 
  40   2.0000      -0.285472        -7.7681 
  41   2.0000      -0.276310        -7.5188 
  42   2.0000      -0.263745        -7.1769 
  43   2.0000      -0.251837        -6.8528 
  44   2.0000      -0.242513        -6.5991 
  45   2.0000      -0.232596        -6.3293 
  46   2.0000      -0.216335        -5.8868 
  47   2.0000      -0.199334        -5.4242 
  48   0.0000      -0.010952        -0.2980 
  49   0.0000       0.007460         0.2030 
  50   0.0000       0.021283         0.5791 
  51   0.0000       0.060950         1.6585 
  52   0.0000       0.064519         1.7557 
  53   0.0000       0.076406         2.0791 
  54   0.0000       0.079212         2.1555 
  55   0.0000       0.085545         2.3278 
  56   0.0000       0.095908         2.6098 
  57   0.0000       0.106480         2.8975 
  58   0.0000       0.111190         3.0256 
*Only the first 10 virtual orbitals were printed.

                    ********************************
                    * MULLIKEN POPULATION ANALYSIS *
                    ********************************

-----------------------
MULLIKEN ATOMIC CHARGES
-----------------------
   0 C :    0.026101
   1 C :    0.022536
   2 H :    0.082978
   3 C :    0.065256
   4 H :    0.036794
   5 C :   -0.001754
   6 H :    0.090611
   7 C :    0.022211
   8 H :    0.088127
   9 C :    0.180737
  10 H :    0.060557
  11 O :   -0.297164
  12 O :   -0.398728
  13 O :   -0.418659
  14 O :   -0.415240
  15 O :   -0.423629
  16 O :   -0.430109
  17 H :    0.100718
  18 H :    0.055949
  19 H :    0.318052
  20 H :    0.314336
  21 H :    0.320120
  22 H :    0.304766
  23 H :    0.295433
Sum of atomic charges:    0.0000000

--------------------------------
MULLIKEN REDUCED ORBITAL CHARGES
--------------------------------
  0 C s       :     3.042113  s :     3.042113
      pz      :     1.014668  p :     2.869245
      px      :     0.759570
      py      :     1.095007
      dz2     :     0.011702  d :     0.062541
      dxz     :     0.018270
      dyz     :     0.003869
      dx2y2   :     0.018423
      dxy     :     0.010278

  1 C s       :     3.076910  s :     3.076910
      pz      :     1.035717  p :     2.835334
      px      :     0.866079
      py      :     0.933539
      dz2     :     0.010236  d :     0.065220
      dxz     :     0.016853
      dyz     :     0.007447
      dx2y2   :     0.015025
      dxy     :     0.015658

  2 H s       :     0.917022  s :     0.917022

  3 C s       :     3.031041  s :     3.031041
      pz      :     0.839636  p :     2.834366
      px      :     1.028340
      py      :     0.966389
      dz2     :     0.015617  d :     0.069337
      dxz     :     0.016296
      dyz     :     0.017359
      dx2y2   :     0.010955
      dxy     :     0.009110

  4 H s       :     0.963206  s :     0.963206

  5 C s       :     3.081191  s :     3.081191
      pz      :     0.736285  p :     2.854872
      px      :     1.050667
      py      :     1.067919
      dz2     :     0.020287  d :     0.065692
      dxz     :     0.015845
      dyz     :     0.011537
      dx2y2   :     0.010171
      dxy     :     0.007851

  6 H s       :     0.909389  s :     0.909389

  7 C s       :     3.067510  s :     3.067510
      pz      :     0.792547  p :     2.844125
      px      :     1.026937
      py      :     1.024641
      dz2     :     0.016774  d :     0.066154
      dxz     :     0.017402
      dyz     :     0.013137
      dx2y2   :     0.010379
      dxy     :     0.008461

  8 H s       :     0.911873  s :     0.911873

  9 C s       :     3.013647  s :     3.013647
      pz      :     0.829422  p :     2.702461
      px      :     0.887296
      py      :     0.985743
      dz2     :     0.024381  d :     0.103155
      dxz     :     0.029272
      dyz     :     0.019233
      dx2y2   :     0.013900
      dxy     :     0.016369

 10 H s       :     0.939443  s :     0.939443

 11 O s       :     3.743799  s :     3.743799
      pz      :     1.643000  p :     4.537947
      px      :     1.230685
      py      :     1.664261
      dz2     :     0.002189  d :     0.015419
      dxz     :     0.004676
      dyz     :     0.002275
      dx2y2   :     0.002599
      dxy     :     0.003680

 12 O s       :     3.762442  s :     3.762442
      pz      :     1.244386  p :     4.620602
      px      :     1.776720
      py      :     1.599497
      dz2     :     0.001883  d :     0.015684
      dxz     :     0.001959
      dyz     :     0.006778
      dx2y2   :     0.002140
      dxy     :     0.002924

 13 O s       :     3.781258  s :     3.781258
      pz      :     1.338739  p :     4.622298
      px      :     1.661161
      py      :     1.622398
      dz2     :     0.002842  d :     0.015104
      dxz     :     0.002162
      dyz     :     0.004509
      dx2y2   :     0.001174
      dxy     :     0.004417

 14 O s       :     3.780312  s :     3.780312
      pz      :     1.313749  p :     4.620098
      px      :     1.717985
      py      :     1.588364
      dz2     :     0.003553  d :     0.014830
      dxz     :     0.002203
      dyz     :     0.003884
      dx2y2   :     0.001078
      dxy     :     0.004112

 15 O s       :     3.782052  s :     3.782052
      pz      :     1.352059  p :     4.625998
      px      :     1.548835
      py      :     1.725104
      dz2     :     0.002547  d :     0.015580
      dxz     :     0.003495
      dyz     :     0.003630
      dx2y2   :     0.003078
      dxy     :     0.002829

 16 O s       :     3.782116  s :     3.782116
      pz      :     1.899909  p :     4.632140
      px      :     1.382896
      py      :     1.349336
      dz2     :     0.002819  d :     0.015853
      dxz     :     0.001968
      dyz     :     0.000753
      dx2y2   :     0.008497
      dxy     :     0.001815

 17 H s       :     0.899282  s :     0.899282

 18 H s       :     0.944051  s :     0.944051

 19 H s       :     0.681948  s :     0.681948

 20 H s       :     0.685664  s :     0.685664

 21 H s       :     0.679880  s :     0.679880

 22 H s       :     0.695234  s :     0.695234

 23 H s       :     0.704567  s :     0.704567


------------------------
MULLIKEN OVERLAP CHARGES
------------------------
B(  0-C ,  1-C ) :   0.5841 B(  0-C ,  2-H ) :  -0.0644 B(  0-C ,  3-C ) :  -0.0650 
B(  0-C , 11-O ) :  -0.1118 B(  0-C , 16-O ) :   0.6441 B(  0-C , 17-H ) :   0.6245 
B(  0-C , 18-H ) :   0.6557 B(  0-C , 23-H ) :  -0.1047 B(  1-C ,  2-H ) :   0.6435 
B(  1-C ,  3-C ) :   0.4558 B(  1-C ,  4-H ) :  -0.1090 B(  1-C ,  7-C ) :  -0.1323 
B(  1-C ,  9-C ) :  -0.0862 B(  1-C , 11-O ) :   0.5706 B(  1-C , 15-O ) :  -0.0916 
B(  1-C , 16-O ) :  -0.0888 B(  1-C , 18-H ) :  -0.0739 B(  2-H ,  3-C ) :  -0.0704 
B(  3-C ,  4-H ) :   0.6020 B(  3-C ,  5-C ) :   0.3495 B(  3-C ,  6-H ) :  -0.1261 
B(  3-C ,  7-C ) :   0.0506 B(  3-C ,  9-C ) :  -0.1453 B(  3-C , 11-O ) :  -0.0543 
B(  3-C , 14-O ) :  -0.0922 B(  3-C , 15-O ) :   0.5846 B(  3-C , 22-H ) :  -0.1051 
B(  4-H ,  5-C ) :  -0.0573 B(  4-H , 15-O ) :  -0.0545 B(  5-C ,  6-H ) :   0.7211 
B(  5-C ,  7-C ) :   0.2247 B(  5-C ,  8-H ) :  -0.1021 B(  5-C , 11-O ) :  -0.0684 
B(  5-C , 13-O ) :  -0.1101 B(  5-C , 14-O ) :   0.4868 B(  5-C , 15-O ) :  -0.0589 
B(  5-C , 21-H ) :  -0.0654 B(  6-H ,  7-C ) :  -0.0816 B(  7-C ,  8-H ) :   0.6831 
B(  7-C ,  9-C ) :   0.6114 B(  7-C , 10-H ) :  -0.1083 B(  7-C , 11-O ) :  -0.0505 
B(  7-C , 12-O ) :  -0.0703 B(  7-C , 13-O ) :   0.5198 B(  7-C , 14-O ) :  -0.0849 
B(  7-C , 20-H ) :  -0.0912 B(  8-H ,  9-C ) :  -0.0803 B(  9-C , 10-H ) :   0.7152 
B(  9-C , 11-O ) :   0.6315 B(  9-C , 12-O ) :   0.6948 B(  9-C , 13-O ) :  -0.0514 
B(  9-C , 19-H ) :  -0.0973 B( 10-H , 11-O ) :  -0.0809 B( 10-H , 12-O ) :  -0.0623 
B( 11-O , 12-O ) :  -0.1282 B( 12-O , 19-H ) :   0.5458 B( 13-O , 20-H ) :   0.5332 
B( 13-O , 22-H ) :   0.0948 B( 14-O , 18-H ) :   0.0529 B( 14-O , 19-H ) :   0.0851 
B( 14-O , 21-H ) :   0.5290 B( 15-O , 22-H ) :   0.5565 B( 16-O , 18-H ) :  -0.0564 
B( 16-O , 23-H ) :   0.5387 B( 17-H , 18-H ) :  -0.0745 


                     *******************************
                     * LOEWDIN POPULATION ANALYSIS *
                     *******************************

----------------------
LOEWDIN ATOMIC CHARGES
----------------------
   0 C :   -0.146678
   1 C :   -0.080141
   2 H :    0.122752
   3 C :   -0.076982
   4 H :    0.098821
   5 C :   -0.072101
   6 H :    0.113685
   7 C :   -0.086715
   8 H :    0.111510
   9 C :   -0.014139
  10 H :    0.102443
  11 O :   -0.138573
  12 O :   -0.301116
  13 O :   -0.304342
  14 O :   -0.307986
  15 O :   -0.318474
  16 O :   -0.330576
  17 H :    0.122277
  18 H :    0.086703
  19 H :    0.274045
  20 H :    0.294374
  21 H :    0.298371
  22 H :    0.275285
  23 H :    0.277557

-------------------------------
LOEWDIN REDUCED ORBITAL CHARGES
-------------------------------
  0 C s       :     2.927288  s :     2.927288
      pz      :     1.087089  p :     3.077084
      px      :     0.870685
      py      :     1.119310
      dz2     :     0.026711  d :     0.142306
      dxz     :     0.043935
      dyz     :     0.009561
      dx2y2   :     0.042197
      dxy     :     0.019903

  1 C s       :     2.906784  s :     2.906784
      pz      :     1.089807  p :     3.020906
      px      :     0.928961
      py      :     1.002138
      dz2     :     0.023975  d :     0.152451
      dxz     :     0.041609
      dyz     :     0.016237
      dx2y2   :     0.035341
      dxy     :     0.035289

  2 H s       :     0.877248  s :     0.877248

  3 C s       :     2.891736  s :     2.891736
      pz      :     0.925670  p :     3.024722
      px      :     1.065473
      py      :     1.033579
      dz2     :     0.035097  d :     0.160523
      dxz     :     0.038746
      dyz     :     0.037536
      dx2y2   :     0.029928
      dxy     :     0.019216

  4 H s       :     0.901179  s :     0.901179

  5 C s       :     2.898501  s :     2.898501
      pz      :     0.852648  p :     3.018943
      px      :     1.075340
      py      :     1.090955
      dz2     :     0.046558  d :     0.154657
      dxz     :     0.039364
      dyz     :     0.024868
      dx2y2   :     0.024263
      dxy     :     0.019606

  6 H s       :     0.886315  s :     0.886315

  7 C s       :     2.900283  s :     2.900283
      pz      :     0.899538  p :     3.030701
      px      :     1.065259
      py      :     1.065904
      dz2     :     0.040620  d :     0.155731
      dxz     :     0.040147
      dyz     :     0.028480
      dx2y2   :     0.024313
      dxy     :     0.022170

  8 H s       :     0.888490  s :     0.888490

  9 C s       :     2.879494  s :     2.879494
      pz      :     0.910569  p :     2.902405
      px      :     0.942197
      py      :     1.049638
      dz2     :     0.056097  d :     0.232241
      dxz     :     0.066277
      dyz     :     0.040726
      dx2y2   :     0.033072
      dxy     :     0.036068

 10 H s       :     0.897557  s :     0.897557

 11 O s       :     3.467916  s :     3.467916
      pz      :     1.664702  p :     4.640450
      px      :     1.296449
      py      :     1.679299
      dz2     :     0.003562  d :     0.030207
      dxz     :     0.010012
      dyz     :     0.002934
      dx2y2   :     0.005991
      dxy     :     0.007707

 12 O s       :     3.521788  s :     3.521788
      pz      :     1.324544  p :     4.751703
      px      :     1.786487
      py      :     1.640672
      dz2     :     0.004916  d :     0.027626
      dxz     :     0.003553
      dyz     :     0.012777
      dx2y2   :     0.002487
      dxy     :     0.003893

 13 O s       :     3.526881  s :     3.526881
      pz      :     1.409251  p :     4.750720
      px      :     1.679354
      py      :     1.662115
      dz2     :     0.005894  d :     0.026741
      dxz     :     0.004343
      dyz     :     0.008259
      dx2y2   :     0.001371
      dxy     :     0.006874

 14 O s       :     3.526058  s :     3.526058
      pz      :     1.376953  p :     4.755677
      px      :     1.741992
      py      :     1.636732
      dz2     :     0.007592  d :     0.026251
      dxz     :     0.004129
      dyz     :     0.006977
      dx2y2   :     0.001257
      dxy     :     0.006296

 15 O s       :     3.526690  s :     3.526690
      pz      :     1.418907  p :     4.764581
      px      :     1.594417
      py      :     1.751257
      dz2     :     0.005315  d :     0.027203
      dxz     :     0.006253
      dyz     :     0.007032
      dx2y2   :     0.004739
      dxy     :     0.003864

 16 O s       :     3.537316  s :     3.537316
      pz      :     1.897319  p :     4.765699
      px      :     1.446884
      py      :     1.421496
      dz2     :     0.004375  d :     0.027561
      dxz     :     0.002960
      dyz     :     0.001033
      dx2y2   :     0.015799
      dxy     :     0.003395

 17 H s       :     0.877723  s :     0.877723

 18 H s       :     0.913297  s :     0.913297

 19 H s       :     0.725955  s :     0.725955

 20 H s       :     0.705626  s :     0.705626

 21 H s       :     0.701629  s :     0.701629

 22 H s       :     0.724715  s :     0.724715

 23 H s       :     0.722443  s :     0.722443


---------------------------------
LOEWDIN BOND ORDERS (THRESH 0.050000)
---------------------------------
B(  0-C ,  1-C ) :   1.0498 B(  0-C ,  3-C ) :   0.0593 B(  0-C , 11-O ) :   0.0668 
B(  0-C , 16-O ) :   1.2396 B(  0-C , 17-H ) :   0.9052 B(  0-C , 18-H ) :   0.8997 
B(  1-C ,  2-H ) :   0.8699 B(  1-C ,  3-C ) :   1.0192 B(  1-C ,  5-C ) :   0.0517 
B(  1-C ,  9-C ) :   0.0620 B(  1-C , 11-O ) :   1.1433 B(  1-C , 15-O ) :   0.0792 
B(  1-C , 16-O ) :   0.0839 B(  3-C ,  4-H ) :   0.8681 B(  3-C ,  5-C ) :   1.0138 
B(  3-C ,  7-C ) :   0.0506 B(  3-C , 11-O ) :   0.0561 B(  3-C , 14-O ) :   0.0736 
B(  3-C , 15-O ) :   1.2399 B(  5-C ,  6-H ) :   0.8705 B(  5-C ,  7-C ) :   1.0238 
B(  5-C ,  9-C ) :   0.0526 B(  5-C , 13-O ) :   0.0601 B(  5-C , 14-O ) :   1.1909 
B(  5-C , 15-O ) :   0.0843 B(  7-C ,  8-H ) :   0.8700 B(  7-C ,  9-C ) :   1.0155 
B(  7-C , 11-O ) :   0.0658 B(  7-C , 12-O ) :   0.0800 B(  7-C , 13-O ) :   1.2021 
B(  7-C , 14-O ) :   0.0581 B(  9-C , 10-H ) :   0.8813 B(  9-C , 11-O ) :   1.1974 
B(  9-C , 12-O ) :   1.2979 B(  9-C , 13-O ) :   0.0768 B( 11-O , 12-O ) :   0.0936 
B( 12-O , 19-H ) :   0.8467 B( 13-O , 20-H ) :   0.8750 B( 13-O , 22-H ) :   0.0761 
B( 14-O , 19-H ) :   0.0731 B( 14-O , 21-H ) :   0.8748 B( 15-O , 22-H ) :   0.8549 
B( 16-O , 23-H ) :   0.8893 

------------------------------------------
LOEWDIN REDUCED ORBITAL POPULATIONS PER MO
-------------------------------------------
THRESHOLD FOR PRINTING IS 0.1%%
                      0         1         2         3         4         5   
                 -18.79379 -18.78467 -18.76343 -18.75586 -18.74676 -18.74390
                   2.00000   2.00000   2.00000   2.00000   2.00000   2.00000
                  --------  --------  --------  --------  --------  --------
11 O  s               0.0       0.0      99.9       0.0       0.0       0.0
12 O  s               0.0       0.0       0.0      99.9       0.0       0.0
13 O  s               0.0      99.9       0.0       0.0       0.0       0.0
14 O  s              99.9       0.0       0.0       0.0       0.0       0.0
15 O  s               0.0       0.0       0.0       0.0       0.0      99.9
16 O  s               0.0       0.0       0.0       0.0      99.9       0.0

                      6         7         8         9        10        11   
                  -9.98885  -9.96450  -9.95951  -9.95227  -9.93933  -9.92600
                   2.00000   2.00000   2.00000   2.00000   2.00000   2.00000
                  --------  --------  --------  --------  --------  --------
 0 C  s               0.0       0.0       0.0       0.0       0.0      99.6
 1 C  s               0.0       0.0       0.0       0.0      99.6       0.0
 3 C  s               0.0       0.0       0.0      99.6       0.0       0.0
 5 C  s               0.0      99.6       0.0       0.0       0.0       0.0
 7 C  s               0.0       0.0      99.6       0.0       0.0       0.0
 9 C  s              99.6       0.0       0.0       0.0       0.0       0.0
12 O  pz              0.1       0.0       0.0       0.0       0.0       0.0
14 O  pz              0.0       0.1       0.0       0.0       0.0       0.0
16 O  px              0.0       0.0       0.0       0.0       0.0       0.1

                     12        13        14        15        16        17   
                  -0.98701  -0.96305  -0.95459  -0.93020  -0.92337  -0.90944
                   2.00000   2.00000   2.00000   2.00000   2.00000   2.00000
                  --------  --------  --------  --------  --------  --------
 0 C  s               0.3       0.1       0.1       2.3       7.9       0.1
 0 C  pz              0.1       0.1       0.0       0.2       0.0       0.2
 0 C  px              0.1       0.0       0.0       0.9       6.8       0.8
 0 C  py              0.0       0.0       0.0       0.2       0.4       0.0
 0 C  dz2             0.0       0.0       0.0       0.0       0.2       0.0
 0 C  dx2y2           0.0       0.0       0.0       0.1       0.4       0.0
 0 C  dxy             0.0       0.0       0.0       0.0       0.1       0.0
 1 C  s               3.2       0.9       0.7       2.4       0.2       2.7
 1 C  pz              0.0       0.1       0.0       0.0       0.6       0.3
 1 C  px              2.0       0.7       0.4       0.0       0.8       2.5
 1 C  py              0.3       0.6       0.4       0.4       0.5       1.6
 1 C  dxy             0.1       0.1       0.0       0.0       0.0       0.2
 2 H  s               0.4       0.1       0.1       0.6       0.0       0.3
 3 C  s               1.8       0.2       0.0       8.3       1.7       0.4
 3 C  pz              0.0       0.5       0.1       4.8       1.6       0.8
 3 C  px              0.4       0.3       0.1       0.0       0.1       0.0
 3 C  py              0.1       0.2       0.2       0.6       0.7       1.3
 3 C  dz2             0.0       0.0       0.0       0.2       0.1       0.1
 3 C  dyz             0.0       0.0       0.0       0.3       0.1       0.1
 4 H  s               0.2       0.1       0.0       1.1       0.1       0.1
 5 C  s               4.4       6.5       0.1       0.1       0.0       0.0
 5 C  pz              0.5       7.5       0.9       0.9       0.2       0.2
 5 C  px              0.0       0.3       0.4       0.8       0.1       0.0
 5 C  py              0.6       0.1       0.0       0.0       0.0       0.0
 5 C  dz2             0.1       0.6       0.0       0.0       0.0       0.0
 6 H  s               0.6       0.7       0.1       0.1       0.0       0.0
 7 C  s               5.8       0.0       5.1       0.4       0.0       0.0
 7 C  pz              0.6       0.9       7.0       0.1       0.1       0.1
 7 C  px              0.5       0.2       0.9       0.1       0.0       0.0
 7 C  py              0.1       0.9       1.7       0.1       0.0       0.0
 7 C  dz2             0.0       0.0       0.5       0.0       0.0       0.0
 7 C  dxz             0.0       0.0       0.1       0.0       0.0       0.0
 7 C  dyz             0.0       0.0       0.2       0.0       0.0       0.0
 8 H  s               0.8       0.0       0.5       0.1       0.0       0.0
 9 C  s              11.0       3.4       1.8       0.7       0.0       0.1
 9 C  pz              0.1       0.0       0.7       1.7       0.0      10.7
 9 C  px              1.7       0.9       1.4       0.2       0.0       2.4
 9 C  py              0.1       0.1       1.4       0.1       0.0       0.4
 9 C  dz2             0.1       0.0       0.1       0.1       0.0       0.4
 9 C  dxz             0.1       0.0       0.0       0.0       0.0       0.3
 9 C  dyz             0.0       0.0       0.0       0.0       0.0       0.2
 9 C  dx2y2           0.0       0.0       0.0       0.0       0.0       0.2
10 H  s               1.4       0.5       0.1       0.1       0.0       0.0
11 O  s              16.4       7.9       4.9       1.5       0.0      23.9
11 O  pz              0.9       0.4       0.3       0.0       0.0       0.3
11 O  px              0.1       0.1       0.0       0.2       0.0       0.1
11 O  py              0.3       0.1       0.1       0.1       0.0       0.6
12 O  s              11.7       3.9       7.1       7.3       0.1      28.6
12 O  pz              0.5       0.2       0.1       0.0       0.0       0.0
12 O  py              0.7       0.2       0.3       0.4       0.0       1.3
13 O  s               9.4       0.9      46.3       1.8       0.6       0.0
13 O  pz              0.3       0.0       0.5       0.0       0.0       0.0
13 O  px              0.0       0.0       0.2       0.0       0.0       0.0
13 O  py              0.4       0.1       1.7       0.1       0.0       0.0
14 O  s              10.8      46.8       0.8       0.4       0.1       0.5
14 O  pz              0.3       0.7       0.0       0.0       0.0       0.0
14 O  px              0.1       0.4       0.0       0.0       0.0       0.0
14 O  py              0.2       1.4       0.0       0.0       0.0       0.0
15 O  s               1.4       0.1       0.5      36.2      11.7       6.9
15 O  pz              0.1       0.0       0.0       0.6       0.1       0.1
15 O  px              0.0       0.0       0.0       0.7       0.2       0.2
15 O  py              0.1       0.0       0.0       1.1       0.3       0.1
16 O  s               0.1       0.0       0.1       9.1      46.8       2.6
16 O  px              0.0       0.0       0.0       0.4       1.6       0.1
16 O  py              0.0       0.0       0.0       0.2       1.2       0.1
17 H  s               0.1       0.0       0.0       0.3       0.9       0.0
18 H  s               0.1       0.0       0.0       0.2       0.9       0.0
19 H  s               3.2       0.3       1.5       1.5       0.0       5.7
20 H  s               1.9       0.2       9.2       0.4       0.1       0.0
21 H  s               2.1       9.6       0.1       0.1       0.0       0.1
22 H  s               0.6       0.0       0.5       6.9       2.2       1.3
23 H  s               0.0       0.0       0.0       2.0       9.8       0.5

                     18        19        20        21        22        23   
                  -0.71113  -0.69570  -0.61471  -0.60686  -0.57422  -0.53853
                   2.00000   2.00000   2.00000   2.00000   2.00000   2.00000
                  --------  --------  --------  --------  --------  --------
 0 C  s               0.4       6.1      16.4       0.5       7.4       0.5
 0 C  pz              0.1       1.3       0.0       0.0       1.9       0.9
 0 C  px              0.2       2.7       0.9       0.0       0.1       0.1
 0 C  py              0.1       0.2       0.4       0.3       1.4       0.3
 1 C  s               1.7      17.6       1.3       0.1       4.5       1.7
 1 C  pz              0.6       0.4       1.8       1.6       3.7       0.3
 1 C  px              0.0       0.6       2.5       1.1       0.0       0.1
 1 C  py              2.0       0.1       2.4       5.0       1.4       0.0
 1 C  dz2             0.0       0.0       0.1       0.0       0.0       0.0
 1 C  dxy             0.1       0.0       0.0       0.2       0.0       0.0
 2 H  s               0.2       3.7       0.4       0.0       2.7       1.0
 3 C  s               7.4       4.4       5.5       8.0       0.1       0.8
 3 C  pz              2.7       0.2       1.2       0.7       1.9       0.0
 3 C  px              1.4       1.2       0.3       2.5       2.5       0.1
 3 C  py              0.5       3.1       0.7       0.0       2.9       1.9
 4 H  s               1.5       1.3       2.1       4.7       0.0       0.7
 5 C  s              16.7       0.3       2.4       1.5       5.7       0.4
 5 C  pz              3.3       0.0       0.3       0.1       0.1       7.0
 5 C  px              0.1       2.6       3.6       5.7       0.5       0.1
 5 C  py              1.0       0.1       1.0       0.0       1.8       2.4
 5 C  dz2             0.2       0.0       0.0       0.0       0.0       0.1
 5 C  dyz             0.0       0.0       0.0       0.0       0.0       0.1
 6 H  s               3.0       0.1       0.9       0.7       2.7       0.4
 7 C  s              11.3       5.2       5.0       0.7       4.8       0.5
 7 C  pz              2.0       0.3       0.2       0.6       0.0       5.0
 7 C  px              2.6       0.3       0.5       0.1       1.3       0.0
 7 C  py              0.6       1.1       1.5       6.5       1.7       3.3
 7 C  dyz             0.0       0.0       0.0       0.0       0.0       0.2
 8 H  s               2.1       1.0       1.9       0.4       2.2       0.1
 9 C  s               0.3       8.3       1.9      10.0       0.1       0.8
 9 C  pz              0.2       1.7       0.0       0.9       0.5       0.7
 9 C  px              0.6       0.3       1.8       1.2       2.7       1.3
 9 C  py              3.4       0.4       1.2       0.9       3.1       0.0
 9 C  dx2y2           0.1       0.0       0.1       0.0       0.1       0.0
10 H  s               0.0       2.3       0.6       5.3       0.0       0.6
11 O  s               2.2       0.4       1.3       1.7       0.4       0.5
11 O  pz              0.0       0.1       0.1       0.5       0.4       0.0
11 O  px              0.1      10.7       0.0       8.1       3.8       1.0
11 O  py              0.3       0.7       0.0       0.4       2.0       0.2
12 O  s               0.5       2.0       0.9       1.0       0.0       0.6
12 O  pz              0.0       2.1       0.9       7.6       0.0       2.7
12 O  px              0.0       0.2       0.2       0.7       0.3       0.7
12 O  py              0.0       0.0       0.1       0.3       0.2       0.1
13 O  s               2.6       1.6       0.8       0.0       0.6       0.0
13 O  pz              3.1       1.3       2.1       1.3       3.9      13.0
13 O  px              1.1       0.6       0.4       0.7       0.4       6.0
13 O  py              0.2       0.0       0.0       0.9       0.1       1.5
14 O  s               4.2       0.0       0.4       0.0       0.7       0.0
14 O  pz              5.1       0.1       1.1       1.4       6.5      14.4
14 O  px              0.9       0.2       0.0       1.5       0.5       4.8
14 O  py              0.6       0.0       0.0       0.4       0.1       3.3
14 O  dz2             0.1       0.0       0.0       0.0       0.1       0.1
15 O  s               3.5       1.2       1.5       0.7       0.0       0.4
15 O  pz              1.3       0.6       2.9       3.6       0.0       2.4
15 O  px              0.2       0.4       0.5       1.8       0.5       0.2
15 O  py              0.1       0.1       0.0       0.1       0.4       0.0
16 O  s               0.2       2.2       2.2       0.3       0.4       0.0
16 O  pz              0.0       0.0       0.0       0.0       0.3       0.1
16 O  px              0.1       0.9       5.5       0.2       3.9       0.6
16 O  py              0.0       0.5       3.8       0.0       3.9       0.7
16 O  dx2y2           0.0       0.0       0.2       0.0       0.1       0.0
17 H  s               0.0       1.3       5.0       0.0       3.5       0.4
18 H  s               0.1       1.5       4.0       0.2       2.7       0.5
19 H  s               0.1       1.2       0.4       2.8       0.0       0.7
20 H  s               2.1       0.9       0.8       0.8       1.1       5.8
21 H  s               3.1       0.0       0.2       0.9       1.9       6.2
22 H  s               1.3       0.5       1.2       1.9       0.2       0.6
23 H  s               0.1       0.9       3.4       0.1       2.4       0.4

                     24        25        26        27        28        29   
                  -0.51889  -0.49989  -0.47690  -0.46200  -0.45340  -0.43468
                   2.00000   2.00000   2.00000   2.00000   2.00000   2.00000
                  --------  --------  --------  --------  --------  --------
 0 C  s               0.1       0.0       0.0       0.8       0.0       0.0
 0 C  pz              2.1       0.0       0.3       1.0       2.3       1.5
 0 C  px              0.0       1.5       2.7      12.6       0.0       0.0
 0 C  py              0.0       1.8       2.6       1.0       0.8       0.3
 0 C  dx2y2           0.0       0.0       0.1       0.2       0.0       0.0
 1 C  s               1.6       0.5       0.3       0.2       1.1       0.5
 1 C  pz              1.3       2.6       1.5       7.5       0.6       0.1
 1 C  px              0.7       0.3       4.4       0.4       6.4       2.5
 1 C  py              1.7       1.9       0.7       2.8       0.1       1.9
 1 C  dyz             0.0       0.0       0.0       0.0       0.0       0.1
 1 C  dxy             0.0       0.1       0.0       0.1       0.1       0.1
 2 H  s               1.8       0.1       0.3       2.6       3.2       0.7
 3 C  s               0.5       0.2       0.1       0.1       0.3       0.2
 3 C  pz              0.0       2.2       0.0       2.1       0.8       6.8
 3 C  px              0.7       4.5       8.1       0.1       0.0       0.1
 3 C  py              0.1       9.4       0.2       2.4       0.1       1.4
 3 C  dyz             0.0       0.1       0.0       0.0       0.1       0.0
 3 C  dxy             0.1       0.0       0.0       0.0       0.1       0.0
 4 H  s               0.4       1.5       0.9       0.9       0.0       1.8
 5 C  s               2.0       0.0       0.5       0.1       1.1       0.2
 5 C  pz              0.4       2.0       4.3       0.3       0.0       2.0
 5 C  px              0.4       2.0       1.6       0.0       0.0      13.2
 5 C  py              8.0       1.9       0.2       1.7       8.2       0.2
 5 C  dz2             0.0       0.0       0.1       0.2       0.1       0.1
 6 H  s               5.1       0.4       0.4       1.0       5.2       2.0
 7 C  s               0.3       1.0       0.2       0.8       0.0       0.0
 7 C  pz              0.1       3.0       1.4       3.1       0.1       5.2
 7 C  px              0.3       7.4       0.9       3.1       0.6       3.5
 7 C  py              3.2       0.0       5.7       0.1       1.0       2.7
 7 C  dz2             0.0       0.0       0.2       0.0       0.0       0.1
 7 C  dyz             0.0       0.0       0.1       0.0       0.2       0.1
 8 H  s               0.0       5.1       0.0       3.7       0.2       0.0
 9 C  s               0.4       0.3       0.0       0.1       0.3       0.1
 9 C  pz              3.0       0.0       1.5       1.0      12.0       0.2
 9 C  px              1.7       0.9       1.8       0.1       3.4       8.5
 9 C  py             10.3       0.2       6.2       0.5       0.1       0.2
 9 C  dyz             0.2       0.0       0.0       0.0       0.2       0.0
10 H  s               1.4       0.0       0.2       0.6       4.3       2.0
11 O  s               0.0       2.1       0.0       0.0       0.1       0.6
11 O  pz              0.1       1.3       0.3       2.0       3.2       3.1
11 O  px              4.3       1.2       5.0       1.0       3.5       6.7
11 O  py              0.5       1.1       3.7       0.3       0.4       0.0
12 O  s               0.4       0.0       0.1       0.3       0.3       0.2
12 O  pz             18.5       0.4       0.0       0.0      17.9       0.3
12 O  px              3.1       0.1       0.5       0.2       0.1       1.6
12 O  py              3.3       0.0       1.0       0.3       0.0       0.4
12 O  dyz             0.1       0.0       0.0       0.0       0.2       0.0
13 O  s               0.2       0.3       0.7       0.3       1.0       0.1
13 O  pz              0.5       0.3       7.8       0.4       0.4       7.4
13 O  px              0.3       3.9       2.2       4.0       0.3       1.2
13 O  py              1.4       0.4       2.7       0.3       1.7       0.8
14 O  s               0.5       0.0       0.7       0.7       1.0       0.0
14 O  pz              0.1       0.6       4.5       1.2       0.0       7.7
14 O  px              0.2       2.0       3.2       1.0       0.1       1.5
14 O  py              5.9       0.0       2.4       1.2       3.4       0.8
15 O  s               0.1       0.3       0.3       0.5       0.0       0.1
15 O  pz              0.4      11.6       0.2       0.1       3.4       1.3
15 O  px              0.7      10.3       1.1       0.0       1.7       1.1
15 O  py              0.0       0.1       0.0       1.7       0.1       1.0
16 O  s               0.0       0.0       0.7       0.7       0.3       0.0
16 O  pz              0.2       0.0       0.3       0.0       0.7       0.5
16 O  px              0.1       0.8       0.7       5.3       0.1       0.2
16 O  py              0.1       2.4       5.2      14.8       0.3       0.0
16 O  dx2y2           0.0       0.0       0.0       0.2       0.0       0.0
17 H  s               0.0       0.5       0.3       0.1       0.3       0.2
18 H  s               1.2       0.3       0.3       4.0       0.3       0.4
19 H  s               7.8       0.0       0.1       0.0       3.6       0.0
20 H  s               0.4       0.4       3.3       0.9       0.5       1.4
21 H  s               0.7       0.4       2.8       0.9       0.3       1.1
22 H  s               0.3       6.5       0.0       0.0       1.1       0.7
23 H  s               0.0       0.8       1.6       5.8       0.0       0.0

                     30        31        32        33        34        35   
                  -0.42135  -0.41123  -0.39193  -0.38119  -0.36345  -0.34905
                   2.00000   2.00000   2.00000   2.00000   2.00000   2.00000
                  --------  --------  --------  --------  --------  --------
 0 C  s               0.6       0.5       0.0       0.0       0.2       0.1
 0 C  pz              0.6      17.4       6.4       1.8       1.4       2.1
 0 C  px              4.6       0.7       0.2       0.8       1.5       0.0
 0 C  py              2.0       0.6       3.0       6.9      22.1       0.3
 0 C  dx2y2           0.2       0.0       0.0       0.0       0.4       0.1
 1 C  s               0.1       0.0       0.0       0.3       0.1       0.5
 1 C  pz              0.1       1.1       0.2       1.7       1.4       8.8
 1 C  px              1.0       3.3       1.6       1.1       0.4       6.3
 1 C  py              6.1       3.5       2.2       0.9       1.3       0.1
 1 C  dz2             0.1       0.0       0.0       0.0       0.0       0.1
 1 C  dxz             0.0       0.0       0.0       0.0       0.1       0.1
 1 C  dyz             0.1       0.0       0.0       0.2       0.0       0.0
 1 C  dx2y2           0.0       0.0       0.0       0.0       0.2       0.0
 1 C  dxy             0.0       0.0       0.1       0.2       0.0       0.0
 2 H  s               0.8       0.2       0.1       0.6       0.1       7.5
 3 C  s               1.0       0.1       0.7       0.2       0.4       0.2
 3 C  pz              4.6       4.6       1.2       2.6       0.7       0.0
 3 C  px              1.8       2.0       3.6       4.1       7.4       0.5
 3 C  py              3.5       4.1       0.6       4.2       0.5       0.1
 3 C  dxz             0.1       0.0       0.0       0.1       0.1       0.1
 3 C  dyz             0.2       0.0       0.0       0.0       0.2       0.0
 3 C  dx2y2           0.0       0.0       0.1       0.1       0.0       0.1
 4 H  s               2.4       3.4       0.0       6.3       4.9       0.3
 5 C  s               0.2       0.0       0.0       0.0       0.1       0.4
 5 C  pz              0.1       0.6       6.5       0.9       0.5       0.0
 5 C  px              0.0       1.5       0.8       1.5       1.4       0.9
 5 C  py              0.1       0.0       7.5       0.1       0.1       6.0
 5 C  dz2             0.1       0.0       0.1       0.1       0.0       0.0
 5 C  dxz             0.0       0.0       0.1       0.0       0.0       0.2
 5 C  dx2y2           0.1       0.0       0.2       0.0       0.0       0.1
 5 C  dxy             0.0       0.0       0.0       0.1       0.0       0.1
 6 H  s               0.2       0.1       3.0       0.1       0.1       3.9
 7 C  s               0.5       0.1       0.1       0.0       0.0       1.1
 7 C  pz              4.9       0.5       2.8       0.9       0.9       0.3
 7 C  px              9.4       0.3       0.2       6.2       0.6       0.8
 7 C  py              2.3       1.5       1.9       0.0       0.0       0.2
 7 C  dx2y2           0.2       0.0       0.1       0.1       0.1       0.2
 7 C  dxy             0.0       0.1       0.1       0.0       0.0       0.0
 8 H  s               9.2       0.4       1.7       1.0       0.0       0.1
 9 C  s               0.8       0.2       0.2       0.1       0.1       0.3
 9 C  pz              0.6       1.7       0.8       0.6       0.0       0.4
 9 C  px              1.6       4.2       0.5       1.2       0.1       3.0
 9 C  py              1.1       4.8       4.2       0.5       0.1       0.1
 9 C  dxz             0.1       0.0       0.0       0.0       0.0       0.1
 9 C  dyz             0.0       0.0       0.2       0.0       0.0       0.0
 9 C  dx2y2           0.1       0.0       0.0       0.1       0.0       0.1
 9 C  dxy             0.0       0.1       0.0       0.0       0.0       0.2
10 H  s               1.2       4.4       1.9       0.0       0.1       3.3
11 O  s               0.9       0.2       0.3       1.4       0.0       0.6
11 O  pz              0.0       5.0       0.3       6.3       0.4       5.4
11 O  px              0.7       0.0       0.0       1.2       0.2       1.6
11 O  py              0.1       0.1       8.1       0.3       0.2       4.4
12 O  s               0.1       0.4       0.0       0.3       0.0       0.4
12 O  pz              0.3       0.4       0.3       0.2       0.1       0.7
12 O  px              0.0       1.4       0.0       1.6       0.0       0.6
12 O  py              0.3       2.9       0.5       2.3       0.1       0.8
13 O  s               0.0       0.0       0.0       1.6       1.0       0.2
13 O  pz              0.1       0.3       0.8       6.1       3.0       0.0
13 O  px              4.0       0.4       0.7       4.5       1.9       0.3
13 O  py              1.0       0.1       1.3       4.6       4.4       1.6
14 O  s               0.3       0.4       1.7       0.2       0.2       2.2
14 O  pz              0.1       1.0       5.8       2.6       0.0       4.5
14 O  px              0.5       0.7       0.3       0.1       0.5      14.5
14 O  py              0.4       0.8      13.9       2.7       1.7       3.1
15 O  s               0.0       0.7       0.3       0.0       0.2       0.0
15 O  pz              9.4       1.2       0.5       0.5       3.7       0.1
15 O  px              2.3       0.1       2.9       0.0       0.1       0.5
15 O  py              0.0       4.3       0.0       3.2       0.3       0.4
16 O  s               0.1       0.1       0.1       1.1       1.1       0.6
16 O  pz              0.6       4.3       2.6       0.7       0.2       0.1
16 O  px              3.8       0.2       1.2       5.0      15.7       0.0
16 O  py              4.0       1.5       0.1       1.1       2.0       1.9
17 H  s               2.0       0.0       1.4       3.1      12.6       0.6
18 H  s               0.1       9.6       2.3       1.8       0.0       1.6
19 H  s               0.3       0.2       0.5       0.1       0.0       0.8
20 H  s               0.1       0.2       0.2       0.1       0.2       0.3
21 H  s               0.2       0.0       0.0       0.1       0.1       1.2
22 H  s               2.7       0.1       0.2       0.7       1.3       0.1
23 H  s               2.1       0.3       0.1       0.0       0.5       0.5

                     36        37        38        39        40        41   
                  -0.34398  -0.33749  -0.31905  -0.29403  -0.28547  -0.27631
                   2.00000   2.00000   2.00000   2.00000   2.00000   2.00000
[...]
 3 C  dxy             0.0       0.0       0.0       0.1       0.2       0.0
 4 H  s               0.0       0.0       0.0       0.1       0.0       0.0
 5 C  s               1.4       0.0       0.2       0.3       0.3       0.0
 5 C  pz              1.7       0.0       0.2       0.8       0.9       0.0
 5 C  px              0.0       0.0       0.0       0.0       0.1       0.0
 5 C  dz2             6.8       0.0       1.2       1.3       2.3       0.0
 5 C  dxz             0.5       0.0       0.1       0.4       0.1       0.1
 5 C  dyz             0.4       0.0       0.2       0.6       0.7       0.0
 7 C  s               1.1       0.1       0.1       0.1       0.8       0.0
 7 C  pz              0.7       0.1       0.1       0.1       1.8       0.1
 7 C  px              0.1       0.0       0.0       0.0       0.2       0.0
 7 C  py              0.2       0.0       0.0       0.0       0.2       0.1
 7 C  dz2             2.4       0.3       0.1       0.1       3.9       0.0
 7 C  dxz             1.7       0.0       0.1       0.1       0.2       0.0
 7 C  dyz             0.9       0.2       1.4       0.7       1.6       0.1
 7 C  dx2y2           0.0       0.0       0.1       0.1       0.0       0.0
 9 C  s               0.1       0.0       1.0       0.6       1.3       1.3
 9 C  pz              0.1       0.1       1.7       0.4       0.9       0.8
 9 C  px              0.0       0.2       0.0       0.1       0.0       1.7
 9 C  py              0.0       0.0       0.3       0.1       0.3       0.0
 9 C  dz2             0.0       0.0       2.1       0.5       4.3       0.3
 9 C  dxz             0.1       0.3       0.5       0.0       0.3       3.7
 9 C  dyz             1.0       0.0       3.6       1.3       0.6       0.0
 9 C  dx2y2           0.1       0.3       0.2       0.0       0.0       2.5
11 O  s               0.1       0.1       0.6       0.0       0.0       0.0
11 O  pz              0.0       0.1       0.1       0.0       0.0       0.2
11 O  px              0.0       0.3       0.0       0.1       0.0       6.0
11 O  py              0.0       0.1       0.0       0.0       0.0       0.5
11 O  dz2             0.1       0.6       0.2       0.1       1.0       3.0
11 O  dxz             0.0       1.2       0.8       0.1       0.0      36.8
11 O  dyz             0.1       0.0       0.0       0.0       0.0       0.9
11 O  dx2y2           0.7       1.6       0.6       0.3       2.3       2.5
11 O  dxy             1.1       1.5       3.3       3.1       0.0      19.0
12 O  s               0.0       0.0       1.4       0.6       2.0       0.0
12 O  pz              0.2       0.0       2.2       0.6       1.4       0.1
12 O  px              0.0       0.0       0.0       0.0       0.1       0.0
12 O  py              0.0       0.0       0.1       0.0       0.2       0.0
12 O  dz2             2.5       0.3      18.9       4.8       7.8       0.6
12 O  dxz             0.0       0.1       0.0       0.0       0.8       0.1
12 O  dyz             0.1       0.1      12.4       4.0      12.9       0.1
12 O  dx2y2           0.0       0.0       0.0       0.0       1.2       0.0
12 O  dxy             0.0       0.0       0.1       0.0       0.4       0.2
13 O  s               1.2       0.2       0.2       0.2       2.8       0.0
13 O  pz              1.5       0.1       0.2       0.2       1.7       0.0
13 O  px              0.1       0.0       0.0       0.0       0.4       0.0
13 O  dz2            13.5       1.4       3.1       1.8      11.1       0.1
13 O  dxz             1.1       0.3       0.3       0.4       5.0       0.0
13 O  dyz             8.6       0.6       0.1       0.1       7.9       0.0
13 O  dx2y2           0.2       0.0       0.1       0.0       0.0       0.1
13 O  dxy             0.7       0.0       0.0       0.0       1.1       0.0
14 O  s               2.1       0.0       0.4       1.4       1.3       0.0
14 O  pz              2.6       0.0       0.3       0.9       0.9       0.0
14 O  px              0.2       0.0       0.1       0.0       0.1       0.0
14 O  dz2            30.8       0.1       3.6       9.9       9.1       0.0
14 O  dxz             0.3       0.1       0.6       0.0       0.9       0.0
14 O  dyz             6.8       0.0       0.6       0.5       0.5       0.0
14 O  dxy             0.4       0.0       0.2       0.0       0.0       0.0
15 O  s               0.0       0.1       1.3       3.7       0.0       0.2
15 O  pz              0.1       0.1       1.1       2.5       0.0       0.1
15 O  px              0.1       0.0       0.2       0.1       0.0       0.0
15 O  py              0.0       0.0       0.2       0.4       0.0       0.0
15 O  dz2             0.3       0.5       7.3      17.0       0.0       0.3
15 O  dxz             0.3       0.0       0.2       0.1       0.1       0.1
15 O  dyz             0.9       0.7      12.3      21.8       0.6       0.7
15 O  dx2y2           0.3       0.1       2.1       1.8       0.4       0.2
15 O  dxy             0.4       0.0       0.3       0.0       0.1       0.0
16 O  s               0.0       3.5       0.2       0.1       0.1       0.5
16 O  px              0.0       3.3       0.1       0.0       0.1       0.3
16 O  py              0.0       0.8       0.0       0.0       0.0       0.0
16 O  dz2             0.0      11.1       0.5       0.2       0.3       1.0
16 O  dxz             0.0       0.6       0.2       0.0       0.0       0.2
16 O  dx2y2           0.3      45.3       1.5       0.1       1.0       2.5
16 O  dxy             0.1       4.3       0.2       0.0       0.2       0.1
19 H  s               0.0       0.0       0.4       0.2       0.2       0.0
20 H  s               0.3       0.0       0.0       0.0       0.2       0.0
21 H  s               0.5       0.0       0.1       0.1       0.1       0.0
22 H  s               0.0       0.0       0.3       0.4       0.1       0.0
23 H  s               0.0       0.7       0.0       0.0       0.0       0.0



                      *****************************
                      * MAYER POPULATION ANALYSIS *
                      *****************************

  NA   - Mulliken gross atomic population
  ZA   - Total nuclear charge
  QA   - Mulliken gross atomic charge
  VA   - Mayer's total valence
  BVA  - Mayer's bonded valence
  FA   - Mayer's free valence

  ATOM       NA         ZA         QA         VA         BVA        FA
  0 C      5.9739     6.0000     0.0261     3.9535     3.9535    -0.0000
  1 C      5.9775     6.0000     0.0225     4.0088     4.0088     0.0000
  2 H      0.9170     1.0000     0.0830     0.9900     0.9900    -0.0000
  3 C      5.9347     6.0000     0.0653     3.9772     3.9772    -0.0000
  4 H      0.9632     1.0000     0.0368     0.9819     0.9819    -0.0000
  5 C      6.0018     6.0000    -0.0018     4.0115     4.0115     0.0000
  6 H      0.9094     1.0000     0.0906     0.9714     0.9714     0.0000
  7 C      5.9778     6.0000     0.0222     3.9964     3.9964     0.0000
  8 H      0.9119     1.0000     0.0881     0.9641     0.9641    -0.0000
  9 C      5.8193     6.0000     0.1807     4.2105     4.2105     0.0000
 10 H      0.9394     1.0000     0.0606     0.9693     0.9693     0.0000
 11 O      8.2972     8.0000    -0.2972     2.1746     2.1746     0.0000
 12 O      8.3987     8.0000    -0.3987     2.0749     2.0749    -0.0000
 13 O      8.4187     8.0000    -0.4187     2.0337     2.0337     0.0000
 14 O      8.4152     8.0000    -0.4152     2.0439     2.0439    -0.0000
 15 O      8.4236     8.0000    -0.4236     2.0156     2.0156     0.0000
 16 O      8.4301     8.0000    -0.4301     2.0135     2.0135     0.0000
 17 H      0.8993     1.0000     0.1007     0.9716     0.9716    -0.0000
 18 H      0.9441     1.0000     0.0559     1.0016     1.0016     0.0000
 19 H      0.6819     1.0000     0.3181     0.9231     0.9231     0.0000
 20 H      0.6857     1.0000     0.3143     0.8801     0.8801    -0.0000
 21 H      0.6799     1.0000     0.3201     0.8734     0.8734    -0.0000
 22 H      0.6952     1.0000     0.3048     0.9281     0.9281     0.0000
 23 H      0.7046     1.0000     0.2954     0.8878     0.8878    -0.0000

  Mayer bond orders larger than 0.100000
B(  0-C ,  1-C ) :   1.0254 B(  0-C , 16-O ) :   1.0518 B(  0-C , 17-H ) :   0.9090 
B(  0-C , 18-H ) :   0.9029 B(  1-C ,  2-H ) :   0.8945 B(  1-C ,  3-C ) :   0.9675 
B(  1-C , 11-O ) :   1.0087 B(  3-C ,  4-H ) :   0.8865 B(  3-C ,  5-C ) :   0.9686 
B(  3-C , 15-O ) :   1.0642 B(  5-C ,  6-H ) :   0.9014 B(  5-C ,  7-C ) :   1.0081 
B(  5-C , 14-O ) :   1.0297 B(  7-C ,  8-H ) :   0.8952 B(  7-C ,  9-C ) :   0.9857 
B(  7-C , 13-O ) :   1.0232 B(  9-C , 10-H ) :   0.9083 B(  9-C , 11-O ) :   1.0546 
B(  9-C , 12-O ) :   1.1474 B( 12-O , 19-H ) :   0.7989 B( 13-O , 20-H ) :   0.8395 
B( 14-O , 21-H ) :   0.8363 B( 15-O , 22-H ) :   0.8155 B( 16-O , 23-H ) :   0.8508 


-------
TIMINGS
-------

Total SCF time: 0 days 0 hours 14 min 38 sec 

Total time                  ....     878.511 sec
Sum of individual times     ....     878.478 sec  (100.0%)

SCF preparation             ....       1.594 sec  (  0.2%)
Fock matrix formation       ....       5.884 sec  (  0.7%)
  Startup                   ....       0.008 sec  (  0.1% of F)
  Split-RI-J                ....       3.087 sec  ( 52.5% of F)
  XC integration            ....       2.695 sec  ( 45.8% of F)
    XC Preparation          ....       0.000 sec  (  0.0% of XC)
    Basis function eval.    ....       1.115 sec  ( 41.4% of XC)
    Density eval.           ....       0.610 sec  ( 22.6% of XC)
    XC-Functional eval.     ....       0.160 sec  (  5.9% of XC)
    XC-Potential eval.      ....       0.635 sec  ( 23.5% of XC)
Diagonalization             ....       0.000 sec  (  0.0%)
Density matrix formation    ....       0.031 sec  (  0.0%)
Total Energy calculation    ....       0.002 sec  (  0.0%)
Population analysis         ....     870.843 sec  ( 99.1%)
Orbital Transformation      ....       0.018 sec  (  0.0%)
Orbital Orthonormalization  ....       0.000 sec  (  0.0%)
DIIS solution               ....       0.084 sec  (  0.0%)
  MO trafo                  ....       0.000 sec  (  0.0 % of DIIS)
  Orb grad                  ....       0.000 sec  (  0.0 % of DIIS)
  Energy W gradient         ....       0.000 sec  (  0.0 % of DIIS)
  DIIS error                ....       0.005 sec  (  6.1 % of DIIS)
  DIIS work                 ....       0.069 sec  ( 81.9 % of DIIS)
  Form Q                    ....       0.000 sec  (  0.0 % of DIIS)
  Form QpQm                 ....       0.000 sec  (  0.0 % of DIIS)
  Exp/Cayley                ....       0.000 sec  (  0.0 % of DIIS)
  Orb update                ....       0.000 sec  (  0.0 % of DIIS)
  Wake-sleep                ....       0.001 sec  (  1.3 % of DIIS)
SOSCF solution              ....       0.022 sec  (  0.0%)
  MO trafo                  ....       0.014 sec  ( 61.3 % of SOSCF)
  Orb grad                  ....       0.000 sec  (  0.8 % of SOSCF)
  Rot update                ....       0.002 sec  (  7.6 % of SOSCF)
  Step                      ....       0.007 sec  ( 30.0 % of SOSCF)
Finished LeanSCF after 882.2 sec

Maximum memory used throughout the entire LEANSCF-calculation: 19.2 MB


-------------------------------------------------------------------------------
                          DFT DISPERSION CORRECTION                            
                                                                               
                                DFTD4 V3.4.0                                   
-------------------------------------------------------------------------------
The PBE functional is recognized
Active option DFTDOPT                   ...         5   

-------------------------   ----------------
Dispersion correction           -0.025961834
-------------------------   ----------------

------------------   -----------------
gCP correction             0.159147169
------------------   -----------------

-------------------------   --------------------
FINAL SINGLE POINT ENERGY      -685.693063299311
-------------------------   --------------------


------------------------------------------------------------------------------
                              ORCA PROPERTY CALCULATIONS
------------------------------------------------------------------------------

GBWName                                 ... sp.gbw
Number of atoms                         ...     24
Number of basis functions               ...    192
Max core memory                         ...   1024 MB

Electric properties:
Dipole moment                           ... YES
Quadrupole moment                       ...  NO
Static polarizability (Dipole/Dipole)   ...  NO
Static polarizability (Dipole/Quad.)    ...  NO
Static polarizability (Quad./Quad.)     ...  NO
Static polarizability (Velocity)        ...  NO

Atomic electric properties:
Dipole moment                           ...  NO
Quadrupole moment                       ...  NO
Static polarizability                   ...  NO

Choice of electric origin               ... Center of mass
Position of electric origin             ...    -0.000000     0.000002    -0.000003

General magnetic properties:
Magnetizability                         ...  NO

EPR properties:
g-Tensor (aka g-matrix)                 ...  NO
Zero-Field splitting spin-orbit         ...  NO
Zero-field splitting spin-spin          ...  NO
Hyperfine couplings                     ...  NO (   0 nuclei)
Quadrupole couplings                    ...  NO (   0 nuclei)
Contact density                         ...  NO (   0 nuclei)

NMR properties:
Chemical shifts                         ...  NO (   0 nuclei)
Spin-rotation constants                 ...  NO (   0 nuclei)
Spin-spin couplings                     ...  NO (   0 nuclei,    0 pairs)

Choice of magnetic origin               ... GIAO
Position of magnetic origin             ...     0.000000     0.000000     0.000000

Properties with geometric perturbations:
SCF Hessian                             ...  NO
IR spectrum                             ...  NO
VCD spectrum                            ...  NO
X-ray spectroscopy properties:
SCF XES/XAS/RIXS spectra                ...  NO


-------------
DIPOLE MOMENT
-------------

Method             : SCF
Type of density    : Electron Density
Multiplicity       :   1
Irrep              :   0
Energy             :  -685.8262486347051663 Eh
Relativity type    : 
Basis              : AO
                                X                 Y                 Z
Electronic contribution:      1.287692476      -0.521133035       1.584563691
Nuclear contribution   :     -0.504266201       1.562295334      -1.967625060
                        -----------------------------------------
Total Dipole Moment    :      0.783426275       1.041162299      -0.383061370
                        -----------------------------------------
Magnitude (a.u.)       :      1.358128003
Magnitude (Debye)      :      3.452087043



--------------------
Rotational spectrum 
--------------------
 
Rotational constants in cm-1:             0.040818             0.028210             0.024331 
Rotational constants in MHz :          1223.705971           845.704055           729.439829 

Dipole components along the rotational axes: 
x,y,z [a.u.] :     0.933553    -0.338943    -0.926341 
x,y,z [Debye]:     2.372902    -0.861525    -2.354573 

 

Dipole moment calculation done in   0.0 sec 

Maximum memory used throughout the entire PROP-calculation: 12.8 MB

--------------------------------
SUGGESTED CITATIONS FOR THIS RUN
--------------------------------

Below you find a list of papers that are relevant to this ORCA run
We neither can nor want to force you to cite these papers, but we appreciate if you do
You receive ORCA, which is the product of decades of hard work by many enthusiastic individuals, for free
The only thing we kindly ask in return is that you cite our papers,
We deeply appreciate it, if you show your appreciation for ORCA by not just citing the generic ORCA reference.

Please note that relegating all ORCA citations to the supporting information does *not* help us.
SI sections are not indexed - citations you put there will not count into any citation statistics
But we need these citations in order to attract the funding resources that allow us to do what we are doing

Therefore, if you are a happy ORCA user, please consider citing a few of the papers listed below in the main body of your paper

In addition to the list printed below, the program has created the file sp.bibtex that contains the list in bibtex format
You can import this file easily into all common literature databanks and citation aid programs


List of essential papers. We consider these as the minimum necessary citations

  1. Neese,F.
     Software update: the ORCA program system, version 5.0
     WIRES Comput. Molec. Sci., 2022 12(1)e1606
     doi.org/10.1002/wcms.1606

List of papers to cite with high priority. The work reported in these papers was absolutely
necessary for this run to complete.
Our perspective: the developers of density functionals and basis sets usually get cited in chemistry papers
Good! But without the algorithms to do something with them, the functionals or basis sets would not do anything.
Hence, in our opinion, the algorithm design and method developments papers are equally worthy of getting cited

  1. Neese,F.
     An improvement of the resolution of the identity approximation for the formation of the Coulomb matrix
     J. Comp. Chem., 2003 24(14)1740-1747
     doi.org/10.1002/jcc.10318
  2. Neese,F.
     The SHARK Integral Generation and Digestion System
     J. Comp. Chem., 2022  1-16
     doi.org/10.1002/jcc.26942
  3. Caldeweyher,E.; Bannwarth,C.; Grimme,S.
     Extension of the D3 dispersion coefficient model
     J. Chem. Phys., 2017 147 034112
     doi.org/10.1063/1.4993215
  4. Caldeweyher,E.; Ehlert,S.; Hansen,A.; Neugebauer,H.; Spicher,S.; Bannwarth,C.; Grimme,S.
     A generally applicable atomic-charge dependent London dispersion correction
     J. Chem. Phys., 2019 150 154122
     doi.org/10.1063/1.5090222
  5. Caldeweyher,E.; Mewes,J.; Ehlert,S.; Grimme,S.
     Extension and evaluation of the D4 London-dispersion model for periodic systems
     Phys. Chem. Chem. Phys., 2020 22(16)8499-8512
     doi.org/10.1039/D0CP00502A
  6. Wittmann,L.; Gordiy,I.; Friede,M.; Helmich-Paris,B.; Grimme,S.; Hansen,A.; Bursch,M.
     Extension of the D3 and D4 London Dispersion Corrections to the full Actinides Series
     Phys. Chem. Chem. Phys., 2024 26(32)21379-21394
     doi.org/https://doi.org/10.1039/D4CP01514B 

List of suggested additional citations. These are papers that are important in the 'surrounding' of 
of this run, or papers that preceded the highly important papers. If you like your results we are grateful for a citation.

  1. Neese,F.
     The ORCA program system
     WIRES Comput. Molec. Sci., 2012 2(1)73-78
     doi.org/10.1002/wcms.81
  2. Neese,F.
     Software update: the ORCA program system, version 4.0
     WIRES Comput. Molec. Sci., 2018 8(1)1-6
     doi.org/10.1002/wcms.1327
  3. Neese,F.; Wennmohs,F.; Becker,U.; Riplinger,C.
     The ORCA quantum chemistry program package
     J. Chem. Phys., 2020 152 Art. No. L224108
     doi.org/10.1063/5.0004608

List of optional additional citations

  1. Neese,F.
     Approximate second-order SCF convergence for spin unrestricted wavefunctions
     Chem. Phys. Lett., 2000 325(1-3)93-98
     doi.org/10.1016/s0009-2614(00)00662-x

Timings for individual modules:

Sum of individual times          ...      883.659 sec (=  14.728 min)
Startup calculation              ...        0.615 sec (=   0.010 min)   0.1 %
SCF iterations                   ...      882.976 sec (=  14.716 min)  99.9 %
Property calculations            ...        0.068 sec (=   0.001 min)   0.0 %
                             ****ORCA TERMINATED NORMALLY****
TOTAL RUN TIME: 0 days 0 hours 14 minutes 46 seconds 796 msec
