15
 energy: -15.772805844681 gnorm: 0.017437581697 xtb: 6.7.1 (edcfbbe)
C           -2.39602882770037        0.07836839395921        0.00797334533053
C           -0.91923282375352        0.46285854666117       -0.05580084797198
C            0.00457158653116       -0.71072276748610        0.12837905228825
C            1.33627129580767       -0.63441231972696        0.09044278583869
C            2.09468886934307        0.64109307738329       -0.14292085675756
H           -3.04118611857029        0.95072043776430       -0.12961008626430
H           -2.64079558336717       -0.37192520296688        0.97550535958741
H           -2.64350403896668       -0.64971511008357       -0.77138260725120
H           -0.70545310897841        0.95031353446709       -1.01776595938371
H           -0.70185020390540        1.22346606202830        0.70789727858432
H           -0.46135964051309       -1.67933950918359        0.30382292719403
H            1.91547952564435       -1.54313976221701        0.23540707222524
H            1.84555977410291        1.39755398998243        0.61144723994021
H            1.84880778054406        1.07892147548089       -1.11844583907503
H            3.17431499045475        0.48123091358298       -0.11211593793484
15
 energy: -15.773415709435 gnorm: 0.005421839512 xtb: 6.7.1 (edcfbbe)
C           -2.38571044731040        0.07402774978556        0.00865789394667
C           -0.91593009775854        0.46714331503075       -0.05682989768681
C            0.00363421386797       -0.70244774665709        0.12673804345670
C            1.32746966677868       -0.62663681251069        0.08936544962979
C            2.08692086384719        0.64049630638801       -0.14257082922988
H           -3.02293961211573        0.94670150015431       -0.12891748796834
H           -2.62308314157093       -0.37203983863426        0.97441631827871
H           -2.62615508952798       -0.64941926866096       -0.77029453129480
H           -0.70564897113845        0.94368660197591       -1.02181245066878
H           -0.70220747291993        1.21823586741604        0.71329885224198
H           -0.46693270401771       -1.66220105607500        0.30080067501210
H            1.91135709959154       -1.52655447451331        0.23248098700006
H            1.83272653254558        1.38682270816812        0.61327882740043
H            1.83571786947949        1.06809539055799       -1.11593543707911
H            3.16106476692227        0.46936151722015       -0.10984348668868
15
 energy: -15.773455714827 gnorm: 0.001525316482 xtb: 6.7.1 (edcfbbe)
C           -2.38273239199006        0.07428881041177        0.00857350179891
C           -0.91338165591725        0.46846903695895       -0.05714759386530
C            0.00337722619751       -0.70274395861161        0.12676107434815
C            1.32548032252463       -0.62748173516180        0.08960183276954
C            2.08341831320079        0.64056017889472       -0.14246376366594
H           -3.01990224620912        0.94549541474429       -0.12870735977312
H           -2.61598824743972       -0.37140385459327        0.97345788459141
H           -2.61933403855282       -0.64856004846260       -0.76958909960780
H           -0.70386999516776        0.94261204615789       -1.02187797267205
H           -0.70042272202283        1.21727909799105        0.71343327880176
H           -0.47196414310944       -1.65818760842254        0.30003207024050
H            1.91292181393111       -1.52368434669015        0.23193409022159
H            1.82704432294019        1.38415829798284        0.61274019017887
H            1.82995410340975        1.06576600859568       -1.11426440516899
H            3.15568281487806        0.46870441985032       -0.10965080184750
15
 energy: -15.773461732206 gnorm: 0.000591960979 xtb: 6.7.1 (edcfbbe)
C           -2.38116456145527        0.07494191242937        0.00848320972057
C           -0.91099856682128        0.46920319478838       -0.05739755935451
C            0.00328356639602       -0.70477368148730        0.12704663754049
C            1.32522986141657       -0.62985148607553        0.09001397366402
C            2.08064190581204        0.64101553309243       -0.14243777989796
H           -3.01839878314813        0.94578966595772       -0.12870520008273
H           -2.61295275350978       -0.37062344046681        0.97339977394378
H           -2.61647461644279       -0.64781911410841       -0.76968753246272
H           -0.70096629836935        0.94249328997085       -1.02189318616562
H           -0.69743995581977        1.21728664567316        0.71304434698990
H           -0.47635210854775       -1.65777662128513        0.29994542492020
H            1.91593455260194       -1.52376555646588        0.23190696633130
H            1.82217524633493        1.38323201292536        0.61289003056634
H            1.82507233284247        1.06497264652176       -1.11382105074079
H            3.15269365538320        0.47094675817557       -0.10995512862221
15
 energy: -15.773462730420 gnorm: 0.000184699460 xtb: 6.7.1 (edcfbbe)
C           -2.38099012821751        0.07573042407367        0.00838053592885
C           -0.91033505472387        0.46839920876077       -0.05734171334674
C            0.00368969821362       -0.70605829532364        0.12725122751181
C            1.32575395378583       -0.63078564415799        0.09018410590567
C            2.07962805555096        0.64121107835458       -0.14242457986930
H           -3.01765452477644        0.94724280505561       -0.12891061615104
H           -2.61358191298337       -0.36970746658969        0.97347233012278
H           -2.61719112266706       -0.64702261545043       -0.76991304167167
H           -0.69981919522243        0.94171216529465       -1.02193440541097
H           -0.69618473440599        1.21669884510927        0.71298934374020
H           -0.47637801409837       -1.65911192487655        0.30012721905797
H            1.91737879129946       -1.52427162451855        0.23199151580888
H            1.82041817449605        1.38324516794018        0.61320236925553
H            1.82329592615715        1.06505268524438       -1.11395081826001
H            3.15225356426503        0.47293695072927       -0.11029054627193
15
 energy: -15.773462963511 gnorm: 0.000082692704 xtb: 6.7.1 (edcfbbe)
C           -2.38063444850446        0.07605770695368        0.00837293815019
C           -0.90989894427267        0.46787715260279       -0.05736370758232
C            0.00382972086249       -0.70670938944877        0.12728781842144
C            1.32584706146208       -0.63110245496008        0.09022789281969
C            2.07883482841606        0.64129259505565       -0.14237627135444
H           -3.01651636500865        0.94812565782129       -0.12900100260840
H           -2.61384861851811       -0.36912511465494        0.97345541728584
H           -2.61758858675856       -0.64651024626997       -0.76988976187421
H           -0.69909451529715        0.94102168066049       -1.02202908481465
H           -0.69532853199194        1.21619454656713        0.71289868278068
H           -0.47620600316508       -1.65978141176535        0.30017868247558
H            1.91793335735912       -1.52424051851187        0.23202968851499
H            1.81923259064571        1.38311980771086        0.61331816699796
H            1.82206438743353        1.06506633268063       -1.11381471775764
H            3.15165754401068        0.47398541520401       -0.11046181510468
15
 energy: -15.773463012159 gnorm: 0.000039494329 xtb: 6.7.1 (edcfbbe)
C           -2.38055023149040        0.07630091002184        0.00837913094217
C           -0.90973011283074        0.46755897892489       -0.05742193349061
C            0.00390227158893       -0.70703408472113        0.12730220921962
C            1.32592211804253       -0.63119628735590        0.09027836943065
C            2.07850703170859        0.64135937369931       -0.14232757917160
H           -3.01613155571952        0.94858034067412       -0.12902380680972
H           -2.61383627775285       -0.36874228198928        0.97347920608494
H           -2.61774583785777       -0.64623421506641       -0.76980446425582
H           -0.69887017523727        0.94056666073820       -1.02213181902642
H           -0.69496797746087        1.21591900997971        0.71273128664244
H           -0.47597224459377       -1.66016056435672        0.30012193854467
H            1.91817265877542       -1.52420421232260        0.23205343621372
H            1.81875298460045        1.38305259178657        0.61342793040392
H            1.82147181155969        1.06513550104720       -1.11368104854606
H            3.15135901334063        0.47437003858575       -0.11054992983187
