 Entering Gaussian System
 *********************************************
 Gaussian 98:
 frequency output generated by the xtb code
 *********************************************
                         Standard orientation:
 --------------------------------------------------------------------
  Center     Atomic     Atomic              Coordinates (Angstroms)
  Number     Number      Type              X           Y           Z
 --------------------------------------------------------------------
    1          6             0       -3.194871    0.559963    0.008847
    2          8             0       -2.294004   -0.516820    0.002693
    3          6             0       -0.951551   -0.238033    0.000495
    4          6             0       -0.100179   -1.342314   -0.000846
    5          6             0        1.266802   -1.177082   -0.007070
    6          6             0        1.830329    0.099894   -0.010547
    7          6             0        0.975703    1.197197   -0.011189
    8          6             0       -0.399125    1.035641   -0.004429
    9          7             0        3.205321    0.267816    0.061283
   10          1             0       -3.084956    1.184513   -0.884626
   11          1             0       -3.074779    1.182616    0.902196
   12          1             0       -4.188708    0.114348    0.013829
   13          1             0       -0.538218   -2.327854    0.000528
   14          1             0        1.913829   -2.042466   -0.007400
   15          1             0        1.392540    2.194452   -0.014850
   16          1             0       -1.023459    1.915401   -0.005782
   17          1             0        3.754186   -0.516049   -0.254972
   18          1             0        3.550870    1.159675   -0.256421
 --------------------------------------------------------------------
     1 basis functions        1 primitive gaussians
     1 alpha electrons        1 beta electrons
 
 Harmonic frequencies (cm**-1), IR intensities (km*mol⁻¹),
 Raman scattering activities (A**4/amu), Raman depolarization ratios,
 reduced masses (AMU), force constants (mDyne/A) and normal coordinates:
                      1                      2                      3
                        a                      a                      a 
 Frequencies --    77.4905               147.6761               222.4608
 Red. masses --     9.6068                11.8267                 9.5205
 Frc consts  --     0.0000                 0.0000                 0.0000
 IR Inten    --     5.1897                 2.0663                 2.1760
 Raman Activ --     0.0000                 0.0000                 0.0000
 Depolar     --     0.0000                 0.0000                 0.0000
 Atom AN      X      Y      Z        X      Y      Z        X      Y      Z
   1   6    -0.00  -0.00  -0.54     0.00   0.00  -0.10    -0.41  -0.43   0.00
   2   8     0.00  -0.00   0.27     0.00  -0.00   0.61     0.10   0.01   0.00
   3   6    -0.00   0.00   0.24     0.00  -0.00   0.01     0.03   0.29  -0.00
   4   6     0.00   0.00   0.08     0.00  -0.00  -0.28    -0.05   0.23   0.00
   5   6    -0.00   0.00  -0.07     0.00   0.00  -0.32    -0.05   0.07  -0.00
   6   6    -0.00   0.00  -0.05     0.00   0.00  -0.06     0.07   0.01  -0.00
   7   6    -0.00   0.00   0.23    -0.00   0.00  -0.18     0.17   0.10  -0.00
   8   6    -0.00   0.00   0.36    -0.00  -0.00  -0.16     0.11   0.25  -0.01
   9   7     0.02  -0.01  -0.33    -0.03  -0.01   0.42     0.12  -0.33   0.00
  10   1     0.14  -0.08  -0.19    -0.01  -0.16  -0.15    -0.21  -0.11   0.00
  11   1    -0.14   0.08  -0.19     0.01   0.17  -0.14    -0.21  -0.10  -0.00
  12   1    -0.00  -0.00  -0.27     0.00   0.00   0.07    -0.06  -0.27   0.00
  13   1     0.00   0.00   0.01     0.00  -0.00  -0.10    -0.05   0.08   0.00
  14   1    -0.00   0.00  -0.07     0.00  -0.00  -0.13    -0.04   0.00  -0.00
  15   1    -0.00   0.00   0.09    -0.00   0.00  -0.05     0.08   0.02  -0.00
  16   1     0.00   0.00   0.16    -0.00  -0.00  -0.05     0.04   0.08  -0.00
  17   1    -0.02   0.01  -0.15     0.03   0.01   0.14    -0.03  -0.14   0.01
  18   1    -0.01   0.01  -0.08     0.02   0.01   0.18     0.11  -0.12  -0.01
                      4                      5                      6
                        a                      a                      a 
 Frequencies --   236.4603               328.0483               356.6507
 Red. masses --     2.2491                 1.7332                10.3548
 Frc consts  --     0.0000                 0.0000                 0.0000
 IR Inten    --     0.2674                17.4003                 3.2315
 Raman Activ --     0.0000                 0.0000                 0.0000
 Depolar     --     0.0000                 0.0000                 0.0000
 Atom AN      X      Y      Z        X      Y      Z        X      Y      Z
   1   6     0.00  -0.00   0.04    -0.08  -0.01   0.00    -0.33   0.03   0.01
   2   8     0.00   0.00   0.11    -0.01   0.05  -0.02    -0.13   0.20   0.14
   3   6     0.00   0.00   0.07    -0.00   0.03   0.02    -0.05   0.01  -0.15
   4   6     0.00  -0.00  -0.00    -0.01   0.01   0.15    -0.03  -0.01  -0.25
   5   6     0.00  -0.00  -0.05     0.00  -0.07  -0.03     0.05  -0.19   0.21
   6   6     0.00  -0.00  -0.10     0.03  -0.07  -0.02     0.17  -0.24   0.16
   7   6     0.00  -0.00  -0.23     0.04  -0.07  -0.01     0.13  -0.26   0.03
   8   6     0.00   0.00  -0.03     0.03   0.01  -0.11     0.13  -0.07  -0.03
   9   7    -0.02   0.01   0.14     0.03  -0.03   0.02     0.14   0.42  -0.09
  10   1     0.36   0.30   0.27    -0.02   0.02   0.01    -0.11   0.02   0.01
  11   1    -0.35  -0.30   0.27    -0.05  -0.02   0.01    -0.17   0.02   0.01
  12   1    -0.00   0.00  -0.55    -0.01  -0.02  -0.02    -0.06  -0.06  -0.03
  13   1    -0.00   0.00   0.01    -0.01   0.01   0.09    -0.02   0.00  -0.12
  14   1    -0.00  -0.00  -0.00    -0.01  -0.02  -0.02    -0.03  -0.09   0.10
  15   1     0.00  -0.00  -0.09     0.02  -0.02   0.01     0.06  -0.08  -0.00
  16   1     0.00   0.00   0.03     0.02   0.01  -0.07     0.07   0.00   0.01
  17   1     0.01  -0.01   0.10     0.06   0.27  -0.61     0.15   0.16   0.05
  18   1     0.02  -0.01   0.03    -0.10   0.26   0.62    -0.14   0.12  -0.18
                      7                      8                      9
                        a                      a                      a 
 Frequencies --   361.3057               385.3955               404.4407
 Red. masses --    10.6862                 9.1174                11.2773
 Frc consts  --     0.0000                 0.0000                 0.0000
 IR Inten    --     7.8088                 0.6528                 0.3817
 Raman Activ --     0.0000                 0.0000                 0.0000
 Depolar     --     0.0000                 0.0000                 0.0000
 Atom AN      X      Y      Z        X      Y      Z        X      Y      Z
   1   6     0.15  -0.01   0.03    -0.10   0.04   0.01     0.26  -0.16   0.00
   2   8     0.05  -0.10   0.31    -0.08   0.04   0.05     0.37  -0.04   0.02
   3   6     0.01  -0.01  -0.34    -0.04  -0.04  -0.05     0.19   0.24  -0.03
   4   6     0.01   0.00  -0.31     0.01  -0.01   0.35    -0.12   0.03   0.04
   5   6    -0.02   0.10   0.30     0.03   0.01  -0.38    -0.12  -0.29  -0.05
   6   6    -0.07   0.12   0.34     0.07  -0.00   0.05    -0.26  -0.24   0.02
   7   6    -0.07   0.12   0.22     0.02  -0.04   0.45     0.01  -0.04   0.09
   8   6    -0.07   0.02  -0.28     0.02  -0.06  -0.45     0.02   0.30  -0.07
   9   7    -0.00  -0.22  -0.21     0.08   0.07  -0.03    -0.38   0.19  -0.03
  10   1     0.15   0.01   0.04     0.01   0.04   0.03     0.07  -0.04   0.00
  11   1    -0.02  -0.03   0.04    -0.07  -0.02   0.03     0.06  -0.05   0.00
  12   1     0.03   0.03  -0.10    -0.02   0.00  -0.06     0.08  -0.06  -0.01
  13   1     0.01  -0.00  -0.12     0.02  -0.01   0.21    -0.15   0.06   0.03
  14   1     0.02   0.05   0.13     0.00  -0.00  -0.22    -0.05  -0.09  -0.03
  15   1    -0.03   0.04   0.09    -0.00  -0.01   0.25     0.11  -0.05   0.05
  16   1    -0.03  -0.00  -0.11     0.01  -0.02  -0.25     0.02   0.09  -0.04
  17   1    -0.12  -0.07  -0.24     0.02  -0.03   0.10    -0.00   0.09   0.07
  18   1     0.02  -0.05  -0.02     0.02  -0.03  -0.14    -0.20   0.06  -0.07
                     10                     11                     12
                        a                      a                      a 
 Frequencies --   490.3782               503.5377               598.2798
 Red. masses --     8.2955                11.2705                 5.2441
 Frc consts  --     0.0000                 0.0000                 0.0000
 IR Inten    --    18.9942                 2.8207               396.4982
 Raman Activ --     0.0000                 0.0000                 0.0000
 Depolar     --     0.0000                 0.0000                 0.0000
 Atom AN      X      Y      Z        X      Y      Z        X      Y      Z
   1   6     0.03  -0.01  -0.01     0.23  -0.08   0.00     0.02  -0.01   0.00
   2   8    -0.01  -0.04  -0.15    -0.24  -0.45   0.01     0.09   0.04   0.03
   3   6    -0.03   0.02   0.54    -0.30   0.19  -0.06     0.01  -0.02  -0.21
   4   6    -0.02   0.03  -0.09    -0.13   0.38   0.02    -0.07  -0.07   0.11
   5   6    -0.02   0.00  -0.13    -0.09   0.05   0.00    -0.09   0.02  -0.12
   6   6     0.01  -0.01   0.52     0.21  -0.09  -0.06    -0.05   0.01  -0.03
   7   6    -0.01  -0.02  -0.13     0.02  -0.21   0.01    -0.02   0.01  -0.12
   8   6    -0.02   0.02  -0.10    -0.09   0.14   0.02    -0.02  -0.01   0.11
   9   7     0.08   0.01  -0.03     0.27   0.07   0.03     0.22   0.04   0.41
  10   1     0.01   0.01   0.01     0.19  -0.04   0.00    -0.01  -0.01  -0.00
  11   1     0.04  -0.02   0.01     0.19  -0.04  -0.00    -0.01   0.00  -0.00
  12   1     0.00   0.01  -0.00    -0.01   0.16   0.00     0.02  -0.03   0.00
  13   1    -0.01   0.01  -0.26    -0.06   0.12   0.03    -0.02  -0.02   0.11
  14   1    -0.02  -0.01  -0.28    -0.12  -0.06   0.03    -0.02   0.01   0.04
  15   1    -0.00  -0.01  -0.27     0.01  -0.06   0.03    -0.01   0.01   0.04
  16   1     0.00   0.01  -0.26     0.08   0.12   0.03    -0.02  -0.01   0.11
  17   1    -0.06   0.01  -0.16     0.10   0.04   0.01    -0.19   0.06  -0.52
  18   1    -0.06  -0.01  -0.16     0.03   0.03  -0.02    -0.18  -0.10  -0.52
                     13                     14                     15
                        a                      a                      a 
 Frequencies --   613.9287               663.8567               744.1634
 Red. masses --    11.1967                11.2289                11.2295
 Frc consts  --     0.0000                 0.0000                 0.0000
 IR Inten    --     3.9213                28.1178                21.8877
 Raman Activ --     0.0000                 0.0000                 0.0000
 Depolar     --     0.0000                 0.0000                 0.0000
 Atom AN      X      Y      Z        X      Y      Z        X      Y      Z
   1   6    -0.08   0.09   0.00    -0.01   0.00   0.01    -0.16   0.07   0.00
   2   8     0.02   0.11   0.00    -0.04  -0.02   0.06    -0.39  -0.29  -0.00
   3   6     0.03   0.08  -0.02    -0.00   0.00  -0.50    -0.02   0.01   0.02
   4   6     0.39   0.25   0.01     0.02   0.01   0.29     0.24   0.10  -0.01
   5   6     0.45  -0.22  -0.01     0.02  -0.01  -0.29     0.27  -0.13  -0.00
   6   6    -0.02  -0.09   0.00     0.01   0.00   0.54    -0.16  -0.03  -0.02
   7   6    -0.35  -0.27  -0.01     0.03   0.01  -0.28     0.30   0.24  -0.00
   8   6    -0.40   0.19   0.01     0.03  -0.00   0.30     0.30   0.05  -0.02
   9   7    -0.01  -0.12   0.04    -0.06  -0.01  -0.17    -0.35  -0.04   0.07
  10   1    -0.04   0.03  -0.00     0.01  -0.01  -0.00     0.06   0.00   0.00
  11   1    -0.04   0.03   0.00    -0.00   0.01  -0.00     0.06   0.00  -0.00
  12   1    -0.01  -0.01   0.00    -0.01   0.01  -0.00    -0.11   0.17   0.00
  13   1     0.08   0.08   0.01     0.01   0.00   0.09     0.08   0.02   0.01
  14   1     0.11  -0.07   0.00     0.01  -0.00  -0.13     0.12   0.00   0.02
  15   1    -0.06  -0.09   0.00     0.01   0.00  -0.13     0.16   0.03   0.02
  16   1    -0.09   0.07   0.01     0.01   0.00   0.08     0.11   0.04   0.01
  17   1    -0.08  -0.06  -0.06     0.03  -0.02   0.12    -0.13   0.01  -0.11
  18   1     0.03  -0.06  -0.04     0.02   0.03   0.12    -0.15  -0.03  -0.11
                     16                     17                     18
                        a                      a                      a 
 Frequencies --   794.4328               852.4358               869.5889
 Red. masses --     5.2170                 3.3406                11.1672
 Frc consts  --     0.0000                 0.0000                 0.0000
 IR Inten    --    66.4473                 1.2244                 3.8919
 Raman Activ --     0.0000                 0.0000                 0.0000
 Depolar     --     0.0000                 0.0000                 0.0000
 Atom AN      X      Y      Z        X      Y      Z        X      Y      Z
   1   6     0.00  -0.00  -0.01    -0.00  -0.00  -0.00     0.11  -0.06  -0.00
   2   8     0.01   0.01  -0.06    -0.00  -0.00  -0.00     0.16   0.16  -0.00
   3   6     0.00   0.00   0.28     0.00   0.00   0.05    -0.15  -0.02   0.00
   4   6    -0.01  -0.00  -0.17    -0.00  -0.00  -0.23     0.09   0.45  -0.01
   5   6    -0.01   0.00  -0.21    -0.00  -0.00  -0.28    -0.04   0.33   0.00
   6   6     0.01   0.00   0.30     0.00  -0.00   0.03    -0.01  -0.01   0.00
   7   6    -0.01  -0.00  -0.24     0.00   0.00   0.18     0.03  -0.34   0.01
   8   6    -0.01  -0.00  -0.26    -0.00   0.00   0.21     0.20  -0.43  -0.01
   9   7     0.01   0.00  -0.09     0.00   0.00  -0.01    -0.36  -0.05   0.02
  10   1    -0.01  -0.01  -0.01    -0.00   0.01   0.01    -0.03  -0.00   0.00
  11   1     0.01   0.00  -0.01     0.00  -0.01   0.01    -0.03  -0.00  -0.00
  12   1     0.00  -0.00   0.02    -0.00   0.00  -0.01     0.07  -0.12   0.00
  13   1    -0.00  -0.00   0.30    -0.00   0.00   0.41     0.14   0.08   0.02
  14   1     0.00   0.00   0.35     0.01   0.01   0.56    -0.07   0.06  -0.00
  15   1     0.00  -0.00   0.44    -0.00   0.00  -0.34    -0.06  -0.07  -0.02
  16   1    -0.00   0.00   0.46    -0.00  -0.00  -0.44     0.12  -0.08   0.02
  17   1     0.00  -0.01   0.02     0.00  -0.00   0.00    -0.12  -0.02  -0.03
  18   1     0.00   0.01   0.02     0.00   0.00  -0.00    -0.13  -0.01  -0.03
                     19                     20                     21
                        a                      a                      a 
 Frequencies --   883.4773               906.8688              1007.5832
 Red. masses --     2.7112                 3.5942                 8.8179
 Frc consts  --     0.0000                 0.0000                 0.0000
 IR Inten    --     0.0629                 0.2562                 5.4817
 Raman Activ --     0.0000                 0.0000                 0.0000
 Depolar     --     0.0000                 0.0000                 0.0000
 Atom AN      X      Y      Z        X      Y      Z        X      Y      Z
   1   6     0.01  -0.00  -0.00     0.00  -0.00   0.00    -0.16   0.08   0.00
   2   8     0.01   0.01   0.02     0.00   0.00   0.01     0.03  -0.13  -0.00
   3   6    -0.01  -0.00   0.02    -0.00   0.00  -0.01     0.17   0.02  -0.00
   4   6     0.00   0.02   0.11     0.00   0.00   0.32     0.03  -0.31   0.00
   5   6    -0.00   0.01  -0.05    -0.00   0.00  -0.27    -0.12   0.44   0.00
   6   6    -0.00  -0.00  -0.02    -0.00  -0.00  -0.02     0.07  -0.01  -0.00
   7   6    -0.00  -0.01  -0.29     0.00  -0.00   0.16     0.00  -0.42   0.00
   8   6     0.01  -0.02   0.24     0.00  -0.00  -0.17    -0.05   0.34  -0.00
   9   7    -0.01  -0.00  -0.01    -0.00  -0.00  -0.00    -0.13  -0.04  -0.00
  10   1    -0.00   0.01   0.00     0.01  -0.01  -0.00     0.03   0.01   0.00
  11   1    -0.00  -0.01   0.00    -0.01   0.01  -0.00     0.03   0.01  -0.00
  12   1     0.00  -0.01  -0.02     0.00  -0.00   0.00    -0.08   0.11   0.00
  13   1     0.00   0.00  -0.33    -0.00   0.00  -0.62     0.21  -0.17   0.00
  14   1     0.00   0.01   0.22     0.01   0.01   0.52     0.12   0.23  -0.00
  15   1     0.01  -0.01   0.63    -0.01   0.00  -0.23     0.18  -0.19  -0.00
  16   1     0.00  -0.01  -0.54     0.00   0.00   0.24     0.14   0.20  -0.00
  17   1    -0.00  -0.00   0.00     0.00   0.00  -0.00    -0.01   0.01   0.01
  18   1    -0.00  -0.00  -0.00    -0.00   0.00   0.01    -0.09   0.01  -0.01
                     22                     23                     24
                        a                      a                      a 
 Frequencies --  1037.7770              1068.5892              1124.7869
 Red. masses --     3.9592                11.3728                 3.7455
 Frc consts  --     0.0000                 0.0000                 0.0000
 IR Inten    --     4.2276                42.8150                 2.3822
 Raman Activ --     0.0000                 0.0000                 0.0000
 Depolar     --     0.0000                 0.0000                 0.0000
 Atom AN      X      Y      Z        X      Y      Z        X      Y      Z
   1   6    -0.03  -0.02  -0.00     0.44  -0.38  -0.00     0.00  -0.00   0.43
   2   8    -0.00  -0.00   0.00    -0.43   0.42   0.00    -0.00  -0.00  -0.22
   3   6     0.00   0.07  -0.00    -0.23  -0.02   0.00    -0.00  -0.00  -0.00
   4   6    -0.07  -0.10  -0.00    -0.00  -0.16   0.00    -0.00   0.00  -0.00
   5   6     0.01  -0.14   0.01     0.10  -0.01   0.00    -0.00  -0.00   0.00
   6   6    -0.01   0.16  -0.00     0.01  -0.01  -0.00    -0.00   0.00  -0.00
   7   6     0.03  -0.21  -0.00     0.06   0.02   0.00    -0.00   0.00  -0.00
   8   6     0.10  -0.04   0.00    -0.04   0.16  -0.00     0.00   0.00   0.00
   9   7    -0.06   0.35  -0.00    -0.02   0.00   0.00     0.00   0.00  -0.00
  10   1     0.03  -0.01   0.00    -0.02  -0.04   0.00     0.35  -0.45  -0.18
  11   1     0.03  -0.01  -0.00    -0.02  -0.04  -0.00    -0.35   0.45  -0.17
  12   1    -0.03   0.04   0.00     0.15  -0.21  -0.00    -0.00   0.00  -0.22
  13   1    -0.14   0.02  -0.00     0.19  -0.13  -0.00     0.00  -0.00   0.01
  14   1    -0.01  -0.05   0.00     0.12   0.06  -0.00    -0.00  -0.00  -0.00
  15   1     0.06  -0.08  -0.00     0.14  -0.04  -0.00     0.00  -0.00   0.00
  16   1     0.14   0.07   0.00     0.08   0.11  -0.00     0.00   0.00  -0.02
  17   1    -0.53  -0.23  -0.13    -0.02  -0.00  -0.01    -0.00  -0.00  -0.00
  18   1     0.56  -0.09   0.13     0.01  -0.01  -0.00     0.00   0.00   0.00
                     25                     26                     27
                        a                      a                      a 
 Frequencies --  1133.9169              1160.1678              1192.3925
 Red. masses --     3.3218                 4.5268                 2.9908
 Frc consts  --     0.0000                 0.0000                 0.0000
 IR Inten    --     2.2810                 5.8862                27.7845
 Raman Activ --     0.0000                 0.0000                 0.0000
 Depolar     --     0.0000                 0.0000                 0.0000
 Atom AN      X      Y      Z        X      Y      Z        X      Y      Z
   1   6    -0.06  -0.20   0.00    -0.19  -0.35  -0.00    -0.04   0.14   0.00
   2   8    -0.03   0.17   0.00     0.09   0.31   0.00     0.17  -0.11  -0.00
   3   6     0.01   0.15  -0.00     0.02   0.04  -0.00    -0.22   0.05   0.00
   4   6    -0.06  -0.11  -0.00     0.07   0.01   0.00     0.00  -0.10   0.00
   5   6     0.13  -0.03   0.00    -0.06  -0.04  -0.00    -0.01  -0.17  -0.00
   6   6     0.00   0.11  -0.00    -0.00  -0.03   0.00    -0.02   0.03   0.00
   7   6    -0.09  -0.12  -0.00    -0.02   0.05   0.00    -0.05   0.07  -0.00
   8   6     0.10  -0.12   0.00    -0.02  -0.03  -0.00     0.07   0.05   0.00
   9   7    -0.00  -0.09   0.00     0.01   0.01  -0.00     0.00  -0.01  -0.00
  10   1     0.15  -0.04   0.02     0.31  -0.08   0.04    -0.05   0.03   0.00
  11   1     0.15  -0.04  -0.02     0.31  -0.08  -0.04    -0.05   0.03   0.00
  12   1    -0.12   0.18   0.00    -0.28   0.44   0.00     0.07  -0.13  -0.00
  13   1    -0.45   0.15   0.00     0.34  -0.13  -0.00     0.36  -0.19  -0.00
  14   1     0.41   0.27  -0.01    -0.25  -0.18   0.01    -0.12  -0.13   0.00
  15   1    -0.36   0.10   0.01    -0.04   0.03   0.00    -0.46   0.20   0.01
  16   1     0.25   0.12  -0.00    -0.08  -0.06   0.00     0.48   0.35  -0.00
  17   1     0.10   0.04   0.03    -0.01  -0.01  -0.00     0.01  -0.00   0.01
  18   1    -0.12   0.01  -0.03     0.01   0.00   0.00    -0.02   0.00  -0.00
                     28                     29                     30
                        a                      a                      a 
 Frequencies --  1226.0680              1280.5756              1314.8954
 Red. masses --     7.9251                 3.6769                10.5654
 Frc consts  --     0.0000                 0.0000                 0.0000
 IR Inten    --   313.2486                11.1794                 7.5896
 Raman Activ --     0.0000                 0.0000                 0.0000
 Depolar     --     0.0000                 0.0000                 0.0000
 Atom AN      X      Y      Z        X      Y      Z        X      Y      Z
   1   6    -0.13   0.07   0.00    -0.06  -0.03  -0.00     0.02  -0.05  -0.00
   2   8     0.38  -0.01  -0.00     0.07   0.09   0.00    -0.15   0.01   0.00
   3   6    -0.50   0.03   0.00    -0.07  -0.29   0.00     0.32  -0.19  -0.00
   4   6    -0.09   0.05   0.00     0.13  -0.06  -0.00    -0.04   0.24  -0.00
   5   6     0.02  -0.14   0.00     0.11   0.10  -0.00    -0.08   0.07   0.00
   6   6    -0.23  -0.01   0.01    -0.03   0.20   0.00    -0.47  -0.24   0.01
   7   6     0.08   0.10   0.00    -0.10   0.11   0.00    -0.39   0.04  -0.00
   8   6    -0.11  -0.14   0.00    -0.13  -0.07   0.00     0.31   0.01  -0.00
   9   7     0.14   0.02  -0.01     0.01  -0.07  -0.00     0.28   0.05  -0.01
  10   1     0.08  -0.01   0.00     0.06   0.00   0.02    -0.03   0.02   0.01
  11   1     0.08  -0.01  -0.00     0.06   0.00  -0.02    -0.03   0.01  -0.01
  12   1    -0.03   0.03   0.00    -0.01  -0.02   0.00    -0.02   0.03   0.00
  13   1     0.16  -0.07   0.00    -0.34   0.15   0.00     0.12   0.01  -0.00
  14   1     0.39   0.24  -0.01    -0.33  -0.24   0.01     0.07   0.10  -0.00
  15   1     0.37  -0.12  -0.01     0.39  -0.14  -0.01     0.05  -0.06  -0.00
  16   1     0.03   0.02   0.00     0.40   0.30  -0.00     0.20   0.08  -0.00
  17   1     0.09   0.03   0.01     0.09   0.04   0.02     0.13   0.05  -0.01
  18   1     0.10  -0.01   0.01    -0.10   0.02  -0.02     0.22  -0.04   0.02
                     31                     32                     33
                        a                      a                      a 
 Frequencies --  1347.5172              1403.7422              1431.2424
 Red. masses --    11.5104                 2.6512                 9.9342
 Frc consts  --     0.0000                 0.0000                 0.0000
 IR Inten    --    22.3683                 0.2451                13.3823
 Raman Activ --     0.0000                 0.0000                 0.0000
 Depolar     --     0.0000                 0.0000                 0.0000
 Atom AN      X      Y      Z        X      Y      Z        X      Y      Z
   1   6     0.06  -0.00  -0.00    -0.24   0.22   0.00     0.02   0.07   0.00
   2   8    -0.16  -0.04   0.00    -0.12   0.07   0.00    -0.01  -0.07   0.00
   3   6     0.18   0.41  -0.00     0.07  -0.01   0.00    -0.07   0.34  -0.00
   4   6     0.39  -0.07  -0.00     0.07   0.01  -0.00    -0.29  -0.16   0.00
   5   6    -0.36  -0.19  -0.00    -0.06   0.02   0.00     0.37  -0.02  -0.00
   6   6    -0.29   0.37   0.00    -0.05  -0.04   0.00    -0.05   0.35  -0.00
   7   6     0.17  -0.17   0.00     0.03  -0.02  -0.00    -0.37  -0.13   0.00
   8   6    -0.16  -0.27   0.00     0.01   0.02  -0.00     0.38  -0.03  -0.00
   9   7     0.13  -0.03  -0.00     0.02   0.01  -0.00     0.02  -0.10  -0.00
  10   1    -0.06   0.02   0.00     0.43  -0.26  -0.14    -0.00  -0.07  -0.06
  11   1    -0.06   0.02  -0.00     0.43  -0.26   0.13    -0.00  -0.07   0.06
  12   1     0.02  -0.01  -0.00     0.21  -0.51  -0.00     0.02  -0.03  -0.00
  13   1     0.07   0.00   0.00    -0.01   0.02   0.00     0.08  -0.12  -0.00
  14   1    -0.04  -0.00  -0.00    -0.00   0.02  -0.00    -0.12  -0.18   0.00
  15   1     0.06  -0.06  -0.00    -0.04   0.02   0.00     0.15  -0.14  -0.00
  16   1     0.06  -0.01  -0.00    -0.05  -0.03   0.00    -0.11  -0.17   0.00
  17   1     0.16   0.07   0.02     0.01   0.00  -0.00     0.10   0.04   0.02
  18   1     0.00  -0.00  -0.03     0.03  -0.01   0.00    -0.10   0.01  -0.02
                     34                     35                     36
                        a                      a                      a 
 Frequencies --  1474.3293              1486.4032              1491.2854
 Red. masses --     1.5537                 4.5246                 3.6762
 Frc consts  --     0.0000                 0.0000                 0.0000
 IR Inten    --     4.3055               108.6898                19.3427
 Raman Activ --     0.0000                 0.0000                 0.0000
 Depolar     --     0.0000                 0.0000                 0.0000
 Atom AN      X      Y      Z        X      Y      Z        X      Y      Z
   1   6    -0.00   0.00  -0.22     0.11   0.10   0.00     0.09   0.12   0.00
   2   8    -0.00   0.00  -0.03     0.08   0.05  -0.00    -0.03   0.04   0.00
   3   6     0.00  -0.00  -0.00    -0.25  -0.05   0.00     0.20  -0.02  -0.00
   4   6     0.00   0.00  -0.00     0.19  -0.13  -0.00    -0.12   0.14   0.00
   5   6    -0.00  -0.00   0.00     0.07   0.18  -0.00    -0.11  -0.16   0.00
   6   6     0.00  -0.00  -0.00    -0.24  -0.10   0.02     0.20   0.05  -0.02
   7   6    -0.00   0.00   0.00     0.16  -0.10  -0.00    -0.10   0.11   0.00
   8   6    -0.00  -0.00   0.00     0.07   0.14  -0.00    -0.11  -0.14   0.00
   9   7     0.00   0.00  -0.00    -0.05   0.01   0.01     0.07   0.01  -0.02
  10   1     0.46   0.05   0.08    -0.17  -0.33  -0.25    -0.15  -0.36  -0.27
  11   1    -0.46  -0.06   0.09    -0.17  -0.33   0.25    -0.14  -0.36   0.27
  12   1     0.00  -0.00   0.72    -0.08   0.21  -0.00    -0.07   0.18  -0.01
  13   1     0.00   0.00   0.00    -0.15   0.05   0.00     0.11  -0.02  -0.00
  14   1     0.00   0.00   0.00    -0.13  -0.06   0.00     0.13   0.07  -0.00
  15   1     0.00   0.00   0.00    -0.16   0.05   0.00     0.13  -0.03  -0.00
  16   1     0.00   0.00  -0.02    -0.09  -0.03   0.00     0.16   0.10  -0.00
  17   1    -0.00  -0.00   0.00     0.20   0.16  -0.06    -0.22  -0.19   0.07
  18   1    -0.00   0.00   0.00     0.26  -0.12  -0.05    -0.27   0.13   0.07
                     37                     38                     39
                        a                      a                      a 
 Frequencies --  1516.8972              1580.8277              1629.3799
 Red. masses --     6.2402                11.5955                11.5575
 Frc consts  --     0.0000                 0.0000                 0.0000
 IR Inten    --   288.1800                15.4811                11.0145
 Raman Activ --     0.0000                 0.0000                 0.0000
 Depolar     --     0.0000                 0.0000                 0.0000
 Atom AN      X      Y      Z        X      Y      Z        X      Y      Z
   1   6    -0.01   0.01  -0.00    -0.02  -0.01  -0.00     0.00  -0.00  -0.00
   2   8    -0.04  -0.00   0.00     0.04   0.04  -0.00     0.04   0.01  -0.00
   3   6     0.23   0.00  -0.00    -0.00  -0.51   0.00    -0.25  -0.04   0.00
   4   6    -0.24   0.11  -0.00    -0.14   0.24   0.00     0.43  -0.06  -0.00
   5   6     0.00  -0.13  -0.00    -0.09  -0.28   0.00    -0.43  -0.18   0.00
   6   6     0.32   0.09   0.04    -0.10   0.52  -0.00     0.36   0.02   0.00
   7   6    -0.03   0.08  -0.00     0.19  -0.29  -0.00    -0.43   0.10   0.00
   8   6    -0.16  -0.13  -0.00     0.12   0.33  -0.00     0.36   0.15  -0.00
   9   7    -0.37  -0.05   0.05     0.02  -0.06  -0.00    -0.11  -0.01   0.01
  10   1     0.00  -0.03  -0.02     0.01  -0.00   0.00    -0.01   0.00   0.00
  11   1     0.00  -0.03   0.02     0.01  -0.00  -0.00    -0.01   0.00  -0.00
  12   1    -0.00  -0.00   0.00    -0.01   0.02   0.00    -0.00   0.01   0.00
  13   1     0.12  -0.05   0.00     0.05   0.02  -0.00    -0.07   0.07   0.00
  14   1     0.08   0.02   0.00     0.07  -0.00  -0.00     0.07   0.08  -0.00
  15   1     0.08  -0.01   0.00    -0.09  -0.01   0.00     0.09  -0.05  -0.00
  16   1     0.10   0.07   0.00    -0.11  -0.01   0.00    -0.05  -0.06   0.00
  17   1     0.35   0.34  -0.16     0.06   0.02   0.02     0.02   0.04  -0.03
  18   1     0.40  -0.24  -0.16    -0.07   0.01  -0.01     0.03  -0.03  -0.03
                     40                     41                     42
                        a                      a                      a 
 Frequencies --  2918.2019              2934.7584              3022.3109
 Red. masses --     1.9425                 1.4508                 1.6835
 Frc consts  --     0.0000                 0.0000                 0.0000
 IR Inten    --    49.7711                37.6961                20.1774
 Raman Activ --     0.0000                 0.0000                 0.0000
 Depolar     --     0.0000                 0.0000                 0.0000
 Atom AN      X      Y      Z        X      Y      Z        X      Y      Z
   1   6     0.00   0.01  -0.29     0.06   0.19   0.01    -0.23  -0.10   0.00
   2   8    -0.00   0.00  -0.01    -0.01   0.02   0.00    -0.01   0.00   0.00
   3   6     0.00   0.00   0.00     0.00   0.00  -0.00     0.00  -0.00   0.00
   4   6    -0.00  -0.00  -0.00    -0.00  -0.00   0.00     0.00   0.00  -0.00
   5   6     0.00   0.00  -0.00     0.00  -0.00   0.00    -0.00   0.00   0.00
   6   6     0.00  -0.00  -0.00     0.00  -0.00   0.00     0.00   0.00   0.00
   7   6    -0.00  -0.00  -0.00    -0.00  -0.00   0.00    -0.00  -0.00   0.00
   8   6     0.00  -0.00   0.00     0.00  -0.00  -0.00    -0.00   0.00  -0.00
   9   7    -0.00   0.00   0.00    -0.00  -0.00  -0.00    -0.00   0.00  -0.00
  10   1    -0.09  -0.42   0.56    -0.06  -0.35   0.56    -0.03  -0.03   0.02
  11   1     0.09   0.38   0.51    -0.08  -0.38  -0.61    -0.03  -0.03  -0.02
  12   1    -0.00   0.00  -0.05    -0.03   0.01   0.00     0.88   0.40  -0.00
  13   1     0.00   0.00  -0.00     0.00   0.00  -0.00    -0.00  -0.00   0.00
  14   1     0.00  -0.00  -0.00     0.00  -0.00   0.00     0.00  -0.00   0.00
  15   1     0.00   0.00  -0.00     0.00   0.00   0.00     0.00   0.00  -0.00
  16   1    -0.00   0.00   0.00    -0.01   0.01  -0.00     0.01  -0.01   0.00
  17   1     0.00  -0.00  -0.00     0.00   0.00   0.00     0.00  -0.00   0.00
  18   1    -0.00   0.00  -0.00    -0.00   0.00   0.00     0.00   0.00   0.00
                     43                     44                     45
                        a                      a                      a 
 Frequencies --  3070.4083              3075.4400              3099.9534
 Red. masses --     1.8044                 1.8053                 1.8456
 Frc consts  --     0.0000                 0.0000                 0.0000
 IR Inten    --    36.1055                34.5496                43.8635
 Raman Activ --     0.0000                 0.0000                 0.0000
 Depolar     --     0.0000                 0.0000                 0.0000
 Atom AN      X      Y      Z        X      Y      Z        X      Y      Z
   1   6     0.00   0.00  -0.00     0.00   0.00   0.00     0.00   0.00  -0.00
   2   8    -0.00  -0.00   0.00    -0.00   0.00   0.00     0.00   0.00   0.00
   3   6    -0.00   0.01  -0.00    -0.00  -0.00   0.00    -0.01  -0.00   0.00
   4   6     0.01   0.01  -0.00    -0.02  -0.04   0.00     0.02   0.03  -0.00
   5   6     0.05  -0.06   0.00    -0.15   0.20   0.00    -0.00   0.00  -0.00
   6   6    -0.01  -0.00  -0.00    -0.01   0.00  -0.00     0.00  -0.00   0.00
   7   6    -0.10  -0.23   0.00    -0.03  -0.07   0.00     0.02   0.06  -0.00
   8   6    -0.03   0.04  -0.00    -0.01   0.02  -0.00    -0.15   0.22  -0.00
   9   7     0.00   0.00  -0.00     0.00  -0.00   0.00    -0.00   0.00  -0.00
  10   1    -0.00  -0.00   0.00     0.00   0.00  -0.00    -0.00  -0.01   0.01
  11   1    -0.00  -0.00  -0.00     0.00   0.00   0.00    -0.00  -0.01  -0.01
  12   1    -0.00  -0.00   0.00    -0.00  -0.00   0.00    -0.01  -0.01   0.00
  13   1    -0.02  -0.04   0.00     0.07   0.16  -0.00    -0.05  -0.12   0.00
  14   1    -0.16   0.22  -0.00     0.54  -0.73   0.00     0.01  -0.01   0.00
  15   1     0.34   0.83  -0.00     0.10   0.25  -0.00    -0.08  -0.19   0.00
  16   1     0.12  -0.16   0.00     0.04  -0.06   0.00     0.54  -0.76   0.00
  17   1     0.00  -0.00  -0.00     0.00   0.00  -0.00    -0.00   0.00   0.00
  18   1     0.00  -0.00   0.00     0.00   0.00  -0.00    -0.00   0.00   0.00
                     46                     47                     48
                        a                      a                      a 
 Frequencies --  3106.6510              3451.3107              3502.6231
 Red. masses --     1.8520                 1.4557                 2.1455
 Frc consts  --     0.0000                 0.0000                 0.0000
 IR Inten    --    19.5369                 1.0639                 0.0537
 Raman Activ --     0.0000                 0.0000                 0.0000
 Depolar     --     0.0000                 0.0000                 0.0000
 Atom AN      X      Y      Z        X      Y      Z        X      Y      Z
   1   6     0.00   0.00   0.00     0.00  -0.00  -0.00     0.00   0.00   0.00
   2   8    -0.00  -0.00   0.00    -0.00  -0.00  -0.00    -0.00  -0.00  -0.00
   3   6     0.01   0.00  -0.00     0.00   0.00   0.00     0.00  -0.00   0.00
   4   6     0.11   0.24  -0.00     0.00   0.00   0.00    -0.00   0.00   0.00
   5   6    -0.04   0.05   0.00    -0.00  -0.00  -0.00     0.00  -0.00  -0.00
   6   6    -0.00  -0.00   0.00     0.00   0.00  -0.01    -0.00   0.01   0.00
   7   6    -0.00  -0.01   0.00    -0.00   0.00  -0.00    -0.00  -0.00   0.00
   8   6     0.02  -0.03   0.00     0.00   0.00   0.00     0.00   0.00  -0.00
   9   7     0.00   0.00   0.00     0.16   0.02  -0.10    -0.04   0.29  -0.00
  10   1     0.00  -0.00   0.00    -0.00   0.00  -0.00     0.00  -0.00   0.00
  11   1     0.00  -0.00  -0.00     0.00   0.00   0.00    -0.00  -0.00  -0.00
  12   1    -0.00  -0.00   0.00     0.00   0.00  -0.00    -0.00  -0.00   0.00
  13   1    -0.38  -0.86   0.00    -0.00  -0.00  -0.00     0.00   0.00  -0.00
  14   1     0.10  -0.14   0.00     0.00  -0.00  -0.00     0.00  -0.00   0.00
  15   1     0.01   0.03  -0.00     0.00   0.00  -0.00     0.00  -0.00  -0.00
  16   1    -0.07   0.10  -0.00    -0.00   0.00  -0.00    -0.00  -0.00  -0.00
  17   1     0.00   0.00  -0.00    -0.37   0.56   0.19     0.38  -0.52  -0.21
  18   1     0.00   0.00  -0.00    -0.22  -0.63   0.19    -0.24  -0.59   0.21
