
                                 *****************
                                 * O   R   C   A *
                                 *****************

                                            #,                                       
                                            ###                                      
                                            ####                                     
                                            #####                                    
                                            ######                                   
                                           ########,                                 
                                     ,,################,,,,,                         
                               ,,#################################,,                 
                          ,,##########################################,,             
                       ,#########################################, ''#####,          
                    ,#############################################,,   '####,        
                  ,##################################################,,,,####,       
                ,###########''''           ''''###############################       
              ,#####''   ,,,,##########,,,,          '''####'''          '####       
            ,##' ,,,,###########################,,,                        '##       
           ' ,,###''''                  '''############,,,                           
         ,,##''                                '''############,,,,        ,,,,,,###''
      ,#''                                            '''#######################'''  
     '                                                          ''''####''''         
             ,#######,   #######,   ,#######,      ##                                
            ,#'     '#,  ##    ##  ,#'     '#,    #''#        ,####,   ,####,        
            ##       ##  ##   ,#'  ##            #'  '#       #'       #'  '#        
            ##       ##  #######   ##           ,######,      #####,   #    #        
            '#,     ,#'  ##    ##  '#,     ,#' ,#      #,     #,   #   #,  ,#        
             '#######'   ##     ##  '#######'  #'      '#     '####' # '####'        



                #########################################################
                #                        -***-                          #
                #          Department of theory and spectroscopy        #
                #                                                       #
                #                      Frank Neese                      #
                #                                                       #
                #     Directorship, Architecture, Infrastructure        #
                #                    SHARK, DRIVERS                     #
                #        Core code/Algorithms in most modules           #
                #                                                       #
                #        Max Planck Institute fuer Kohlenforschung      #
                #                Kaiser Wilhelm Platz 1                 #
                #                 D-45470 Muelheim/Ruhr                 #
                #                      Germany                          #
                #                                                       #
                #                  All rights reserved                  #
                #                        -***-                          #
                #########################################################


                         Program Version 6.0.1  -  RELEASE   -


 With contributions from (in alphabetic order):
[Max-Planck-Institut fuer Kohlenforschung]                               
  Daniel Aravena         : Magnetic Suceptibility                        
  Michael Atanasov       : Ab Initio Ligand Field Theory (pilot matlab implementation)
  Alexander A. Auer      : GIAO ZORA, VPT2 properties, NMR spectrum      
  Ute Becker             : All parallelization in ORCA, NUMFREQ, NUMCALC 
  Giovanni Bistoni       : ED, misc. LED, open-shell LED, HFLD           
  Martin Brehm           : Molecular dynamics                            
  Dmytro Bykov           : pre 5.0 version of the SCF Hessian            
  Marcos Casanova-Páez   : Triplet and SCS-CIS(D). UHF-(DLPNO)-IP/EA/STEOM-CCSD. UHF-CVS-IP/STEOM-CCSD   
  Vijay G. Chilkuri      : MRCI spin determinant printing, contributions to CSF-ICE 
  Pauline Colinet        : FMM embedding                                 
  Dipayan Datta          : RHF DLPNO-CCSD density                        
  Achintya Kumar Dutta   : EOM-CC, STEOM-CC                              
  Nicolas Foglia         : Exact transition moments, OPA infrastructure, MCD improvements    
  Dmitry Ganyushin       : Spin-Orbit,Spin-Spin,Magnetic field MRCI      
  Miquel Garcia-Rates    : C-PCM and meta-GGA Hessian, CCSD/C-PCM, Gaussian charge scheme 
  Tiago L. C. Gouveia    : GS-ROHF, GS-ROCIS                             
  Yang Guo               : DLPNO-NEVPT2, F12-NEVPT2, CIM, IAO-localization        
  Andreas Hansen         : Spin unrestricted coupled pair/coupled cluster methods 
  Ingolf Harden          : AUTO-CI MPn and infrastructure                
  Benjamin Helmich-Paris : MC-RPA, TRAH-(SCF,CASSCF), AVAS, COSX integrals, SCF dyn. polar. 
  Lee Huntington         : MR-EOM, pCC                                   
  Robert Izsak           : Overlap fitted RIJCOSX, COSX-SCS-MP3, EOM     
  Riya Kayal             : Wick's Theorem for AUTO-CI, AUTO-CI UHF-CCSDT 
  Emily Kempfer          : AUTO-CI, RHF CISDT and CCSDT                  
  Christian Kollmar      : KDIIS, OOCD, Brueckner-CCSD(T), CCSD density, CASPT2, CASPT2-K, improved NEVPT2 
  Axel Koslowski         : Symmetry handling                             
  Simone Kossmann        : meta-GGA functionals, TD-DFT gradient, OOMP2, (MP2 Hessian; deprecated post 5.0) 
  Lucas Lang             : DCDCAS                                        
  Marvin Lechner         : AUTO-CI (C++ implementation), FIC-MRCC        
  Spencer Leger          : CASSCF response                               
  Dagmar Lenk            : GEPOL surface, SMD, ORCA-2-JSON               
  Dimitrios Liakos       : Extrapolation schemes; Compound Job, initial MDCI parallelization 
  Dimitrios Manganas     : Further ROCIS development; embedding schemes. LFT, Crystal Embedding 
  Dimitrios Pantazis     : SARC Basis sets                               
  Anastasios Papadopoulos: AUTO-CI, single reference methods and gradients 
  Taras Petrenko         : pre 6.0 DFT Hessian and TD-DFT gradient, (ASA, deprecated), ECA, 1-Electron XAS/XES, NRVS 
  Peter Pinski           : DLPNO-MP2, DLPNO-MP2 Gradient                 
  Christoph Reimann      : Effective Core Potentials                     
  Marius Retegan         : Local ZFS, SOC                                
  Christoph Riplinger    : Optimizer, TS searches, QM/MM, DLPNO-CCSD(T), (RO)-DLPNO pert. Triples 
  Michael Roemelt        : Original ROCIS implementation                 
  Masaaki Saitow         : Open-shell DLPNO-CCSD energy and density      
  Barbara Sandhoefer     : DKH picture change effects                    
  Kantharuban Sivalingam : CASSCF convergence/infrastructure, NEVPT2 and variants, FIC-MRCI 
  Bernardo de Souza      : ESD, SOC TD-DFT                               
  Georgi L. Stoychev     : AutoAux, RI-MP2 NMR, DLPNO-MP2 response, X2C  
  Van Anh Tran           : RI-MP2 g-tensors                              
  Willem Van den Heuvel  : Paramagnetic NMR                              
  Zikuan Wang            : NOTCH, Electric field optimization            
  Frank Wennmohs         : Technical directorship and infrastructure     
  Hang Xu                : AUTO-CI-Response properties                   
                                                                         
[FACCTs GmbH]                                                            
  Markus Bursch, Miquel Garcia-Rates, Christoph Riplinger, Bernardo de Souza, Georgi L. Stoychev 
                                                                 
  APM, Basis sets (HGBS, AHGBS, def-TZVP (Ac-Lr), def2-XVPD (La-Lu)), CI-OPT, improved COSX, DLPNO-Multilevel,           
  DOCKER, DRACO, updates on ESD, GOAT, IRC, LR-CPCM, MBIS, meta-GGA TD-DFT gradient, ML-optimized integration grids, 
  MM, NACMEs, nearIR, NEB, NEB-TS, NL-DFT gradient (VV10), 2- and 3-layer-ONIOM, interface openCOSMO-RS, QMMM,   
  Crystal-QMMM, SF, symmetry and pop. for TD-DFT, r2SCAN hybrids, SOLVATOR                                   
                                                                         
[Other institutions]                                                     
  V. Asgeirsson          : NEB                                           
  Christoph Bannwarth    : sTDA-DFT, sTD-DFT, PBEh-3c, B97-3c, D3        
  Sebastian Ehlert       : rSCAN, r2SCAN, r2SCAN-3c, D4, dhf basis sets  
  Marvin Friede          : D4 for Fr, Ra, Ac-Lr                          
  Lars Goerigk           : TD-DFT with DH, B97 family of functionals     
  Stefan Grimme          : VdW corrections, initial TS optimization, DFT functionals, gCP, sTDA/sTD-DF 
  Waldemar Hujo          : DFT-NL                                        
  H. Jonsson             : NEB                                           
  Holger Kruse           : gCP                                           
  Marcel Mueller         : wB97X-3c, vDZP basis set                      
  Hagen Neugebauer       : wr2SCAN                                       
  Tobias Risthaus        : range-separated hybrid DFT                    
  Lukas Wittmann         : regularized MP2, r2SCAN double-hybrids, wr2SCAN        
                                                                         
We gratefully acknowledge several colleagues who have allowed us to      
interface, adapt or use parts of their codes:                            
  Ed Valeev, F. Pavosevic, A. Kumar             : LibInt (2-el integral package), F12 methods 
  Garnet Chan, S. Sharma, J. Yang, R. Olivares  : DMRG                   
  Ulf Ekstrom                                   : XCFun DFT Library      
  Mihaly Kallay                                 : mrcc  (arbitrary order and MRCC methods)
  Frank Weinhold                                : gennbo (NPA and NBO analysis)           
  Simon Mueller                                 : openCOSMO-RS                            
  Christopher J. Cramer and Donald G. Truhlar   : smd solvation model                     
  S Lehtola, MJT Oliveira, MAL Marques          : LibXC Library                           
  Liviu Ungur et al                             : ANISO software                          


 Your calculation uses the libint2 library for the computation of 2-el integrals
 For citations please refer to: http://libint.valeyev.net

 Your ORCA version has been built with support for libXC version: 6.2.2
 For citations please refer to: https://libxc.gitlab.io

 This ORCA versions uses:
   CBLAS   interface :  Fast vector & matrix operations
   LAPACKE interface :  Fast linear algebra routines
   SCALAPACK package :  Parallel linear algebra routines
   Shared memory     :  Shared parallel matrices
   BLAS/LAPACK       :  OpenBLAS 0.3.27  USE64BITINT DYNAMIC_ARCH NO_AFFINITY Zen SINGLE_THREADED
        Core in use  :  Zen
   Copyright (c) 2011-2014, The OpenBLAS Project


Your calculation utilizes the geometrical counterpoise correction gCP
Please cite in your paper:
H.Kruse, S. Grimme J.Chem.Phys., 136, (2012), 154101 
   

Your calculation utilizes the atom-pairwise dispersion correction
based on EEQ partial charges (D4)


================================================================================

----- Orbital basis set information -----
Your calculation utilizes the basis: def2-mTZVPP
   Stefan Grimme, Andreas Hansen, Sebastian Ehlert, and Jan-Michael Mewes 
   J. Chem. Phys. 154, 064103 (2021). DOI: 10.1063/5.0040021

----- AuxJ basis set information -----
Your calculation utilizes the auxiliary basis: def2/J
   F. Weigend, Phys. Chem. Chem. Phys. 8, 1057 (2006).

================================================================================
                                        WARNINGS
                       Please study these warnings very carefully!
================================================================================



WARNING: SCAN, rSCAN, or r2SCAN functional requested.
  ===> : libXC variant has now been activated.



================================================================================
                                       INPUT FILE
================================================================================
NAME = sp.inp
|  1> ! r2scan-3c def2/J RI DEFGRID2 scfconv6 printgap
|  2> %output
|  3>     printlevel normal
|  4> end
|  5> * xyz 0 1
|  6> C -2.1535082243 -0.9009234076 -0.2607343586
|  7> C -1.1604619407 -0.341323914 0.7839434566
|  8> H -1.7108559392 -0.3637952951 1.7373493966
|  9> C -0.7479194549 1.1253381555 0.5361587549
| 10> H -1.6089519554 1.6685757666 0.114410991
| 11> C 0.4346963798 1.2797164311 -0.4348634421
| 12> H 0.8285528751 2.2987387286 -0.2908529629
| 13> C 1.5625174229 0.2997657028 -0.0671129743
| 14> H 2.2873470531 0.2464217631 -0.8894808373
| 15> C 1.0446652994 -1.145281208 0.1670577553
| 16> H 1.8333043915 -1.6846529931 0.7097538273
| 17> O -0.0531327084 -1.1837717038 1.0450936499
| 18> O 0.8466966072 -1.8243907435 -1.0258217109
| 19> O 2.2688651078 0.772992537 1.0452924621
| 20> O -0.0405714495 1.1372600892 -1.7566150434
| 21> O -0.3265337777 1.7330239394 1.7394211206
| 22> O -1.6821566187 -0.9895946317 -1.5777086771
| 23> H -3.0613023338 -0.2821731225 -0.2198430095
| 24> H -2.4105809693 -1.9217627376 0.033269946
| 25> H -0.0662114227 -1.6708202723 -1.3506769807
| 26> H 1.6296061173 0.9736244554 1.7446696621
| 27> H 0.7137071418 1.0494232576 -2.3508373102
| 28> H -1.0183536922 1.6503000262 2.4053371457
| 29> H -1.3439528433 -0.1179780004 -1.8576710193
| 30> *
| 31> 
| 32>                          ****END OF INPUT****
================================================================================

                       ****************************
                       * Single Point Calculation *
                       ****************************

---------------------------------
CARTESIAN COORDINATES (ANGSTROEM)
---------------------------------
  C     -2.153508   -0.900923   -0.260734
  C     -1.160462   -0.341324    0.783943
  H     -1.710856   -0.363795    1.737349
  C     -0.747919    1.125338    0.536159
  H     -1.608952    1.668576    0.114411
  C      0.434696    1.279716   -0.434863
  H      0.828553    2.298739   -0.290853
  C      1.562517    0.299766   -0.067113
  H      2.287347    0.246422   -0.889481
  C      1.044665   -1.145281    0.167058
  H      1.833304   -1.684653    0.709754
  O     -0.053133   -1.183772    1.045094
  O      0.846697   -1.824391   -1.025822
  O      2.268865    0.772993    1.045292
  O     -0.040571    1.137260   -1.756615
  O     -0.326534    1.733024    1.739421
  O     -1.682157   -0.989595   -1.577709
  H     -3.061302   -0.282173   -0.219843
  H     -2.410581   -1.921763    0.033270
  H     -0.066211   -1.670820   -1.350677
  H      1.629606    0.973624    1.744670
  H      0.713707    1.049423   -2.350837
  H     -1.018354    1.650300    2.405337
  H     -1.343953   -0.117978   -1.857671

----------------------------
CARTESIAN COORDINATES (A.U.)
----------------------------
  NO LB      ZA    FRAG     MASS         X           Y           Z
   0 C     6.0000    0    12.011   -4.069541   -1.702499   -0.492717
   1 C     6.0000    0    12.011   -2.192955   -0.645009    1.481438
   2 H     1.0000    0     1.008   -3.233049   -0.687473    3.283115
   3 C     6.0000    0    12.011   -1.413363    2.126581    1.013193
   4 H     1.0000    0     1.008   -3.040479    3.153151    0.216205
   5 C     6.0000    0    12.011    0.821457    2.418314   -0.821773
   6 H     1.0000    0     1.008    1.565738    4.343987   -0.549632
   7 C     6.0000    0    12.011    2.952730    0.566475   -0.126825
   8 H     1.0000    0     1.008    4.322460    0.465670   -1.680875
   9 C     6.0000    0    12.011    1.974131   -2.164268    0.315693
  10 H     1.0000    0     1.008    3.464443   -3.183533    1.341240
  11 O     8.0000    0    15.999   -0.100406   -2.237004    1.974941
  12 O     8.0000    0    15.999    1.600025   -3.447599   -1.938522
  13 O     8.0000    0    15.999    4.287534    1.460744    1.975316
  14 O     8.0000    0    15.999   -0.076669    2.149110   -3.319521
  15 O     8.0000    0    15.999   -0.617059    3.274941    3.287030
  16 O     8.0000    0    15.999   -3.178815   -1.870063   -2.981437
  17 H     1.0000    0     1.008   -5.785023   -0.533230   -0.415443
  18 H     1.0000    0     1.008   -4.555338   -3.631605    0.062871
  19 H     1.0000    0     1.008   -0.125121   -3.157393   -2.552410
  20 H     1.0000    0     1.008    3.079509    1.839884    3.296948
  21 H     1.0000    0     1.008    1.348711    1.983123   -4.442439
  22 H     1.0000    0     1.008   -1.924410    3.118615    4.545428
  23 H     1.0000    0     1.008   -2.539703   -0.222946   -3.510489

--------------------------------
INTERNAL COORDINATES (ANGSTROEM)
--------------------------------
 C      0   0   0     0.000000000000     0.00000000     0.00000000
 C      1   0   0     1.546170835380     0.00000000     0.00000000
 H      2   1   0     1.101100087631   104.86847289     0.00000000
 C      2   1   3     1.543595214782   114.02152663   243.31670046
 H      4   2   1     1.101977878810   108.72386158    34.52758490
 C      4   2   1     1.537952200664   113.71819469   274.12366092
 H      6   4   2     1.101938473696   106.56804683   197.14885649
 C      6   4   2     1.538676100328   110.41388733   313.24944211
 H      8   6   4     1.097502834080   109.63057475   166.65169863
 C      8   6   4     1.552793394766   112.59923505    47.98614600
 H     10   8   6     1.098814163867   106.97362592   196.96912292
 O     10   8   6     1.406267761275   112.33207874   310.23116486
 O     10   8   6     1.386846345195   111.93734825    80.46163905
 O      8   6   4     1.400113046687   110.14614970   283.13240271
 O      6   4   2     1.411807569910   108.79067920    79.01724751
 O      4   2   1     1.412334316518   110.59772238   155.78531573
 O      1   2   3     1.401590624139   116.21690236   180.58817835
 H      1   2   3     1.099369893614   107.54832394    56.33508824
 H      1   2   3     1.092994906219   107.89954078   299.17868796
 H     13  10   8     0.981078950440   109.93703421   270.83266121
 H     14   8   6     0.968521394444   108.10474785    51.93557234
 H     15   6   4     0.964236280504   108.83278503   191.67370229
 H     16   4   2     0.963795721301   109.72789537   304.81469089
 H     17   1   2     0.975948901687   109.24340186   305.97722472

---------------------------
INTERNAL COORDINATES (A.U.)
---------------------------
 C      0   0   0     0.000000000000     0.00000000     0.00000000
 C      1   0   0     2.921839435125     0.00000000     0.00000000
 H      2   1   0     2.080777611659   104.86847289     0.00000000
 C      2   1   3     2.916972217569   114.02152663   243.31670046
 H      4   2   1     2.082436396589   108.72386158    34.52758490
 C      4   2   1     2.906308466316   113.71819469   274.12366092
 H      6   4   2     2.082361931717   106.56804683   197.14885649
 C      6   4   2     2.907676438431   110.41388733   313.24944211
 H      8   6   4     2.073979787614   109.63057475   166.65169863
 C      8   6   4     2.934354258669   112.59923505    47.98614600
 H     10   8   6     2.076457841782   106.97362592   196.96912292
 O     10   8   6     2.657460939773   112.33207874   310.23116486
 O     10   8   6     2.620759782248   111.93734825    80.46163905
 O      8   6   4     2.645830214768   110.14614970   283.13240271
 O      6   4   2     2.667929660926   108.79067920    79.01724751
 O      4   2   1     2.668925067757   110.59772238   155.78531573
 O      1   2   3     2.648622431494   116.21690236   180.58817835
 H      1   2   3     2.077508018809   107.54832394    56.33508824
 H      1   2   3     2.065461038524   107.89954078   299.17868796
 H     13  10   8     1.853970532087   109.93703421   270.83266121
 H     14   8   6     1.830240190343   108.10474785    51.93557234
 H     15   6   4     1.822142498543   108.83278503   191.67370229
 H     16   4   2     1.821309962305   109.72789537   304.81469089
 H     17   1   2     1.844276144889   109.24340186   305.97722472

---------------------
BASIS SET INFORMATION
---------------------
There are 3 groups of distinct atoms

 Group   1 Type C   : 11s6p1d contracted to 5s3p1d pattern {62111/411/1}
 Group   2 Type H   : 4s1p contracted to 2s1p pattern {31/1}
 Group   3 Type O   : 11s6p2d contracted to 5s3p2d pattern {62111/411/11}

Atom   0C    basis set group =>   1
Atom   1C    basis set group =>   1
Atom   2H    basis set group =>   2
Atom   3C    basis set group =>   1
Atom   4H    basis set group =>   2
Atom   5C    basis set group =>   1
Atom   6H    basis set group =>   2
Atom   7C    basis set group =>   1
Atom   8H    basis set group =>   2
Atom   9C    basis set group =>   1
Atom  10H    basis set group =>   2
Atom  11O    basis set group =>   3
Atom  12O    basis set group =>   3
Atom  13O    basis set group =>   3
Atom  14O    basis set group =>   3
Atom  15O    basis set group =>   3
Atom  16O    basis set group =>   3
Atom  17H    basis set group =>   2
Atom  18H    basis set group =>   2
Atom  19H    basis set group =>   2
Atom  20H    basis set group =>   2
Atom  21H    basis set group =>   2
Atom  22H    basis set group =>   2
Atom  23H    basis set group =>   2
---------------------------------
AUXILIARY/J BASIS SET INFORMATION
---------------------------------
There are 3 groups of distinct atoms

 Group   1 Type C   : 12s5p4d2f1g contracted to 6s4p3d1f1g pattern {711111/2111/211/2/1}
 Group   2 Type H   : 5s2p1d contracted to 3s1p1d pattern {311/2/1}
 Group   3 Type O   : 12s5p4d2f1g contracted to 6s4p3d1f1g pattern {711111/2111/211/2/1}

Atom   0C    basis set group =>   1
Atom   1C    basis set group =>   1
Atom   2H    basis set group =>   2
Atom   3C    basis set group =>   1
Atom   4H    basis set group =>   2
Atom   5C    basis set group =>   1
Atom   6H    basis set group =>   2
Atom   7C    basis set group =>   1
Atom   8H    basis set group =>   2
Atom   9C    basis set group =>   1
Atom  10H    basis set group =>   2
Atom  11O    basis set group =>   3
Atom  12O    basis set group =>   3
Atom  13O    basis set group =>   3
Atom  14O    basis set group =>   3
Atom  15O    basis set group =>   3
Atom  16O    basis set group =>   3
Atom  17H    basis set group =>   2
Atom  18H    basis set group =>   2
Atom  19H    basis set group =>   2
Atom  20H    basis set group =>   2
Atom  21H    basis set group =>   2
Atom  22H    basis set group =>   2
Atom  23H    basis set group =>   2

Checking for AutoStart:
The File: sp.gbw exists
Trying to determine its content:
     ... Fine, the file contains calculation information
     ... Fine, the calculation information was read
     ... Fine, the file contains a basis set
     ... Fine, the basis set was read
     ... Fine, the file contains a geometry
     ... Fine, the geometry was read
     ... Fine, the file contains a set of orbitals
     ... Fine, the orbitals can be read
     => possible old guess file was deleted
     => GBW file was renamed to GES file
     => GES file is set as startup file
     => Guess is set to MORead
     ... now leaving AutoStart

------------------------------------------------------------------------------
                             ORCA STARTUP CALCULATIONS
                           -- RI-GTO INTEGRALS CHOSEN --
------------------------------------------------------------------------------
------------------------------------------------------------------------------
                   ___                                                        
                  /   \      - P O W E R E D   B Y -                         
                 /     \                                                     
                 |  |  |   _    _      __       _____    __    __             
                 |  |  |  | |  | |    /  \     |  _  \  |  |  /  |          
                  \  \/   | |  | |   /    \    | | | |  |  | /  /          
                 / \  \   | |__| |  /  /\  \   | |_| |  |  |/  /          
                |  |  |   |  __  | /  /__\  \  |    /   |      \           
                |  |  |   | |  | | |   __   |  |    \   |  |\   \          
                \     /   | |  | | |  |  |  |  | |\  \  |  | \   \       
                 \___/    |_|  |_| |__|  |__|  |_| \__\ |__|  \__/        
                                                                              
                      - O R C A' S   B I G   F R I E N D -                    
                                      &                                       
                       - I N T E G R A L  F E E D E R -                       
                                                                              
 v1 FN, 2020, v2 2021, v3 2022-2024                                           
------------------------------------------------------------------------------


----------------------
SHARK INTEGRAL PACKAGE
----------------------

Number of atoms                             ...     24
Number of basis functions                   ...    318
Number of shells                            ...    150
Maximum angular momentum                    ...      2
Integral batch strategy                     ... SHARK/LIBINT Hybrid
RI-J (if used) integral strategy            ... SPLIT-RIJ (Revised 2003 algorithm where possible)
Printlevel                                  ...      1
Contraction scheme used                     ... SEGMENTED contraction
Prescreening option                         ... SCHWARTZ
   Thresh                                   ... 1.000e-10
   Tcut                                     ... 1.000e-11
   Tpresel                                  ... 1.000e-11 
Coulomb Range Separation                    ... NOT USED
Exchange Range Separation                   ... NOT USED
Multipole approximations                    ... NOT USED
Finite Nucleus Model                        ... NOT USED
CABS basis                                  ... NOT available
Auxiliary Coulomb fitting basis             ... AVAILABLE
   # of basis functions in Aux-J            ...    720
   # of shells in Aux-J                     ...    240
   Maximum angular momentum in Aux-J        ...      4
Auxiliary J/K fitting basis                 ... NOT available
Auxiliary Correlation fitting basis         ... NOT available
Auxiliary 'external' fitting basis          ... NOT available

Checking pre-screening integrals            ... done (  0.0 sec) Dimension = 150
Check shell pair data                       ... done (  0.0 sec)
Shell pair information
Shell pair cut-off parameter TPreSel        ...   1.0e-11
Total number of shell pairs                 ...     11325
Shell pairs after pre-screening             ...     10071
Total number of primitive shell pairs       ...     40203
Primitive shell pairs kept                  ...     24508
          la=0 lb=0:   3039 shell pairs
          la=1 lb=0:   3577 shell pairs
          la=1 lb=1:   1090 shell pairs
          la=2 lb=0:   1382 shell pairs
          la=2 lb=1:    816 shell pairs
          la=2 lb=2:    167 shell pairs

Calculating one electron integrals          ... done (  0.0 sec)
Calculating RI/J V-Matrix + Cholesky decomp.... done (  0.0 sec)
Calculating Nuclear repulsion               ... done (  0.0 sec) ENN=    873.271520075950 Eh

Diagonalization of the overlap matrix:
Smallest eigenvalue                        ... 3.809e-05
Time for diagonalization                   ...    0.010 sec
Threshold for overlap eigenvalues          ... 1.000e-07
Number of eigenvalues below threshold      ... 0
Time for construction of square roots      ...    0.007 sec
Total time needed                          ...    0.018 sec

-------------------
DFT GRID GENERATION
-------------------

General Integration Accuracy     IntAcc      ... 4.388
Radial Grid Type                 RadialGrid  ... OptM3 with GC (2021)
Angular Grid (max. ang.)         AngularGrid ... 4 (Lebedev-302)
Angular grid pruning method      GridPruning ... 4 (adaptive)
Weight generation scheme         WeightScheme... mBecke (2022)
Basis function cutoff            BFCut       ... 1.0000e-10
Integration weight cutoff        WCut        ... 1.0000e-14
Partially contracted basis set               ... off
Rotationally invariant grid construction     ... off
Angular grids for H and He will be reduced by one unit
Diffuse basis detected: some atoms will have their outermost
                        angular grid increased by 1.

Total number of grid points                  ...   111713
Total number of batches                      ...     1757
Average number of points per batch           ...       63
Average number of grid points per atom       ...     4655
Initializing property integral containers    ... done (  0.0 sec)

SHARK setup successfully completed in   1.3 seconds

Maximum memory used throughout the entire STARTUP-calculation: 57.3 MB
-------------------------------------------------------------------------------
                                 ORCA GUESS
                   Start orbitals & Density for SCF / CASSCF
-------------------------------------------------------------------------------

------------
SCF SETTINGS
------------
Hamiltonian:
 Density Functional     Method          .... DFT(GTOs)
  Functional kind                       .... Exchange
  Functional name                       .... Re-regularized SCAN exchange by Furness et al
  Functional family                     .... MGGA
  Functional refs                              
    [ 0] J. W. Furness, A. D. Kaplan, J. Ning, J. P. Perdew, and J. Sun.,  J. Phys. Chem. Lett. 11, 8208-8215 (2020), doi: 10.1021/acs.jpclett.0c02405
    [ 1] J. W. Furness, A. D. Kaplan, J. Ning, J. P. Perdew, and J. Sun.,  J. Phys. Chem. Lett. 11, 9248-9248 (2020), doi: 10.1021/acs.jpclett.0c03077
  Functional external parameters        .... 6
    Parameter  0 _c1        =  6.670000e-01 : c1 parameter        
    Parameter  1 _c2        =  8.000000e-01 : c2 parameter        
    Parameter  2 _d         =  1.240000e+00 : d parameter         
    Parameter  3 _k1        =  6.500000e-02 : k1 parameter        
    Parameter  4 _eta       =  1.000000e-03 : eta parameter       
    Parameter  5 _dp2       =  3.610000e-01 : dp2 parameter       
  Functional kind                       .... Correlation
  Functional name                       .... Re-regularized SCAN correlation by Furness et al
  Functional family                     .... MGGA
  Functional refs                              
    [ 0] J. W. Furness, A. D. Kaplan, J. Ning, J. P. Perdew, and J. Sun.,  J. Phys. Chem. Lett. 11, 8208-8215 (2020), doi: 10.1021/acs.jpclett.0c02405
    [ 1] J. W. Furness, A. D. Kaplan, J. Ning, J. P. Perdew, and J. Sun.,  J. Phys. Chem. Lett. 11, 9248-9248 (2020), doi: 10.1021/acs.jpclett.0c03077
  Functional external parameters        .... 1
    Parameter  0 _eta       =  1.000000e-03 : Regularization parameter
 Gradients option       PostSCFGGA      .... off
 RI-approximation to the Coulomb term is turned on
   Number of AuxJ basis functions       .... 720


General Settings:
 Integral files         IntName         .... sp
 Hartree-Fock type      HFTyp           .... RHF
 Total Charge           Charge          ....    0
 Multiplicity           Mult            ....    1
 Number of Electrons    NEL             ....   96
 Basis Dimension        Dim             ....  318
 Nuclear Repulsion      ENuc            ....    873.2715200759 Eh

Convergence Acceleration:
 AO-DIIS                CNVDIIS         .... on
   Start iteration      DIISMaxIt       ....    12
   Startup error        DIISStart       ....  0.200000
   # of expansion vecs  DIISMaxEq       ....     5
   Bias factor          DIISBfac        ....   1.050
   Max. coefficient     DIISMaxC        ....  10.000
 MO-DIIS                CNVKDIIS        .... off
 Trust-Rad. Augm. Hess. CNVTRAH         .... auto
   Auto Start mean grad. ratio tolernc. ....  1.125000
   Auto Start start iteration           ....     1
   Auto Start num. interpolation iter.  ....    10
   Max. Number of Micro iterations      ....    24
   Max. Number of Macro iterations      .... Maxiter - #DIIS iter
   Number of Davidson start vectors     ....     2
   Converg. threshold    (grad. norm)   ....   3.330e-04
   Grad. Scal. Fac. for Micro threshold ....   0.100
   Minimum threshold for Micro iter.    ....   1.000e-02
   NR start threshold (gradient norm)   ....   1.000e-04
   Initial trust radius                 ....   0.400
   Minimum AH scaling param. (alpha)    ....   1.000
   Maximum AH scaling param. (alpha)    .... 1000.000
   Quad. conv. algorithm                .... NR
   White noise on init. David. guess    .... on
   Maximum white noise                  ....   0.010
   Pseudo random numbers                .... off
   Inactive MOs                         .... canonical
   Orbital update algorithm             .... Taylor
   Preconditioner                       .... Diag
   Full preconditioner red. dimension   ....   250
   COSX micro iterations for RIJONX calc.... off
 SOSCF                  CNVSOSCF        .... on
   Start iteration      SOSCFMaxIt      ....   150
   Startup grad/error   SOSCFStart      ....  0.003300
   Hessian update       SOSCFHessUp     .... L-BFGS
 Level Shifting         CNVShift        .... on
   Level shift para.    LevelShift      ....    0.2500
   Turn off err/grad.   ShiftErr        ....    0.0010
 Zerner damping         CNVZerner       .... off
 Static damping         CNVDamp         .... on
   Fraction old density DampFac         ....    0.7000
   Max. Damping (<1)    DampMax         ....    0.9800
   Min. Damping (>=0)   DampMin         ....    0.0000
   Turn off err/grad.   DampErr         ....    0.1000

SCF Procedure:
 Maximum # iterations   MaxIter         ....   125
 SCF integral mode      SCFMode         .... Direct
   Integral package                     .... SHARK and LIBINT hybrid scheme
 Reset frequency        DirectResetFreq ....    20
 Integral Threshold     Thresh          ....  1.000e-10 Eh
 Primitive CutOff       TCut            ....  1.000e-11 Eh

Convergence Tolerance:
 Convergence Check Mode ConvCheckMode   .... Total+1el-Energy
 Convergence forced     ConvForced      .... 0
 Energy Change          TolE            ....  1.000e-06 Eh
 1-El. energy change                    ....  1.000e-03 Eh
 Orbital Gradient       TolG            ....  3.330e-04
 Orbital Rotation angle TolX            ....  3.330e-04
 DIIS Error             TolErr          ....  1.000e-06

---------------------
INITIAL GUESS: MOREAD
---------------------
Guess MOs are being read from file: sp.ges
Input Geometry matches current geometry (good)
Atom 0: N(Shells)= 9 and 6 - projection required
Input basis set needs projection
NBasis(read)= 192
NBasis(calc)= 318
Basis set overlap was calculated
Using GuessMode=FMatrix for the initial guess
C*T matrix was formed
Effective Fockian was calculated
Effective Fockian was diagonalized
Initial density was built
                      ------------------
                      INITIAL GUESS DONE (   0.0 sec)
                      ------------------
             **** ENERGY FILE WAS UPDATED (sp.en.tmp) ****
Finished Guess after   0.1 sec
Maximum memory used throughout the entire GUESS-calculation: 29.2 MB

-------------------------------------------------------------------------------------------
                                      ORCA LEAN-SCF
                              memory conserving SCF solver
-------------------------------------------------------------------------------------------

----------------------------------------D-I-I-S--------------------------------------------
Iteration    Energy (Eh)           Delta-E    RMSDP     MaxDP     DIISErr   Damp  Time(sec)
-------------------------------------------------------------------------------------------
               ***  Starting incremental Fock matrix formation  ***
    1    -686.6912549701004309     0.00e+00  6.98e-03  5.88e-01  6.31e-01  0.700   4.3
    2    -686.8085715560206381    -1.17e-01  5.38e-03  4.35e-01  4.43e-01  0.700   3.9
    3    -686.8915595011350206    -8.30e-02  3.87e-03  3.08e-01  3.11e-01  0.700   3.9
    4    -686.9498219681910314    -5.83e-02  2.75e-03  2.17e-01  2.18e-01  0.700   3.9
                               ***Turning on AO-DIIS***
    5    -686.9906942311043849    -4.09e-02  1.96e-03  1.54e-01  1.52e-01  0.700   3.8
    6    -687.0193493986006388    -2.87e-02  1.39e-03  1.09e-01  1.07e-01  0.700   4.0
    7    -687.0394417518413093    -2.01e-02  9.76e-04  7.64e-02  7.46e-02  0.700   3.7
    8    -687.0535226526959605    -1.41e-02  2.28e-03  1.79e-01  5.23e-02  0.000   3.6
                              *** Initializing SOSCF ***
---------------------------------------S-O-S-C-F--------------------------------------
Iteration    Energy (Eh)           Delta-E    RMSDP     MaxDP     MaxGrad    Time(sec)
--------------------------------------------------------------------------------------
    9    -687.0864293703008343    -3.29e-02  1.24e-05  6.09e-04  1.49e-04     3.8
               *** Restarting incremental Fock matrix formation ***
   10    -687.0864294569622643    -8.67e-08  1.04e-05  4.64e-04  1.89e-05     4.8
                  *** Gradient check signals convergence ***

               *****************************************************
               *                     SUCCESS                       *
               *           SCF CONVERGED AFTER  10 CYCLES          *
               *****************************************************

             **** ENERGY FILE WAS UPDATED (sp.en.tmp) ****

----------------
TOTAL SCF ENERGY
----------------

Total Energy       :       -687.08642945696226 Eh          -18696.57226 eV

Components:
Nuclear Repulsion  :        873.27152007594975 Eh           23762.92615 eV
Electronic Energy  :      -1560.35794953291202 Eh          -42459.49841 eV
One Electron Energy:      -2676.28462973502701 Eh          -72825.40715 eV
Two Electron Energy:       1115.92668020211499 Eh           30365.90874 eV

Virial components:
Potential Energy   :      -1371.53726881070520 Eh          -37321.42647 eV
Kinetic Energy     :        684.45083935374294 Eh           18624.85421 eV
Virial Ratio       :          2.00385066384856

DFT components:
N(Alpha)           :       48.000150647981 electrons
N(Beta)            :       48.000150647981 electrons
N(Total)           :       96.000301295962 electrons
E(X)               :      -85.290446758565 Eh       
E(C)               :       -3.203027026168 Eh       
E(XC)              :      -88.493473784733 Eh       

---------------
SCF CONVERGENCE
---------------

  Last Energy change         ...    8.6661e-08  Tolerance :   1.0000e-06
  Last MAX-Density change    ...    4.6418e-04  Tolerance :   1.0000e-05
  Last RMS-Density change    ...    1.0380e-05  Tolerance :   1.0000e-06
  Last DIIS Error            ...    1.4885e-04  Tolerance :   1.0000e-06
  Last Orbital Gradient      ...    1.8914e-05  Tolerance :   3.3300e-04
  Last Orbital Rotation      ...    3.1251e-05  Tolerance :   3.3300e-04


----------------
ORBITAL ENERGIES
----------------

  NO   OCC          E(Eh)            E(eV) 
   0   2.0000     -18.993993      -516.8528 
   1   2.0000     -18.986582      -516.6512 
   2   2.0000     -18.969293      -516.1807 
   3   2.0000     -18.966577      -516.1068 
   4   2.0000     -18.948758      -515.6219 
   5   2.0000     -18.933470      -515.2059 
   6   2.0000     -10.124464      -275.5007 
   7   2.0000     -10.115126      -275.2466 
   8   2.0000     -10.108589      -275.0687 
   9   2.0000     -10.107365      -275.0354 
  10   2.0000     -10.095109      -274.7019 
  11   2.0000     -10.089132      -274.5392 
  12   2.0000      -1.048865       -28.5411 
  13   2.0000      -1.029183       -28.0055 
  14   2.0000      -1.023192       -27.8425 
  15   2.0000      -1.005287       -27.3553 
  16   2.0000      -0.990320       -26.9480 
  17   2.0000      -0.962798       -26.1991 
  18   2.0000      -0.765238       -20.8232 
  19   2.0000      -0.735028       -20.0011 
  20   2.0000      -0.673622       -18.3302 
  21   2.0000      -0.626183       -17.0393 
  22   2.0000      -0.621124       -16.9016 
  23   2.0000      -0.561467       -15.2783 
  24   2.0000      -0.525597       -14.3022 
  25   2.0000      -0.518269       -14.1028 
  26   2.0000      -0.500871       -13.6294 
  27   2.0000      -0.488295       -13.2872 
  28   2.0000      -0.468828       -12.7574 
  29   2.0000      -0.454026       -12.3547 
  30   2.0000      -0.447940       -12.1891 
  31   2.0000      -0.441930       -12.0255 
  32   2.0000      -0.419523       -11.4158 
  33   2.0000      -0.407559       -11.0903 
  34   2.0000      -0.389591       -10.6013 
  35   2.0000      -0.380284       -10.3481 
  36   2.0000      -0.371140       -10.0992 
  37   2.0000      -0.354577        -9.6485 
  38   2.0000      -0.326964        -8.8972 
  39   2.0000      -0.325018        -8.8442 
  40   2.0000      -0.315306        -8.5799 
  41   2.0000      -0.302224        -8.2239 
  42   2.0000      -0.278776        -7.5859 
  43   2.0000      -0.274724        -7.4756 
  44   2.0000      -0.269475        -7.3328 
  45   2.0000      -0.261538        -7.1168 
  46   2.0000      -0.233941        -6.3659 
  47   2.0000      -0.212681        -5.7873 
  48   0.0000       0.011540         0.3140 
  49   0.0000       0.034916         0.9501 
  50   0.0000       0.070230         1.9110 
  51   0.0000       0.077958         2.1213 
  52   0.0000       0.079550         2.1647 
  53   0.0000       0.087674         2.3857 
  54   0.0000       0.096807         2.6342 
  55   0.0000       0.109990         2.9930 
  56   0.0000       0.125077         3.4035 
  57   0.0000       0.131708         3.5839 
  58   0.0000       0.142718         3.8836 
*Only the first 10 virtual orbitals were printed.

                    ********************************
                    * MULLIKEN POPULATION ANALYSIS *
                    ********************************

-----------------------
MULLIKEN ATOMIC CHARGES
-----------------------
   0 C :   -0.197480
   1 C :   -0.008830
   2 H :    0.144659
   3 C :   -0.121464
   4 H :    0.159139
   5 C :    0.052149
   6 H :    0.160043
   7 C :   -0.131976
   8 H :    0.159319
   9 C :   -0.060337
  10 H :    0.151316
  11 O :   -0.167644
  12 O :   -0.405473
  13 O :   -0.397403
  14 O :   -0.428604
  15 O :   -0.412166
  16 O :   -0.468146
  17 H :    0.134425
  18 H :    0.160115
  19 H :    0.395230
  20 H :    0.333257
  21 H :    0.315192
  22 H :    0.296911
  23 H :    0.337767
Sum of atomic charges:    0.0000000

--------------------------------
MULLIKEN REDUCED ORBITAL CHARGES
--------------------------------
  0 C s       :     3.319405  s :     3.319405
      pz      :     0.759882  p :     2.819401
      px      :     0.948901
      py      :     1.110619
      dz2     :     0.018979  d :     0.058673
      dxz     :     0.015856
      dyz     :     0.010461
      dx2y2   :     0.005234
      dxy     :     0.008143

  1 C s       :     3.105834  s :     3.105834
      pz      :     1.087406  p :     2.837833
      px      :     0.848861
      py      :     0.901567
      dz2     :     0.009165  d :     0.065163
      dxz     :     0.016336
      dyz     :     0.006508
      dx2y2   :     0.016713
      dxy     :     0.016442

  2 H s       :     0.838459  s :     0.838459
      pz      :     0.009379  p :     0.016881
      px      :     0.004575
      py      :     0.002927

  3 C s       :     3.273817  s :     3.273817
      pz      :     0.795763  p :     2.781977
      px      :     1.058842
      py      :     0.927372
      dz2     :     0.013341  d :     0.065670
      dxz     :     0.016739
      dyz     :     0.014490
      dx2y2   :     0.011093
      dxy     :     0.010007

  4 H s       :     0.823893  s :     0.823893
      pz      :     0.003820  p :     0.016968
      px      :     0.008239
      py      :     0.004910

  5 C s       :     3.139568  s :     3.139568
      pz      :     0.714421  p :     2.742805
      px      :     0.943076
      py      :     1.085308
      dz2     :     0.016368  d :     0.065477
      dxz     :     0.017117
      dyz     :     0.012472
      dx2y2   :     0.008902
      dxy     :     0.010619

  6 H s       :     0.822917  s :     0.822917
      pz      :     0.002342  p :     0.017040
      px      :     0.004269
      py      :     0.010428

  7 C s       :     3.235740  s :     3.235740
      pz      :     0.947754  p :     2.829048
      px      :     0.944766
      py      :     0.936528
      dz2     :     0.014195  d :     0.067189
      dxz     :     0.016581
      dyz     :     0.011519
      dx2y2   :     0.010998
      dxy     :     0.013896

  8 H s       :     0.823581  s :     0.823581
      pz      :     0.007279  p :     0.017100
      px      :     0.006577
      py      :     0.003243

  9 C s       :     3.251576  s :     3.251576
      pz      :     0.823464  p :     2.714837
      px      :     0.921162
      py      :     0.970211
      dz2     :     0.022611  d :     0.093923
      dxz     :     0.023285
      dyz     :     0.018665
      dx2y2   :     0.015302
      dxy     :     0.014060

 10 H s       :     0.832137  s :     0.832137
      pz      :     0.004477  p :     0.016547
      px      :     0.007281
      py      :     0.004790

 11 O s       :     3.727661  s :     3.727661
      pz      :     1.608954  p :     4.434305
      px      :     1.175060
      py      :     1.650291
      dz2     :     0.001985  d :     0.005678
      dxz     :     0.003027
      dyz     :     0.001942
      dx2y2   :    -0.000591
      dxy     :    -0.000684

 12 O s       :     3.751076  s :     3.751076
      pz      :     1.393477  p :     4.642353
      px      :     1.513574
      py      :     1.735302
      dz2     :     0.000623  d :     0.012044
      dxz     :     0.000351
      dyz     :     0.002802
      dx2y2   :     0.003540
      dxy     :     0.004729

 13 O s       :     3.755879  s :     3.755879
      pz      :     1.251532  p :     4.629754
      px      :     1.563037
      py      :     1.815186
      dz2     :    -0.003071  d :     0.011770
      dxz     :     0.003221
      dyz     :     0.002490
      dx2y2   :     0.007736
      dxy     :     0.001394

 14 O s       :     3.748836  s :     3.748836
      pz      :     1.210695  p :     4.654060
      px      :     1.554633
      py      :     1.888731
      dz2     :     0.001398  d :     0.025709
      dxz     :     0.008419
      dyz     :     0.001005
      dx2y2   :     0.008260
      dxy     :     0.006628

 15 O s       :     3.762329  s :     3.762329
      pz      :     1.226592  p :     4.630818
      px      :     1.599767
      py      :     1.804458
      dz2     :     0.000905  d :     0.019019
      dxz     :     0.005366
      dyz     :     0.000934
      dx2y2   :     0.003044
      dxy     :     0.008770

 16 O s       :     3.751411  s :     3.751411
      pz      :     1.374150  p :     4.693900
      px      :     1.766186
      py      :     1.553564
      dz2     :     0.006514  d :     0.022835
      dxz     :     0.000880
      dyz     :     0.001035
      dx2y2   :     0.008632
      dxy     :     0.005773

 17 H s       :     0.848493  s :     0.848493
      pz      :     0.002312  p :     0.017082
      px      :     0.009071
      py      :     0.005700

 18 H s       :     0.822681  s :     0.822681
      pz      :     0.002938  p :     0.017204
      px      :     0.003683
      py      :     0.010583

 19 H s       :     0.557585  s :     0.557585
      pz      :     0.010200  p :     0.047185
      px      :     0.026109
      py      :     0.010876

 20 H s       :     0.622491  s :     0.622491
      pz      :     0.015926  p :     0.044251
      px      :     0.015797
      py      :     0.012528

 21 H s       :     0.641602  s :     0.641602
      pz      :     0.013269  p :     0.043206
      px      :     0.017306
      py      :     0.012631

 22 H s       :     0.659645  s :     0.659645
      pz      :     0.015161  p :     0.043444
      px      :     0.016515
      py      :     0.011769

 23 H s       :     0.616747  s :     0.616747
      pz      :     0.008895  p :     0.045486
      px      :     0.013881
      py      :     0.022710


------------------------
MULLIKEN OVERLAP CHARGES
------------------------
B(  0-C ,  1-C ) :   0.2296 B(  0-C ,  3-C ) :  -0.2232 B(  0-C ,  4-H ) :   0.0694 
B(  0-C ,  9-C ) :  -0.0571 B(  0-C , 11-O ) :  -0.0824 B(  0-C , 16-O ) :   0.4727 
B(  0-C , 17-H ) :   0.8885 B(  0-C , 18-H ) :   0.8414 B(  0-C , 23-H ) :  -0.0626 
B(  1-C ,  2-H ) :   0.7600 B(  1-C ,  3-C ) :  -0.3729 B(  1-C ,  4-H ) :  -0.1904 
B(  1-C ,  5-C ) :   0.1309 B(  1-C ,  7-C ) :  -0.0945 B(  1-C ,  9-C ) :  -0.5421 
B(  1-C , 11-O ) :   0.2905 B(  1-C , 12-O ) :   0.0759 B(  1-C , 14-O ) :   0.0604 
B(  1-C , 15-O ) :  -0.0708 B(  1-C , 16-O ) :  -0.2626 B(  1-C , 17-H ) :  -0.1645 
B(  1-C , 18-H ) :  -0.0912 B(  2-H ,  3-C ) :  -0.0542 B(  2-H , 11-O ) :  -0.1161 
B(  3-C ,  4-H ) :   0.8238 B(  3-C ,  5-C ) :  -0.4112 B(  3-C ,  7-C ) :   0.0771 
B(  3-C ,  9-C ) :   0.2049 B(  3-C , 11-O ) :  -0.1731 B(  3-C , 13-O ) :   0.0724 
B(  3-C , 14-O ) :  -0.0840 B(  3-C , 15-O ) :   0.3024 B(  3-C , 22-H ) :  -0.1120 
B(  4-H , 15-O ) :  -0.0865 B(  5-C ,  6-H ) :   0.8518 B(  5-C ,  8-H ) :  -0.0887 
B(  5-C ,  9-C ) :  -0.1995 B(  5-C , 13-O ) :  -0.1240 B(  5-C , 14-O ) :   0.1946 
B(  5-C , 15-O ) :  -0.0929 B(  5-C , 16-O ) :   0.0582 B(  5-C , 21-H ) :  -0.1075 
B(  6-H ,  7-C ) :  -0.1340 B(  6-H , 14-O ) :  -0.0827 B(  7-C ,  8-H ) :   0.9242 
B(  7-C , 10-H ) :  -0.1285 B(  7-C , 11-O ) :  -0.1064 B(  7-C , 12-O ) :  -0.1447 
B(  7-C , 13-O ) :   0.3620 B(  7-C , 15-O ) :   0.0598 B(  7-C , 20-H ) :  -0.0901 
B(  8-H ,  9-C ) :  -0.1185 B(  8-H , 13-O ) :  -0.0988 B(  9-C , 10-H ) :   0.9111 
B(  9-C , 11-O ) :   0.4984 B(  9-C , 12-O ) :   0.3650 B(  9-C , 13-O ) :  -0.1080 
B(  9-C , 16-O ) :   0.0813 B(  9-C , 19-H ) :  -0.1032 B( 10-H , 11-O ) :  -0.1099 
B( 10-H , 12-O ) :  -0.1196 B( 11-O , 12-O ) :  -0.1729 B( 12-O , 16-O ) :  -0.1033 
B( 12-O , 19-H ) :   0.5668 B( 13-O , 15-O ) :  -0.0508 B( 13-O , 20-H ) :   0.6011 
B( 14-O , 16-O ) :  -0.1295 B( 14-O , 21-H ) :   0.6282 B( 14-O , 23-H ) :   0.0946 
B( 15-O , 22-H ) :   0.6042 B( 16-O , 17-H ) :  -0.1084 B( 16-O , 18-H ) :  -0.0992 
B( 16-O , 23-H ) :   0.5783 B( 17-H , 18-H ) :  -0.0537 


                     *******************************
                     * LOEWDIN POPULATION ANALYSIS *
                     *******************************

----------------------
LOEWDIN ATOMIC CHARGES
----------------------
   0 C :    0.023884
   1 C :    0.093066
   2 H :    0.199370
   3 C :    0.119369
   4 H :    0.185371
   5 C :    0.130374
   6 H :    0.198637
   7 C :    0.111076
   8 H :    0.196576
   9 C :    0.287248
  10 H :    0.214878
  11 O :   -0.646447
  12 O :   -0.521485
  13 O :   -0.563034
  14 O :   -0.592476
  15 O :   -0.591760
  16 O :   -0.611224
  17 H :    0.168449
  18 H :    0.191070
  19 H :    0.286197
  20 H :    0.283128
  21 H :    0.280394
  22 H :    0.273938
  23 H :    0.283401

-------------------------------
LOEWDIN REDUCED ORBITAL CHARGES
-------------------------------
  0 C s       :     2.865290  s :     2.865290
      pz      :     0.879434  p :     2.977186
      px      :     1.005519
      py      :     1.092233
      dz2     :     0.043433  d :     0.133639
      dxz     :     0.035176
      dyz     :     0.023406
      dx2y2   :     0.011660
      dxy     :     0.019964

  1 C s       :     2.827751  s :     2.827751
      pz      :     1.043268  p :     2.937630
      px      :     0.933308
      py      :     0.961055
      dz2     :     0.019188  d :     0.141553
      dxz     :     0.038526
      dyz     :     0.012941
      dx2y2   :     0.035640
      dxy     :     0.035258

  2 H s       :     0.761632  s :     0.761632
      pz      :     0.023006  p :     0.038998
      px      :     0.009467
      py      :     0.006524

  3 C s       :     2.826055  s :     2.826055
      pz      :     0.883594  p :     2.913775
      px      :     1.040967
      py      :     0.989214
      dz2     :     0.027535  d :     0.140801
      dxz     :     0.038449
      dyz     :     0.029614
      dx2y2   :     0.024013
      dxy     :     0.021190

  4 H s       :     0.773430  s :     0.773430
      pz      :     0.009092  p :     0.041199
      px      :     0.019310
      py      :     0.012797

  5 C s       :     2.823394  s :     2.823394
      pz      :     0.841837  p :     2.905411
      px      :     1.007195
      py      :     1.056379
      dz2     :     0.036050  d :     0.140821
      dxz     :     0.038379
      dyz     :     0.024748
      dx2y2   :     0.017963
      dxy     :     0.023681

  6 H s       :     0.760936  s :     0.760936
      pz      :     0.005423  p :     0.040427
      px      :     0.009701
      py      :     0.025303

  7 C s       :     2.831778  s :     2.831778
      pz      :     0.940912  p :     2.913586
      px      :     0.974688
      py      :     0.997986
      dz2     :     0.029927  d :     0.143561
      dxz     :     0.039818
      dyz     :     0.022179
      dx2y2   :     0.021610
      dxy     :     0.030026

  8 H s       :     0.763959  s :     0.763959
      pz      :     0.015874  p :     0.039464
      px      :     0.015993
      py      :     0.007598

  9 C s       :     2.764670  s :     2.764670
      pz      :     0.879465  p :     2.742497
      px      :     0.898338
      py      :     0.964694
      dz2     :     0.047676  d :     0.205584
      dxz     :     0.053540
      dyz     :     0.041429
      dx2y2   :     0.033802
      dxy     :     0.029137

 10 H s       :     0.749227  s :     0.749227
      pz      :     0.010005  p :     0.035894
      px      :     0.014646
      py      :     0.011243

 11 O s       :     3.477820  s :     3.477820
      pz      :     1.646841  p :     4.695085
      px      :     1.377126
      py      :     1.671119
      dz2     :     0.071768  d :     0.473542
      dxz     :     0.117773
      dyz     :     0.057985
      dx2y2   :     0.113687
      dxy     :     0.112328

 12 O s       :     3.497451  s :     3.497451
      pz      :     1.493495  p :     4.756251
      px      :     1.523098
      py      :     1.739658
      dz2     :     0.066074  d :     0.267784
      dxz     :     0.069572
      dyz     :     0.057482
      dx2y2   :     0.045163
      dxy     :     0.029492

 13 O s       :     3.499071  s :     3.499071
      pz      :     1.383206  p :     4.775808
      px      :     1.603181
      py      :     1.789422
      dz2     :     0.076636  d :     0.288155
      dxz     :     0.086410
      dyz     :     0.051638
      dx2y2   :     0.036709
      dxy     :     0.036762

 14 O s       :     3.494528  s :     3.494528
      pz      :     1.348400  p :     4.778478
      px      :     1.580478
      py      :     1.849600
      dz2     :     0.083341  d :     0.319469
      dxz     :     0.105820
      dyz     :     0.062066
      dx2y2   :     0.025734
      dxy     :     0.042509

 15 O s       :     3.501129  s :     3.501129
      pz      :     1.366432  p :     4.783183
      px      :     1.627330
      py      :     1.789422
      dz2     :     0.076708  d :     0.307449
      dxz     :     0.099954
      dyz     :     0.057086
      dx2y2   :     0.037107
      dxy     :     0.036593

 16 O s       :     3.509869  s :     3.509869
      pz      :     1.471174  p :     4.784340
      px      :     1.742588
      py      :     1.570578
      dz2     :     0.089010  d :     0.317015
      dxz     :     0.071074
      dyz     :     0.076993
      dx2y2   :     0.032049
      dxy     :     0.047889

 17 H s       :     0.790952  s :     0.790952
      pz      :     0.005793  p :     0.040599
      px      :     0.021352
      py      :     0.013454

 18 H s       :     0.769211  s :     0.769211
      pz      :     0.006114  p :     0.039719
      px      :     0.007730
      py      :     0.025875

 19 H s       :     0.572471  s :     0.572471
      pz      :     0.027349  p :     0.141333
      px      :     0.084427
      py      :     0.029556

 20 H s       :     0.589957  s :     0.589957
      pz      :     0.046131  p :     0.126916
      px      :     0.048044
      py      :     0.032741

 21 H s       :     0.596376  s :     0.596376
      pz      :     0.037018  p :     0.123230
      px      :     0.053463
      py      :     0.032748

 22 H s       :     0.602786  s :     0.602786
      pz      :     0.042640  p :     0.123275
      px      :     0.049693
      py      :     0.030943

 23 H s       :     0.579207  s :     0.579207
      pz      :     0.024746  p :     0.137392
      px      :     0.039179
      py      :     0.073466


---------------------------------
LOEWDIN BOND ORDERS (THRESH 0.050000)
---------------------------------
B(  0-C ,  1-C ) :   0.9455 B(  0-C ,  3-C ) :   0.0702 B(  0-C , 11-O ) :   0.1399 
B(  0-C , 16-O ) :   1.4527 B(  0-C , 17-H ) :   0.8177 B(  0-C , 18-H ) :   0.8138 
B(  1-C ,  2-H ) :   0.7657 B(  1-C ,  3-C ) :   0.8995 B(  1-C ,  5-C ) :   0.0517 
B(  1-C ,  9-C ) :   0.0622 B(  1-C , 11-O ) :   1.3544 B(  1-C , 15-O ) :   0.1568 
B(  1-C , 16-O ) :   0.1462 B(  2-H , 11-O ) :   0.0971 B(  3-C ,  4-H ) :   0.7757 
B(  3-C ,  5-C ) :   0.8852 B(  3-C ,  7-C ) :   0.0542 B(  3-C , 11-O ) :   0.1314 
B(  3-C , 14-O ) :   0.1583 B(  3-C , 15-O ) :   1.3895 B(  4-H , 15-O ) :   0.0995 
B(  5-C ,  6-H ) :   0.7652 B(  5-C ,  7-C ) :   0.8899 B(  5-C ,  9-C ) :   0.0541 
B(  5-C , 13-O ) :   0.1637 B(  5-C , 14-O ) :   1.3914 B(  5-C , 15-O ) :   0.1694 
B(  6-H , 14-O ) :   0.1007 B(  7-C ,  8-H ) :   0.7718 B(  7-C ,  9-C ) :   0.8261 
B(  7-C , 11-O ) :   0.1321 B(  7-C , 12-O ) :   0.1648 B(  7-C , 13-O ) :   1.4386 
B(  7-C , 14-O ) :   0.1467 B(  8-H , 13-O ) :   0.0962 B(  9-C , 10-H ) :   0.7220 
B(  9-C , 11-O ) :   1.3013 B(  9-C , 12-O ) :   1.3956 B(  9-C , 13-O ) :   0.1557 
B( 10-H , 11-O ) :   0.0918 B( 10-H , 12-O ) :   0.0939 B( 11-O , 12-O ) :   0.2842 
B( 12-O , 16-O ) :   0.1436 B( 12-O , 19-H ) :   0.8719 B( 13-O , 15-O ) :   0.0787 
B( 13-O , 20-H ) :   0.9291 B( 14-O , 16-O ) :   0.1440 B( 14-O , 21-H ) :   0.9519 
B( 14-O , 23-H ) :   0.0961 B( 15-O , 22-H ) :   0.9587 B( 16-O , 17-H ) :   0.1042 
B( 16-O , 18-H ) :   0.1015 B( 16-O , 19-H ) :   0.1143 B( 16-O , 23-H ) :   0.8945 


------------------------------------------
LOEWDIN REDUCED ORBITAL POPULATIONS PER MO
-------------------------------------------
THRESHOLD FOR PRINTING IS 0.1%%
                      0         1         2         3         4         5   
                 -18.99399 -18.98658 -18.96929 -18.96658 -18.94876 -18.93347
                   2.00000   2.00000   2.00000   2.00000   2.00000   2.00000
                  --------  --------  --------  --------  --------  --------
11 O  s               0.0       0.0      99.9       0.0       0.0       0.0
12 O  s               0.0       0.0       0.0       0.0       0.0      99.9
13 O  s               0.0       0.0       0.0       0.0      99.9       0.0
14 O  s              99.9       0.0       0.0       0.0       0.0       0.0
15 O  s               0.0      99.9       0.0       0.0       0.0       0.0
16 O  s               0.0       0.0       0.0      99.9       0.0       0.0

                      6         7         8         9        10        11   
                 -10.12446 -10.11513 -10.10859 -10.10736 -10.09511 -10.08913
                   2.00000   2.00000   2.00000   2.00000   2.00000   2.00000
                  --------  --------  --------  --------  --------  --------
 0 C  s               0.0       0.0       0.0       0.0      99.4       0.0
 1 C  s               0.0       0.0       0.0      99.3       0.0       0.0
 3 C  s               0.0      99.3       0.0       0.0       0.0       0.0
 5 C  s               0.0       0.0      99.3       0.0       0.0       0.0
 7 C  s               0.0       0.0       0.0       0.0       0.0      99.3
 9 C  s              99.0       0.0       0.0       0.0       0.0       0.0
11 O  dxz             0.2       0.0       0.0       0.0       0.0       0.0
11 O  dxy             0.0       0.0       0.0       0.2       0.0       0.0
12 O  dz2             0.1       0.0       0.0       0.0       0.0       0.0
12 O  dyz             0.2       0.0       0.0       0.0       0.0       0.0
13 O  dxz             0.0       0.0       0.0       0.0       0.0       0.1
14 O  pz              0.0       0.0       0.1       0.0       0.0       0.0
14 O  dz2             0.0       0.0       0.2       0.0       0.0       0.0
15 O  dz2             0.0       0.1       0.0       0.0       0.0       0.0
15 O  dyz             0.0       0.1       0.0       0.0       0.0       0.0
16 O  pz              0.0       0.0       0.0       0.0       0.1       0.0
16 O  dz2             0.0       0.0       0.0       0.0       0.2       0.0

                     12        13        14        15        16        17   
                  -1.04887  -1.02918  -1.02319  -1.00529  -0.99032  -0.96280
                   2.00000   2.00000   2.00000   2.00000   2.00000   2.00000
                  --------  --------  --------  --------  --------  --------
 0 C  s               1.5       0.1       0.6       7.7       0.2       0.3
 0 C  pz              0.1       0.1       0.4       7.1       0.5       0.1
 0 C  px              0.9       0.1       0.1       0.7       0.0       0.1
 0 C  dz2             0.0       0.0       0.0       0.5       0.0       0.0
 0 C  dxz             0.0       0.0       0.0       0.2       0.0       0.0
 1 C  s               4.9       1.6       0.0       0.1       0.3       2.7
 1 C  pz              0.1       0.1       0.3       0.9       0.1       0.1
 1 C  px              2.2       1.2       0.1       1.1       0.3       1.1
 1 C  py              0.2       1.1       2.1       0.0       0.1       0.8
 1 C  dxy             0.1       0.1       0.0       0.0       0.0       0.1
 2 H  s               0.3       0.1       0.0       0.0       0.0       0.3
 3 C  s               4.4       0.1       5.6       0.1       0.1       0.0
 3 C  pz              0.5       0.8       6.5       0.2       0.1       0.0
 3 C  px              0.6       0.2       0.4       0.1       0.1       0.0
 3 C  py              0.2       0.4       1.8       0.0       0.0       0.6
 3 C  dz2             0.0       0.0       0.3       0.0       0.0       0.0
 3 C  dxz             0.0       0.0       0.1       0.0       0.0       0.0
 3 C  dyz             0.0       0.0       0.3       0.0       0.0       0.0
 4 H  s               0.3       0.0       0.4       0.0       0.0       0.0
 5 C  s               4.5       5.2       0.0       0.4       0.1       0.0
 5 C  pz              0.6       6.1       2.5       0.2       0.8       0.0
 5 C  px              0.3       0.6       0.1       0.2       1.3       0.0
 5 C  py              0.4       0.1       0.1       0.0       0.1       0.0
 5 C  dz2             0.1       0.4       0.0       0.0       0.0       0.0
 5 C  dxz             0.0       0.1       0.0       0.0       0.0       0.0
 6 H  s               0.3       0.3       0.0       0.0       0.0       0.0
 7 C  s               2.7       0.0       0.0       1.1       7.4       0.1
 7 C  pz              0.1       0.5       0.1       0.3       5.8       0.2
 7 C  px              0.8       0.1       0.0       0.0       2.2       0.0
 7 C  py              0.1       1.3       0.3       0.0       1.3       0.4
 7 C  dz2             0.0       0.0       0.0       0.0       0.2       0.0
 7 C  dxz             0.0       0.0       0.0       0.0       0.3       0.0
 7 C  dyz             0.0       0.0       0.0       0.0       0.2       0.0
 8 H  s               0.2       0.0       0.0       0.1       0.5       0.0
 9 C  s               6.7       3.7       1.4       1.1       0.1       1.8
 9 C  pz              0.0       0.1       0.1       0.1       0.0      11.7
 9 C  px              2.1       1.6       0.4       0.1       1.1       0.6
 9 C  py              0.1       0.3       0.1       0.0       1.2       1.9
 9 C  dz2             0.0       0.0       0.0       0.0       0.0       0.3
 9 C  dxz             0.1       0.1       0.0       0.0       0.0       0.4
 9 C  dyz             0.0       0.0       0.0       0.0       0.0       0.4
 9 C  dx2y2           0.0       0.0       0.0       0.0       0.0       0.2
10 H  s               0.4       0.2       0.1       0.1       0.0       0.1
11 O  s              19.1      14.1       2.9       2.6       2.8      15.0
11 O  pz              0.8       0.5       0.2       0.1       0.1       0.2
11 O  px              0.0       0.0       0.1       0.1       0.0       0.7
11 O  py              0.4       0.2       0.0       0.0       0.0       0.6
11 O  dz2             0.0       0.0       0.1       0.0       0.0       0.5
11 O  dxz             0.1       0.1       0.0       0.1       0.0       0.4
11 O  dyz             0.0       0.0       0.0       0.0       0.0       0.1
12 O  s               5.6       4.1       2.7       0.5       0.4      46.0
12 O  pz              0.5       0.4       0.1       0.1       0.0       0.4
12 O  px              0.1       0.0       0.0       0.0       0.0       0.4
12 O  py              0.3       0.1       0.1       0.0       0.0       0.6
12 O  dz2             0.1       0.2       0.0       0.1       0.0       0.0
12 O  dxz             0.0       0.0       0.0       0.0       0.0       0.1
12 O  dyz             0.2       0.1       0.0       0.0       0.0       0.0
13 O  s               2.1       0.0       0.1       3.3      52.6       0.0
13 O  pz              0.1       0.0       0.0       0.0       0.2       0.0
13 O  px              0.2       0.0       0.0       0.2       2.2       0.0
14 O  s              12.6      41.4       3.4       1.7       1.2       0.0
14 O  pz              0.2       0.3       0.0       0.0       0.0       0.0
14 O  px              0.3       1.2       0.1       0.2       0.0       0.0
14 O  dz2             0.1       0.1       0.0       0.1       0.0       0.0
14 O  dxy             0.0       0.0       0.0       0.2       0.0       0.0
15 O  s               9.3       0.0      47.3       1.4       0.6       0.7
15 O  pz              0.2       0.0       0.2       0.0       0.0       0.0
15 O  px              0.2       0.0       1.3       0.1       0.1       0.0
15 O  py              0.2       0.0       0.5       0.0       0.0       0.0
16 O  s               3.2       0.0       3.5      51.1       2.4       0.1
16 O  pz              0.1       0.0       0.1       1.2       0.0       0.0
16 O  px              0.0       0.0       0.0       0.0       0.0       0.1
16 O  py              0.1       0.0       0.1       0.9       0.0       0.0
16 O  dz2             0.0       0.0       0.0       0.1       0.0       0.1
17 H  s               0.1       0.0       0.0       0.6       0.0       0.0
18 H  s               0.1       0.0       0.0       0.6       0.0       0.0
19 H  s               1.2       0.6       0.6       0.1       0.0       7.0
19 H  pz              0.0       0.0       0.0       0.0       0.0       0.3
19 H  px              0.1       0.1       0.1       0.0       0.0       1.5
20 H  s               0.5       0.0       0.1       0.5       8.7       0.0
20 H  pz              0.0       0.0       0.0       0.1       1.2       0.0
20 H  px              0.0       0.0       0.0       0.0       0.7       0.0
20 H  py              0.0       0.0       0.0       0.0       0.1       0.0
21 H  s               2.1       7.0       0.6       0.3       0.2       0.0
21 H  pz              0.2       0.7       0.1       0.0       0.0       0.0
21 H  px              0.2       0.9       0.1       0.0       0.0       0.0
22 H  s               1.6       0.0       8.1       0.3       0.1       0.1
22 H  pz              0.2       0.0       1.0       0.0       0.0       0.0
22 H  px              0.1       0.0       0.8       0.0       0.0       0.0
23 H  s               0.9       0.2       0.7       7.8       0.3       0.0
23 H  pz              0.0       0.0       0.0       0.2       0.0       0.0
23 H  px              0.0       0.0       0.0       0.3       0.0       0.0
23 H  py              0.1       0.0       0.1       1.4       0.1       0.0

                     18        19        20        21        22        23   
                  -0.76524  -0.73503  -0.67362  -0.62618  -0.62112  -0.56147
                   2.00000   2.00000   2.00000   2.00000   2.00000   2.00000
                  --------  --------  --------  --------  --------  --------
 0 C  s               3.5       5.0      12.4       1.3       6.6       0.3
 0 C  pz              2.0       2.6       1.0       0.0       0.2       0.8
 0 C  px              0.2       0.1       0.5       0.5       1.3       0.3
 0 C  py              0.6       0.1       0.1       0.2       1.8       1.6
 1 C  s              10.4       8.7       0.6       0.8       4.0       1.0
 1 C  pz              0.7       0.0       0.8       2.1       1.3       0.0
 1 C  px              0.7       1.8       4.2       1.1       0.2       0.7
 1 C  py              2.5       0.6       1.0       3.8       4.1       0.1
 1 C  dxy             0.1       0.0       0.1       0.1       0.0       0.0
 2 H  s               1.8       2.4       0.2       0.5       1.8       0.7
 2 H  pz              0.1       0.2       0.0       0.0       0.1       0.0
 3 C  s              13.9       0.2       3.6       5.2       1.4       1.3
 3 C  pz              2.5       1.1       0.5       0.2       1.2       3.2
 3 C  px              0.0       3.1       0.3       1.4       3.2       1.7
 3 C  py              1.8       1.4       0.4       0.3       3.4       1.9
 3 C  dxz             0.1       0.0       0.0       0.0       0.0       0.2
 4 H  s               2.5       0.0       0.9       2.9       0.4       0.0
 4 H  px              0.1       0.0       0.1       0.1       0.0       0.0
 5 C  s               8.3       7.7       0.4       2.1       5.8       1.0
 5 C  pz              2.7       1.1       0.4       0.1       0.1       4.5
 5 C  px              0.8       0.7       3.7       6.1       0.1       2.2
 5 C  py              0.1       0.4       1.1       0.2       2.6       0.1
 5 C  dxz             0.1       0.0       0.0       0.0       0.0       0.2
 6 H  s               1.3       1.4       0.2       0.8       2.9       0.0
 6 H  py              0.1       0.1       0.0       0.1       0.2       0.0
 7 C  s               1.3       8.3       7.8       4.0       2.3       0.6
 7 C  pz              0.3       0.8       0.7       2.1       0.0       0.0
 7 C  px              1.2       1.9       0.1       0.0       0.8       0.2
 7 C  py              0.7       0.1       1.9       3.7       3.1       0.5
 7 C  dz2             0.0       0.1       0.0       0.0       0.0       0.0
 8 H  s               0.2       1.5       2.6       1.9       1.2       0.4
 8 H  pz              0.0       0.1       0.1       0.1       0.1       0.0
 8 H  px              0.0       0.1       0.1       0.1       0.0       0.0
 9 C  s               0.5       5.0       4.2       6.8       0.9       0.8
 9 C  pz              1.2       0.6       0.0       2.0       0.4       0.1
 9 C  px              0.4       0.4       1.9       0.2       2.1       0.2
 9 C  py              0.6       1.7       1.4       1.7       1.4       0.2
10 H  s               0.2       1.1       1.2       3.4       0.3       0.5
10 H  px              0.0       0.1       0.0       0.2       0.0       0.0
11 O  s               3.0       0.0       1.2       0.4       1.3       0.3
11 O  pz              0.1       0.3       0.3       1.2       0.1       0.1
11 O  px              2.8       7.5       0.4      12.5       0.5       0.0
11 O  py              1.0       0.3       0.0       1.2       1.8       0.0
11 O  dz2             0.2       0.0       0.0       0.0       0.2       0.0
11 O  dxz             0.1       0.6       0.1       0.2       0.2       0.1
11 O  dyz             0.2       0.1       0.0       0.0       0.1       0.0
11 O  dx2y2           0.0       0.0       0.7       0.1       0.0       0.2
11 O  dxy             0.5       0.8       0.0       0.0       0.3       0.2
12 O  s               0.2       2.1       1.0       0.8       0.2       0.1
12 O  pz              0.1       1.0       1.4       4.2       0.2       1.3
12 O  px              0.0       0.4       1.2       1.4       0.6       0.8
12 O  py              0.0       0.3       0.5       0.1       0.3       0.1
12 O  dz2             0.1       0.1       0.0       0.7       0.0       0.0
12 O  dxz             0.0       0.0       0.0       0.0       0.1       0.0
12 O  dyz             0.0       0.3       0.3       0.2       0.1       0.0
12 O  dx2y2           0.0       0.1       0.2       0.0       0.1       0.0
12 O  dxy             0.0       0.0       0.2       0.0       0.0       0.0
13 O  s               0.6       3.6       1.3       0.5       0.1       0.3
13 O  pz              0.3       2.4       3.4       3.4       1.7       1.8
13 O  px              0.1       0.3       0.1       0.0       0.0       0.1
13 O  py              0.0       0.3       0.9       0.0       1.0       0.0
13 O  dz2             0.0       0.0       0.1       0.4       0.0       0.0
13 O  dxz             0.2       0.8       0.3       0.4       0.0       0.1
13 O  dyz             0.0       0.1       0.3       0.0       0.2       0.0
13 O  dxy             0.0       0.1       0.2       0.0       0.2       0.0
14 O  s               2.2       1.9       0.0       0.6       0.3       0.0
14 O  pz              3.8       3.2       0.7       0.7       7.2      20.9
14 O  px              0.1       0.1       0.8       0.7       0.1       4.2
14 O  py              0.1       0.0       0.0       0.0       1.1       0.1
14 O  dz2             0.9       0.3       0.1       0.0       0.4       0.1
14 O  dxz             0.1       0.5       0.1       0.8       0.3       0.2
14 O  dyz             0.0       0.0       0.1       0.0       0.1       0.0
14 O  dxy             0.0       0.0       0.1       0.0       0.0       0.1
15 O  s               3.9       0.0       0.6       0.4       0.6       0.0
15 O  pz              4.7       0.6       3.6       4.2       0.1      20.3
15 O  px              0.2       0.1       0.2       0.0       0.7       2.0
15 O  py              0.6       0.0       0.2       0.2       0.8       0.7
15 O  dz2             0.5       0.3       0.2       0.1       0.1       0.1
15 O  dxz             0.2       0.1       0.1       0.6       0.3       0.2
15 O  dyz             0.6       0.0       0.1       0.1       0.2       0.1
15 O  dxy             0.1       0.0       0.0       0.0       0.2       0.0
16 O  s               1.2       1.4       1.5       0.3       0.6       0.0
16 O  pz              0.8       1.2       4.9       0.7       5.7       1.3
16 O  px              0.1       0.1       1.7       0.6       2.0       0.7
16 O  py              0.0       0.1       0.6       0.0       2.2       2.2
16 O  dz2             0.3       0.3       1.0       0.1       0.3       0.0
16 O  dxz             0.0       0.1       0.4       0.1       0.3       0.1
16 O  dx2y2           0.0       0.0       0.0       0.0       0.1       0.1
17 H  s               0.7       1.0       3.4       0.8       1.8       0.0
17 H  px              0.0       0.1       0.2       0.0       0.1       0.0
18 H  s               0.5       1.1       3.5       0.2       3.4       0.6
18 H  py              0.0       0.1       0.3       0.0       0.2       0.0
19 H  s               0.0       0.7       1.0       1.4       0.2       0.5
19 H  px              0.0       0.2       0.1       0.2       0.0       0.1
20 H  s               0.2       1.2       1.2       0.7       0.6       0.4
20 H  pz              0.0       0.1       0.1       0.0       0.0       0.0
20 H  px              0.0       0.2       0.1       0.1       0.0       0.1
21 H  s               1.3       1.0       0.3       0.1       1.3       6.2
21 H  px              0.2       0.2       0.0       0.0       0.2       0.4
22 H  s               1.9       0.2       1.1       0.9       0.0       5.5
22 H  pz              0.1       0.0       0.0       0.0       0.0       0.1
22 H  px              0.2       0.0       0.1       0.1       0.0       0.3
23 H  s               0.4       0.4       1.5       0.1       2.5       1.0
23 H  py              0.1       0.1       0.2       0.0       0.2       0.0

                     24        25        26        27        28        29   
                  -0.52560  -0.51827  -0.50087  -0.48830  -0.46883  -0.45403
                   2.00000   2.00000   2.00000   2.00000   2.00000   2.00000
                  --------  --------  --------  --------  --------  --------
 0 C  s               0.1       0.1       0.3       1.0       0.1       0.4
 0 C  pz              0.1       0.1       6.7       4.9       0.0       1.6
 0 C  px              0.1       0.2       1.0       0.4       3.2      18.7
 0 C  py              0.1       0.2       6.4       0.2       0.8       2.9
 0 C  dz2             0.0       0.0       0.1       0.2       0.0       0.0
 0 C  dxy             0.0       0.0       0.0       0.0       0.0       0.1
 1 C  s               1.1       0.0       0.2       0.2       0.2       1.9
 1 C  pz              1.6       4.4       0.1       1.3      12.0       2.1
 1 C  px              0.1       0.7       8.4       0.2       1.8       1.4
 1 C  py              0.9       2.7       0.1       5.4       2.4       0.5
 1 C  dyz             0.0       0.0       0.0       0.0       0.0       0.1
 1 C  dxy             0.0       0.1       0.0       0.0       0.1       0.1
 2 H  s               1.2       1.4       0.9       0.5       6.1       0.3
 2 H  pz              0.0       0.0       0.1       0.0       0.1       0.0
 3 C  s               1.3       0.0       0.3       0.7       0.3       0.2
 3 C  pz              1.7       0.2       0.0       0.3       4.9       0.0
 3 C  px              7.5       0.4       0.2       5.4       0.3       1.7
 3 C  py              0.7       6.2       0.1       1.6       1.2       0.5
 3 C  dyz             0.0       0.0       0.0       0.2       0.0       0.0
 4 H  s               5.1       0.7       0.0       1.4       2.0       1.6
 4 H  px              0.1       0.0       0.0       0.0       0.1       0.0
 5 C  s               0.7       0.1       1.1       0.9       0.1       0.1
 5 C  pz              0.7       0.7       1.3       0.1       1.8       0.5
 5 C  px              1.1       0.1       5.6       4.0       0.0       0.1
 5 C  py              0.0       8.6       2.0       1.6       0.0       3.1
 5 C  dz2             0.0       0.0       0.1       0.0       0.1       0.0
 5 C  dxz             0.0       0.0       0.0       0.0       0.1       0.0
 6 H  s               0.7       1.8       3.6       2.2       0.0       1.4
[...]
13 O  dyz             0.1       0.1       0.0       0.1       0.5       0.0
13 O  dx2y2           0.0       0.0       0.0       0.2       3.5       0.0
13 O  dxy             0.0       0.0       0.1       0.1       2.5       0.0
14 O  s               0.3       6.7       0.1       1.4       0.0       0.0
14 O  pz              0.3      10.6       0.0       1.4       0.1       0.0
14 O  px              0.1       6.6       0.0       1.4       0.1       0.0
14 O  py              0.0       0.3       0.0       0.0       0.0       0.0
14 O  dz2             0.3       0.7       0.0       0.0       0.0       0.0
14 O  dxz             0.2      23.8       0.1       3.3       0.2       0.0
14 O  dx2y2           0.0       6.9       0.0       1.5       0.1       0.0
14 O  dxy             0.0       0.7       0.0       0.1       0.0       0.0
15 O  s               0.6       0.0       6.9       0.0       0.3       0.1
15 O  pz              0.2       0.1      14.6       0.2       0.2       0.1
15 O  px              0.0       0.1       6.4       0.0       0.0       0.1
15 O  py              0.3       0.0       0.1       0.0       0.1       0.0
15 O  dxz             0.0       0.1      27.8       0.2       0.1       0.1
15 O  dyz             0.1       0.0       2.2       0.0       0.0       0.0
15 O  dx2y2           0.0       0.0       6.2       0.0       0.1       0.0
15 O  dxy             0.0       0.0       0.2       0.0       0.1       0.0
16 O  s               0.2       1.1       0.0       5.7       0.3       1.2
16 O  pz              0.2       0.4       0.0       3.9       0.4       0.1
16 O  px              0.0       0.4       0.0       1.7       0.1       1.0
16 O  py              0.0       1.9       0.0       9.3       0.6       0.8
16 O  dz2             0.1       1.1       0.0       6.7       0.5       0.6
16 O  dyz             0.0       0.6       0.0       4.7       0.3       0.5
16 O  dx2y2           0.0       1.8       0.1       9.9       0.7       0.5
16 O  dxy             0.0       1.5       0.0       6.9       0.4       0.7
18 H  s               0.0       0.0       0.0       0.1       0.0       0.0
18 H  py              0.0       0.0       0.0       0.2       0.0       0.0
19 H  s               0.6       0.1       0.1       0.6       0.1      11.0
19 H  pz              0.1       0.0       0.0       0.0       0.0       1.5
19 H  px              1.1       0.1       0.1       0.5       0.1      12.9
19 H  py              0.0       0.0       0.0       0.0       0.0       0.6
20 H  s               0.0       0.0       0.2       0.8      11.9       0.0
20 H  pz              0.0       0.0       0.1       0.5       7.4       0.0
20 H  px              0.0       0.0       0.1       0.5       6.4       0.0
20 H  py              0.1       0.0       0.0       0.0       0.7       0.0
21 H  s               0.0      11.4       0.0       2.0       0.1       0.0
21 H  pz              0.0       4.9       0.0       0.8       0.0       0.0
21 H  px              0.0       8.2       0.0       1.5       0.1       0.0
21 H  py              0.0       0.2       0.0       0.0       0.0       0.0
22 H  s               0.0       0.1      13.2       0.1       0.2       0.1
22 H  pz              0.0       0.0       7.0       0.0       0.0       0.0
22 H  px              0.0       0.1       7.8       0.0       0.1       0.0
22 H  py              0.0       0.0       0.1       0.0       0.0       0.0
23 H  s               0.0       1.8       0.0       9.4       0.6       0.8
23 H  pz              0.0       0.2       0.0       0.8       0.1       0.1
23 H  px              0.0       0.2       0.0       1.9       0.1       0.0
23 H  py              0.0       1.4       0.0      10.1       0.7       1.2

                    306       307       308       309       310       311   
                  22.09077  22.27318  22.31804  22.32643  22.36259  22.41195
                   0.00000   0.00000   0.00000   0.00000   0.00000   0.00000
                  --------  --------  --------  --------  --------  --------
 0 C  s              88.3       0.8       9.8       0.1       0.1       0.3
 1 C  s               4.5      31.1      18.1      12.0      29.2       4.7
 3 C  s               2.7      31.4      33.7       7.0      13.4      11.4
 5 C  s               0.9      27.2       5.2      60.7       5.2       0.4
 7 C  s               2.4       1.0      32.7       9.2      48.4       5.7
 9 C  s               0.7       8.1       0.0      10.4       3.2      77.0

                    312       313       314       315       316       317   
                  43.76144  43.82142  43.85476  43.88453  43.93288  44.00003
                   0.00000   0.00000   0.00000   0.00000   0.00000   0.00000
                  --------  --------  --------  --------  --------  --------
 3 C  s               0.0       0.0       0.1       0.1       0.0       0.0
 7 C  s               0.0       0.0       0.1       0.1       0.0       0.0
 9 C  s               0.0       0.0       0.0       0.0       0.0       0.1
11 O  s               0.5      20.2       1.8       1.5      30.4      45.4
12 O  s               0.6       3.9       0.0      13.3      34.8      47.2
13 O  s               3.0       0.3      22.6      61.9      11.2       0.8
14 O  s              12.4      61.5       0.5       0.8      21.3       3.3
15 O  s               1.5       0.1      72.0      21.5       1.9       2.7
16 O  s              81.9      13.9       2.8       0.7       0.2       0.5



                      *****************************
                      * MAYER POPULATION ANALYSIS *
                      *****************************

  NA   - Mulliken gross atomic population
  ZA   - Total nuclear charge
  QA   - Mulliken gross atomic charge
  VA   - Mayer's total valence
  BVA  - Mayer's bonded valence
  FA   - Mayer's free valence

  ATOM       NA         ZA         QA         VA         BVA        FA
  0 C      6.1975     6.0000    -0.1975     3.8727     3.8727     0.0000
  1 C      6.0088     6.0000    -0.0088     3.4604     3.4604     0.0000
  2 H      0.8553     1.0000     0.1447     0.9534     0.9534     0.0000
  3 C      6.1215     6.0000    -0.1215     3.6558     3.6558     0.0000
  4 H      0.8409     1.0000     0.1591     0.9483     0.9483     0.0000
  5 C      5.9479     6.0000     0.0521     3.5465     3.5465     0.0000
  6 H      0.8400     1.0000     0.1600     0.9516     0.9516     0.0000
  7 C      6.1320     6.0000    -0.1320     3.7315     3.7315     0.0000
  8 H      0.8407     1.0000     0.1593     0.9551     0.9551     0.0000
  9 C      6.0603     6.0000    -0.0603     3.8473     3.8473     0.0000
 10 H      0.8487     1.0000     0.1513     0.9497     0.9497     0.0000
 11 O      8.1676     8.0000    -0.1676     1.7333     1.7333     0.0000
 12 O      8.4055     8.0000    -0.4055     1.7525     1.7525     0.0000
 13 O      8.3974     8.0000    -0.3974     1.8179     1.8179    -0.0000
 14 O      8.4286     8.0000    -0.4286     1.8657     1.8657    -0.0000
 15 O      8.4122     8.0000    -0.4122     1.8631     1.8631     0.0000
 16 O      8.4681     8.0000    -0.4681     1.7767     1.7767     0.0000
 17 H      0.8656     1.0000     0.1344     0.9533     0.9533     0.0000
 18 H      0.8399     1.0000     0.1601     0.9536     0.9536    -0.0000
 19 H      0.6048     1.0000     0.3952     0.8287     0.8287    -0.0000
 20 H      0.6667     1.0000     0.3333     0.8991     0.8991     0.0000
 21 H      0.6848     1.0000     0.3152     0.9073     0.9073    -0.0000
 22 H      0.7031     1.0000     0.2969     0.9159     0.9159    -0.0000
 23 H      0.6622     1.0000     0.3378     0.9184     0.9184    -0.0000

  Mayer bond orders larger than 0.100000
B(  0-C ,  1-C ) :   0.9069 B(  0-C , 16-O ) :   0.9792 B(  0-C , 17-H ) :   0.9754 
B(  0-C , 18-H ) :   0.9705 B(  1-C ,  2-H ) :   0.9531 B(  1-C ,  3-C ) :   0.8531 
B(  1-C , 11-O ) :   0.8991 B(  3-C ,  4-H ) :   0.9663 B(  3-C ,  5-C ) :   0.8759 
B(  3-C , 15-O ) :   0.9121 B(  5-C ,  6-H ) :   0.9551 B(  5-C ,  7-C ) :   0.8721 
B(  5-C , 14-O ) :   0.8930 B(  7-C ,  8-H ) :   0.9896 B(  7-C ,  9-C ) :   0.8806 
B(  7-C , 13-O ) :   0.9791 B(  9-C , 10-H ) :   0.9742 B(  9-C , 11-O ) :   0.9935 
B(  9-C , 12-O ) :   1.0488 B( 12-O , 19-H ) :   0.7690 B( 13-O , 20-H ) :   0.8440 
B( 14-O , 21-H ) :   0.8870 B( 15-O , 22-H ) :   0.8961 B( 16-O , 23-H ) :   0.8060 


-------
TIMINGS
-------

Total SCF time: 0 days 0 hours 0 min 40 sec 

Total time                  ....      40.146 sec
Sum of individual times     ....      39.875 sec  ( 99.3%)

SCF preparation             ....       0.079 sec  (  0.2%)
Fock matrix formation       ....      38.972 sec  ( 97.1%)
  Startup                   ....       0.012 sec  (  0.0% of F)
  Split-RI-J                ....       9.006 sec  ( 23.1% of F)
  XC integration            ....      29.807 sec  ( 76.5% of F)
    XC Preparation          ....       0.000 sec  (  0.0% of XC)
    Basis function eval.    ....       4.274 sec  ( 14.3% of XC)
    Density eval.           ....      11.429 sec  ( 38.3% of XC)
    XC-Functional eval.     ....       1.878 sec  (  6.3% of XC)
    XC-Potential eval.      ....      11.662 sec  ( 39.1% of XC)
Diagonalization             ....       0.000 sec  (  0.0%)
Density matrix formation    ....       0.082 sec  (  0.2%)
Total Energy calculation    ....       0.005 sec  (  0.0%)
Population analysis         ....       0.360 sec  (  0.9%)
Orbital Transformation      ....       0.046 sec  (  0.1%)
Orbital Orthonormalization  ....       0.000 sec  (  0.0%)
DIIS solution               ....       0.291 sec  (  0.7%)
  MO trafo                  ....       0.000 sec  (  0.0 % of DIIS)
  Orb grad                  ....       0.000 sec  (  0.0 % of DIIS)
  Energy W gradient         ....       0.000 sec  (  0.0 % of DIIS)
  DIIS error                ....       0.047 sec  ( 16.2 % of DIIS)
  DIIS work                 ....       0.218 sec  ( 75.0 % of DIIS)
  Form Q                    ....       0.000 sec  (  0.0 % of DIIS)
  Form QpQm                 ....       0.000 sec  (  0.0 % of DIIS)
  Exp/Cayley                ....       0.000 sec  (  0.0 % of DIIS)
  Orb update                ....       0.000 sec  (  0.0 % of DIIS)
  Wake-sleep                ....       0.003 sec  (  0.9 % of DIIS)
SOSCF solution              ....       0.039 sec  (  0.1%)
  MO trafo                  ....       0.030 sec  ( 77.0 % of SOSCF)
  Orb grad                  ....       0.000 sec  (  0.4 % of SOSCF)
  Rot update                ....       0.000 sec  (  0.2 % of SOSCF)
  Step                      ....       0.009 sec  ( 22.1 % of SOSCF)
Finished LeanSCF after  40.2 sec

Maximum memory used throughout the entire LEANSCF-calculation: 40.9 MB


-------------------------------------------------------------------------------
                          DFT DISPERSION CORRECTION                            
                                                                               
                                DFTD4 V3.4.0                                   
-------------------------------------------------------------------------------
The R2SCAN3C composite method is recognized
Using three-body term ABC
Active option DFTDOPT                   ...         5   

-------------------------   ----------------
Dispersion correction           -0.008881255
-------------------------   ----------------

------------------   -----------------
gCP correction             0.022636852
------------------   -----------------

-------------------------   --------------------
FINAL SINGLE POINT ENERGY      -687.072673860552
-------------------------   --------------------


------------------------------------------------------------------------------
                              ORCA PROPERTY CALCULATIONS
------------------------------------------------------------------------------

GBWName                                 ... sp.gbw
Number of atoms                         ...     24
Number of basis functions               ...    318
Max core memory                         ...   1024 MB

Electric properties:
Dipole moment                           ... YES
Quadrupole moment                       ...  NO
Static polarizability (Dipole/Dipole)   ...  NO
Static polarizability (Dipole/Quad.)    ...  NO
Static polarizability (Quad./Quad.)     ...  NO
Static polarizability (Velocity)        ...  NO

Atomic electric properties:
Dipole moment                           ...  NO
Quadrupole moment                       ...  NO
Static polarizability                   ...  NO

Choice of electric origin               ... Center of mass
Position of electric origin             ...    -0.000008     0.000003     0.000002

General magnetic properties:
Magnetizability                         ...  NO

EPR properties:
g-Tensor (aka g-matrix)                 ...  NO
Zero-Field splitting spin-orbit         ...  NO
Zero-field splitting spin-spin          ...  NO
Hyperfine couplings                     ...  NO (   0 nuclei)
Quadrupole couplings                    ...  NO (   0 nuclei)
Contact density                         ...  NO (   0 nuclei)

NMR properties:
Chemical shifts                         ...  NO (   0 nuclei)
Spin-rotation constants                 ...  NO (   0 nuclei)
Spin-spin couplings                     ...  NO (   0 nuclei,    0 pairs)

Choice of magnetic origin               ... GIAO
Position of magnetic origin             ...     0.000000     0.000000     0.000000

Properties with geometric perturbations:
SCF Hessian                             ...  NO
IR spectrum                             ...  NO
VCD spectrum                            ...  NO
X-ray spectroscopy properties:
SCF XES/XAS/RIXS spectra                ...  NO


-------------
DIPOLE MOMENT
-------------

Method             : SCF
Type of density    : Electron Density
Multiplicity       :   1
Irrep              :   0
Energy             :  -687.0864294569622643 Eh
Relativity type    : 
Basis              : AO
                                X                 Y                 Z
Electronic contribution:      2.545325053      -0.658271483       0.429593457
Nuclear contribution   :     -3.669833314       1.726518251      -0.209160933
                        -----------------------------------------
Total Dipole Moment    :     -1.124508261       1.068246768       0.220432524
                        -----------------------------------------
Magnitude (a.u.)       :      1.566607955
Magnitude (Debye)      :      3.982000967



--------------------
Rotational spectrum 
--------------------
 
Rotational constants in cm-1:             0.040243             0.031284             0.027664 
Rotational constants in MHz :          1206.441620           937.859487           829.331662 

Dipole components along the rotational axes: 
x,y,z [a.u.] :    -0.083003    -1.522968    -0.357686 
x,y,z [Debye]:    -0.210977    -3.871077    -0.909166 

 

Dipole moment calculation done in   0.0 sec 

Maximum memory used throughout the entire PROP-calculation: 26.6 MB

--------------------------------
SUGGESTED CITATIONS FOR THIS RUN
--------------------------------

Below you find a list of papers that are relevant to this ORCA run
We neither can nor want to force you to cite these papers, but we appreciate if you do
You receive ORCA, which is the product of decades of hard work by many enthusiastic individuals, for free
The only thing we kindly ask in return is that you cite our papers,
We deeply appreciate it, if you show your appreciation for ORCA by not just citing the generic ORCA reference.

Please note that relegating all ORCA citations to the supporting information does *not* help us.
SI sections are not indexed - citations you put there will not count into any citation statistics
But we need these citations in order to attract the funding resources that allow us to do what we are doing

Therefore, if you are a happy ORCA user, please consider citing a few of the papers listed below in the main body of your paper

In addition to the list printed below, the program has created the file sp.bibtex that contains the list in bibtex format
You can import this file easily into all common literature databanks and citation aid programs


List of essential papers. We consider these as the minimum necessary citations

  1. Neese,F.
     Software update: the ORCA program system, version 5.0
     WIRES Comput. Molec. Sci., 2022 12(1)e1606
     doi.org/10.1002/wcms.1606
  2. Grimme,S.; Hansen,A.; Ehlert,S.; Mewes,J.
     r2SCAN-3c: A 'Swiss army knife' composite electronic-structure method
     J. Chem. Phys., 2021 154 064103
     doi.org/10.1063/5.0040021

List of papers to cite with high priority. The work reported in these papers was absolutely
necessary for this run to complete.
Our perspective: the developers of density functionals and basis sets usually get cited in chemistry papers
Good! But without the algorithms to do something with them, the functionals or basis sets would not do anything.
Hence, in our opinion, the algorithm design and method developments papers are equally worthy of getting cited

  1. Neese,F.
     An improvement of the resolution of the identity approximation for the formation of the Coulomb matrix
     J. Comp. Chem., 2003 24(14)1740-1747
     doi.org/10.1002/jcc.10318
  2. Neese,F.
     The SHARK Integral Generation and Digestion System
     J. Comp. Chem., 2022  1-16
     doi.org/10.1002/jcc.26942
  3. Lehtola,S.; Steigemann,C.; Oliveira,M.; Marques,M.
     Recent developments in Libxc - A comprehensive library of functionals for density functional theory
     Software X, 2018 7 
     doi.org/10.1016/j.softx.2017.11.002
  4. Caldeweyher,E.; Bannwarth,C.; Grimme,S.
     Extension of the D3 dispersion coefficient model
     J. Chem. Phys., 2017 147 034112
     doi.org/10.1063/1.4993215
  5. Caldeweyher,E.; Ehlert,S.; Hansen,A.; Neugebauer,H.; Spicher,S.; Bannwarth,C.; Grimme,S.
     A generally applicable atomic-charge dependent London dispersion correction
     J. Chem. Phys., 2019 150 154122
     doi.org/10.1063/1.5090222
  6. Caldeweyher,E.; Mewes,J.; Ehlert,S.; Grimme,S.
     Extension and evaluation of the D4 London-dispersion model for periodic systems
     Phys. Chem. Chem. Phys., 2020 22(16)8499-8512
     doi.org/10.1039/D0CP00502A
  7. Wittmann,L.; Gordiy,I.; Friede,M.; Helmich-Paris,B.; Grimme,S.; Hansen,A.; Bursch,M.
     Extension of the D3 and D4 London Dispersion Corrections to the full Actinides Series
     Phys. Chem. Chem. Phys., 2024 26(32)21379-21394
     doi.org/https://doi.org/10.1039/D4CP01514B 

List of suggested additional citations. These are papers that are important in the 'surrounding' of 
of this run, or papers that preceded the highly important papers. If you like your results we are grateful for a citation.

  1. Neese,F.
     The ORCA program system
     WIRES Comput. Molec. Sci., 2012 2(1)73-78
     doi.org/10.1002/wcms.81
  2. Neese,F.
     Software update: the ORCA program system, version 4.0
     WIRES Comput. Molec. Sci., 2018 8(1)1-6
     doi.org/10.1002/wcms.1327
  3. Neese,F.; Wennmohs,F.; Becker,U.; Riplinger,C.
     The ORCA quantum chemistry program package
     J. Chem. Phys., 2020 152 Art. No. L224108
     doi.org/10.1063/5.0004608

List of optional additional citations

  1. Neese,F.
     Approximate second-order SCF convergence for spin unrestricted wavefunctions
     Chem. Phys. Lett., 2000 325(1-3)93-98
     doi.org/10.1016/s0009-2614(00)00662-x

Timings for individual modules:

Sum of individual times          ...       41.846 sec (=   0.697 min)
Startup calculation              ...        1.409 sec (=   0.023 min)   3.4 %
SCF iterations                   ...       40.354 sec (=   0.673 min)  96.4 %
Property calculations            ...        0.083 sec (=   0.001 min)   0.2 %
                             ****ORCA TERMINATED NORMALLY****
TOTAL RUN TIME: 0 days 0 hours 0 minutes 42 seconds 169 msec
