 Entering Gaussian System
 *********************************************
 Gaussian 98:
 frequency output generated by the xtb code
 *********************************************
                         Standard orientation:
 --------------------------------------------------------------------
  Center     Atomic     Atomic              Coordinates (Angstroms)
  Number     Number      Type              X           Y           Z
 --------------------------------------------------------------------
    1          6             0        0.000153   -2.511319    0.000358
    2          6             0        1.205381   -1.828614    0.000177
    3          6             0        1.206143   -0.443831   -0.000079
    4          6             0        0.000010    0.266874   -0.000104
    5          6             0       -1.206054   -0.443953   -0.000026
    6          6             0       -1.205141   -1.828735    0.000230
    7         17             0       -2.693378    0.424841   -0.000225
    8          6             0       -0.000150    1.681901   -0.000019
    9          7             0       -0.000448    2.827029    0.000899
   10         17             0        2.693383    0.425131   -0.000343
   11          1             0        0.000205   -3.590159    0.000595
   12          1             0        2.142531   -2.361082    0.000233
   13          1             0       -2.142239   -2.361289    0.000327
 --------------------------------------------------------------------
     1 basis functions        1 primitive gaussians
     1 alpha electrons        1 beta electrons
 
 Harmonic frequencies (cm**-1), IR intensities (km*mol⁻¹),
 Raman scattering activities (A**4/amu), Raman depolarization ratios,
 reduced masses (AMU), force constants (mDyne/A) and normal coordinates:
                      1                      2                      3
                        a                      a                      a 
 Frequencies --    72.6855               115.2338               175.7505
 Red. masses --    22.8950                19.4447                28.8980
 Frc consts  --     0.0000                 0.0000                 0.0000
 IR Inten    --     0.2860                 4.8415                 0.0018
 Raman Activ --     0.0000                 0.0000                 0.0000
 Depolar     --     0.0000                 0.0000                 0.0000
 Atom AN      X      Y      Z        X      Y      Z        X      Y      Z
   1   6     0.00   0.00   0.28    -0.01   0.00   0.00     0.00  -0.12   0.00
   2   6     0.00   0.00   0.16     0.01  -0.03   0.00     0.03  -0.15   0.00
   3   6     0.00   0.00   0.02     0.07  -0.02  -0.00     0.01  -0.15  -0.00
   4   6     0.00   0.00   0.05     0.09   0.00  -0.00     0.00  -0.22  -0.00
   5   6     0.00   0.00   0.02     0.07   0.02   0.00    -0.01  -0.15  -0.00
   6   6     0.00   0.00   0.16     0.01   0.03  -0.00    -0.03  -0.15   0.00
   7  17     0.00  -0.00  -0.47     0.25   0.26   0.00     0.41   0.44   0.00
   8   6     0.00   0.00   0.24    -0.19   0.00   0.00     0.00  -0.23  -0.00
   9   7     0.00  -0.00   0.59    -0.83  -0.00   0.00    -0.00  -0.25   0.00
  10  17    -0.00  -0.00  -0.47     0.25  -0.26  -0.00    -0.41   0.44   0.00
  11   1     0.00   0.00   0.12    -0.01   0.00   0.00    -0.00  -0.04   0.00
  12   1     0.00   0.00   0.05    -0.00  -0.02   0.00     0.01  -0.05   0.00
  13   1     0.00   0.00   0.05    -0.00   0.02  -0.00    -0.01  -0.05   0.00
                      4                      5                      6
                        a                      a                      a 
 Frequencies --   183.3914               187.6272               329.5020
 Red. masses --    12.9173                14.0166                15.1912
 Frc consts  --     0.0000                 0.0000                 0.0000
 IR Inten    --     0.0000                 1.0222                 3.1977
 Raman Activ --     0.0000                 0.0000                 0.0000
 Depolar     --     0.0000                 0.0000                 0.0000
 Atom AN      X      Y      Z        X      Y      Z        X      Y      Z
   1   6     0.00   0.00   0.00     0.00   0.00   0.22     0.27  -0.00  -0.00
   2   6     0.00   0.00   0.55    -0.00   0.00   0.04     0.09   0.26  -0.00
   3   6     0.00   0.00   0.23     0.00   0.00  -0.33    -0.15   0.25  -0.00
   4   6     0.00   0.00  -0.00    -0.00   0.00  -0.59    -0.29   0.00   0.00
   5   6     0.00  -0.00  -0.23    -0.00   0.00  -0.33    -0.15  -0.25   0.00
   6   6     0.00  -0.00  -0.55     0.00   0.00   0.04     0.09  -0.26   0.00
   7  17    -0.00   0.00   0.24    -0.00  -0.00   0.22     0.08   0.27  -0.00
   8   6     0.00   0.00  -0.00    -0.00   0.00  -0.32    -0.47   0.00   0.00
   9   7     0.00   0.00   0.00     0.00  -0.00   0.36     0.24   0.00  -0.00
  10  17    -0.00  -0.00  -0.24     0.00  -0.00   0.22     0.08  -0.27   0.00
  11   1    -0.00   0.00   0.00     0.00   0.00   0.18     0.15  -0.00  -0.00
  12   1     0.00   0.00   0.29    -0.00   0.00   0.09     0.06   0.14  -0.00
  13   1     0.00  -0.00  -0.29     0.00   0.00   0.09     0.06  -0.14   0.00
                      7                      8                      9
                        a                      a                      a 
 Frequencies --   336.4870               384.5639               391.1452
 Red. masses --    27.4291                11.0747                21.8695
 Frc consts  --     0.0000                 0.0000                 0.0000
 IR Inten    --     0.4723                 6.1338                 0.0420
 Raman Activ --     0.0000                 0.0000                 0.0000
 Depolar     --     0.0000                 0.0000                 0.0000
 Atom AN      X      Y      Z        X      Y      Z        X      Y      Z
   1   6     0.00   0.11  -0.00    -0.00  -0.00  -0.42     0.36   0.00  -0.00
   2   6     0.09  -0.01   0.00    -0.00   0.00   0.21     0.36  -0.09  -0.00
   3   6     0.17  -0.01   0.00    -0.00   0.00   0.33    -0.02  -0.12   0.00
   4   6    -0.00  -0.24   0.00    -0.00   0.00  -0.16     0.05   0.00  -0.00
   5   6    -0.17  -0.01   0.00     0.00   0.00   0.33    -0.02   0.12   0.00
   6   6    -0.09  -0.01   0.00     0.00   0.00   0.21     0.36   0.09   0.00
   7  17    -0.51   0.25  -0.00     0.00  -0.00  -0.06    -0.39   0.26  -0.00
   8   6    -0.00  -0.30  -0.00    -0.00   0.00  -0.54     0.27   0.00  -0.00
   9   7     0.00  -0.33  -0.00     0.00  -0.00   0.27    -0.12  -0.00   0.00
  10  17     0.51   0.25  -0.00    -0.00  -0.00  -0.06    -0.39  -0.26   0.00
  11   1     0.00   0.03  -0.00    -0.00  -0.00  -0.32     0.06   0.00  -0.00
  12   1     0.00  -0.04   0.00    -0.00   0.00   0.06     0.13   0.02  -0.00
  13   1    -0.00  -0.04   0.00    -0.00   0.00   0.06     0.13  -0.02   0.00
                     10                     11                     12
                        a                      a                      a 
 Frequencies --   506.2257               545.0950               546.3811
 Red. masses --    11.5922                10.7019                16.3328
 Frc consts  --     0.0000                 0.0000                 0.0000
 IR Inten    --     0.0000                 4.5420                 0.0038
 Raman Activ --     0.0000                 0.0000                 0.0000
 Depolar     --     0.0000                 0.0000                 0.0000
 Atom AN      X      Y      Z        X      Y      Z        X      Y      Z
   1   6    -0.00  -0.00  -0.00    -0.00  -0.01  -0.38     0.00  -0.53   0.01
   2   6     0.00  -0.00  -0.21    -0.00  -0.01   0.31    -0.10  -0.28  -0.01
   3   6     0.00   0.00   0.64    -0.00  -0.00  -0.12    -0.06  -0.18   0.00
   4   6     0.00   0.00  -0.00    -0.00   0.00  -0.38     0.00   0.11   0.01
   5   6     0.00  -0.00  -0.64     0.00  -0.00  -0.12     0.06  -0.18   0.00
   6   6     0.00   0.00   0.21     0.00  -0.01   0.31     0.10  -0.28  -0.01
   7  17    -0.00   0.00   0.09    -0.01   0.00  -0.01    -0.23   0.20   0.00
   8   6    -0.00  -0.00   0.00     0.00   0.01   0.56    -0.00   0.32  -0.01
   9   7     0.00   0.00  -0.00    -0.00   0.01  -0.20     0.00   0.38   0.01
  10  17    -0.00  -0.00  -0.09     0.01   0.00  -0.01     0.23   0.20   0.00
  11   1    -0.00  -0.00  -0.00    -0.00  -0.00  -0.17    -0.00  -0.15   0.00
  12   1    -0.00  -0.00  -0.19    -0.00  -0.00   0.22    -0.01  -0.05  -0.01
  13   1     0.00   0.00   0.19     0.00  -0.00   0.22     0.01  -0.05  -0.01
                     13                     14                     15
                        a                      a                      a 
 Frequencies --   569.5703               670.8151               768.2212
 Red. masses --    11.8820                11.8177                15.2231
 Frc consts  --     0.0000                 0.0000                 0.0000
 IR Inten    --     6.5212                 0.2593                24.2904
 Raman Activ --     0.0000                 0.0000                 0.0000
 Depolar     --     0.0000                 0.0000                 0.0000
 Atom AN      X      Y      Z        X      Y      Z        X      Y      Z
   1   6    -0.03   0.00  -0.00    -0.00  -0.00  -0.23     0.04   0.00  -0.00
   2   6     0.14  -0.27   0.00     0.00   0.00   0.24     0.17  -0.25   0.00
   3   6     0.16  -0.21  -0.00    -0.00  -0.00  -0.42    -0.44  -0.20   0.00
   4   6     0.19  -0.00  -0.00     0.00   0.00   0.62    -0.39  -0.00   0.00
   5   6     0.16   0.21   0.00     0.00  -0.00  -0.42    -0.45   0.20  -0.00
   6   6     0.14   0.27  -0.00     0.00   0.00   0.24     0.17   0.25  -0.00
   7  17    -0.06  -0.02  -0.00    -0.00   0.00   0.02     0.25  -0.12   0.00
   8   6    -0.74  -0.00   0.00    -0.00   0.00  -0.24     0.05   0.00  -0.00
   9   7     0.21  -0.00  -0.00     0.00  -0.00   0.08    -0.02   0.00   0.00
  10  17    -0.06   0.02   0.00     0.00   0.00   0.02     0.25   0.12  -0.00
  11   1    -0.11   0.00   0.00    -0.00  -0.00  -0.03    -0.14   0.00   0.00
  12   1     0.02  -0.11   0.00     0.00   0.00   0.10     0.08  -0.01  -0.00
  13   1     0.02   0.11  -0.00    -0.00   0.00   0.10     0.08   0.00   0.00
                     16                     17                     18
                        a                      a                      a 
 Frequencies --   768.5760               801.1960               888.4160
 Red. masses --    11.4396                 3.1614                 3.8157
 Frc consts  --     0.0000                 0.0000                 0.0000
 IR Inten    --     0.0642                28.8019                 0.0000
 Raman Activ --     0.0000                 0.0000                 0.0000
 Depolar     --     0.0000                 0.0000                 0.0000
 Atom AN      X      Y      Z        X      Y      Z        X      Y      Z
   1   6    -0.00   0.45  -0.00    -0.00  -0.00  -0.24     0.00  -0.00  -0.00
   2   6     0.40  -0.20  -0.00    -0.00  -0.00  -0.22    -0.00  -0.00  -0.35
   3   6     0.18  -0.18   0.00    -0.00   0.00   0.12    -0.00   0.00   0.06
   4   6     0.00  -0.12  -0.00     0.00   0.00   0.09     0.00  -0.00  -0.00
   5   6    -0.17  -0.19   0.00     0.00   0.00   0.12    -0.00  -0.00  -0.06
   6   6    -0.40  -0.20   0.00     0.00  -0.00  -0.22     0.00   0.00   0.35
   7  17     0.03  -0.03   0.00    -0.00  -0.00  -0.02     0.00  -0.00   0.01
   8   6    -0.00   0.25  -0.00    -0.00   0.00  -0.05    -0.00  -0.00  -0.00
   9   7     0.00   0.33   0.00     0.00  -0.00   0.02     0.00  -0.00   0.00
  10  17    -0.04  -0.03   0.00    -0.00  -0.00  -0.02     0.00   0.00  -0.01
  11   1     0.00   0.12  -0.00     0.00   0.00   0.52    -0.00  -0.00   0.00
  12   1     0.04  -0.18   0.00     0.00   0.00   0.52     0.00   0.00   0.61
  13   1    -0.04  -0.18   0.00    -0.00   0.00   0.52     0.00  -0.00  -0.61
                     19                     20                     21
                        a                      a                      a 
 Frequencies --   921.2560              1052.5471              1112.7503
 Red. masses --     3.4660                10.8298                 7.7502
 Frc consts  --     0.0000                 0.0000                 0.0000
 IR Inten    --     0.1114                 6.9194                 3.5057
 Raman Activ --     0.0000                 0.0000                 0.0000
 Depolar     --     0.0000                 0.0000                 0.0000
 Atom AN      X      Y      Z        X      Y      Z        X      Y      Z
   1   6     0.00   0.00   0.38    -0.00   0.15  -0.00    -0.00   0.41  -0.00
   2   6    -0.00  -0.00  -0.19     0.24  -0.07   0.00    -0.33  -0.01   0.00
   3   6     0.00  -0.00  -0.04    -0.52  -0.15   0.00    -0.25  -0.19   0.00
   4   6     0.00  -0.00   0.07     0.00   0.25   0.00     0.00   0.03  -0.00
   5   6    -0.00  -0.00  -0.04     0.52  -0.15   0.00     0.25  -0.19   0.00
   6   6     0.00  -0.00  -0.19    -0.24  -0.07   0.00     0.33  -0.01   0.00
   7  17     0.00  -0.00  -0.00    -0.09   0.04  -0.00    -0.05   0.04  -0.00
   8   6     0.00   0.00  -0.01    -0.00  -0.09   0.00    -0.00  -0.00   0.00
   9   7     0.00  -0.00   0.00     0.00  -0.15  -0.00     0.00  -0.01  -0.00
  10  17     0.00   0.00  -0.00     0.09   0.04  -0.00     0.05   0.04  -0.00
  11   1    -0.00  -0.00  -0.71     0.00   0.04  -0.00     0.00   0.12  -0.00
  12   1     0.00   0.00   0.37     0.19   0.20  -0.00    -0.29  -0.33   0.00
  13   1     0.00   0.00   0.37    -0.19   0.20  -0.00     0.29  -0.33   0.00
                     22                     23                     24
                        a                      a                      a 
 Frequencies --  1168.6311              1180.0542              1222.9686
 Red. masses --     3.7240                 3.7288                 9.1286
 Frc consts  --     0.0000                 0.0000                 0.0000
 IR Inten    --    12.1177                16.2104                 7.9464
 Raman Activ --     0.0000                 0.0000                 0.0000
 Depolar     --     0.0000                 0.0000                 0.0000
 Atom AN      X      Y      Z        X      Y      Z        X      Y      Z
   1   6     0.12  -0.00  -0.00    -0.06  -0.00   0.00    -0.00   0.16  -0.00
   2   6    -0.12   0.03   0.00    -0.13   0.04   0.00    -0.21   0.15  -0.00
   3   6    -0.11  -0.28   0.00    -0.07  -0.20   0.00    -0.03  -0.25   0.00
   4   6     0.10   0.00  -0.00     0.34   0.00  -0.00     0.00  -0.60  -0.00
   5   6    -0.11   0.28  -0.00    -0.07   0.20  -0.00     0.03  -0.25   0.00
   6   6    -0.12  -0.03   0.00    -0.13  -0.04   0.00     0.21   0.15  -0.00
   7  17     0.03  -0.02   0.00     0.01  -0.02   0.00    -0.02   0.01  -0.00
   8   6    -0.04  -0.00   0.00    -0.05  -0.00   0.00     0.00   0.12  -0.00
   9   7     0.01   0.00  -0.00     0.01  -0.00  -0.00    -0.00   0.24   0.00
  10  17     0.03   0.02  -0.00     0.01   0.02  -0.00     0.02   0.01  -0.00
  11   1     0.85   0.00  -0.00    -0.07  -0.00   0.00    -0.00   0.05  -0.00
  12   1    -0.09  -0.08   0.00     0.27   0.55  -0.00     0.11   0.35  -0.00
  13   1    -0.09   0.08  -0.00     0.27  -0.55   0.00    -0.11   0.35  -0.00
                     25                     26                     27
                        a                      a                      a 
 Frequencies --  1303.4848              1392.2711              1415.1308
 Red. masses --    11.9658                 8.9453                10.4028
 Frc consts  --     0.0000                 0.0000                 0.0000
 IR Inten    --     2.4904                87.7822                 0.0010
 Raman Activ --     0.0000                 0.0000                 0.0000
 Depolar     --     0.0000                 0.0000                 0.0000
 Atom AN      X      Y      Z        X      Y      Z        X      Y      Z
   1   6     0.39   0.00  -0.00     0.26   0.00  -0.00     0.00  -0.27   0.00
   2   6    -0.19  -0.33   0.00     0.00   0.38  -0.00     0.24   0.19  -0.00
   3   6    -0.23   0.34  -0.00    -0.23  -0.23   0.00    -0.30   0.21  -0.00
   4   6     0.46   0.00  -0.00     0.38   0.00  -0.00     0.00  -0.55   0.00
   5   6    -0.23  -0.34   0.00    -0.23   0.23  -0.00     0.30   0.21  -0.00
   6   6    -0.19   0.33  -0.00     0.00  -0.38   0.00    -0.24   0.19  -0.00
   7  17    -0.00  -0.01   0.00     0.01  -0.01   0.00    -0.02  -0.01   0.00
   8   6    -0.02   0.00   0.00    -0.05  -0.00   0.00     0.00   0.06  -0.00
   9   7     0.01   0.00  -0.00     0.01  -0.00  -0.00    -0.00   0.13   0.00
  10  17    -0.00   0.01  -0.00     0.01   0.01  -0.00     0.02  -0.01  -0.00
  11   1     0.01   0.00   0.00    -0.39  -0.00   0.00    -0.00  -0.08   0.00
  12   1    -0.02  -0.04  -0.00    -0.17  -0.18   0.00    -0.10  -0.25   0.00
  13   1    -0.02   0.04   0.00    -0.17   0.18  -0.00     0.10  -0.25   0.00
                     28                     29                     30
                        a                      a                      a 
 Frequencies --  1543.3444              1561.5417              2377.2145
 Red. masses --    11.5207                11.6701                12.7931
 Frc consts  --     0.0000                 0.0000                 0.0000
 IR Inten    --    84.9554                37.8322               118.5580
 Raman Activ --     0.0000                 0.0000                 0.0000
 Depolar     --     0.0000                 0.0000                 0.0000
 Atom AN      X      Y      Z        X      Y      Z        X      Y      Z
   1   6     0.64   0.00  -0.00     0.00  -0.23   0.00     0.00   0.00  -0.00
   2   6    -0.32  -0.07   0.00     0.16   0.46  -0.00    -0.00  -0.01  -0.00
   3   6     0.23  -0.18   0.00     0.10  -0.42   0.00    -0.01   0.01   0.00
   4   6    -0.39  -0.00   0.00    -0.00   0.25  -0.00    -0.00   0.08  -0.00
   5   6     0.23   0.18  -0.00    -0.10  -0.42   0.00     0.01   0.01   0.00
   6   6    -0.32   0.07  -0.00    -0.16   0.46  -0.00     0.00  -0.01  -0.00
   7  17     0.00  -0.01   0.00     0.00   0.00   0.00    -0.00   0.00  -0.00
   8   6     0.02   0.00  -0.00     0.00  -0.02   0.00     0.00  -0.77  -0.00
   9   7    -0.01  -0.00   0.00     0.00  -0.03  -0.00    -0.00   0.63   0.00
  10  17     0.00   0.01  -0.00    -0.00   0.00   0.00     0.00   0.00  -0.00
  11   1    -0.18   0.00   0.00    -0.00  -0.06   0.00     0.00   0.00  -0.00
  12   1    -0.04   0.06  -0.00    -0.08  -0.09   0.00    -0.00  -0.00  -0.00
  13   1    -0.04  -0.06   0.00     0.08  -0.09   0.00     0.00  -0.00  -0.00
                     31                     32                     33
                        a                      a                      a 
 Frequencies --  3099.4274              3114.2443              3117.9449
 Red. masses --     1.7939                 1.8430                 1.8970
 Frc consts  --     0.0000                 0.0000                 0.0000
 IR Inten    --     7.7877                 5.2751                 0.5264
 Raman Activ --     0.0000                 0.0000                 0.0000
 Depolar     --     0.0000                 0.0000                 0.0000
 Atom AN      X      Y      Z        X      Y      Z        X      Y      Z
   1   6     0.00  -0.25   0.00    -0.00  -0.00   0.00    -0.00   0.12  -0.00
   2   6    -0.06   0.03  -0.00     0.17  -0.10   0.00    -0.16   0.09  -0.00
   3   6    -0.00   0.00   0.00     0.01   0.00  -0.00    -0.00  -0.00   0.00
   4   6     0.00  -0.00  -0.00    -0.00   0.00   0.00    -0.00  -0.00  -0.00
   5   6     0.00   0.00  -0.00     0.01  -0.00   0.00     0.00  -0.00   0.00
   6   6     0.06   0.03  -0.00     0.17   0.10  -0.00     0.16   0.09  -0.00
   7  17    -0.00  -0.00   0.00    -0.00   0.00  -0.00    -0.00   0.00  -0.00
   8   6    -0.00   0.00   0.00     0.00   0.00  -0.00     0.00  -0.00  -0.00
   9   7     0.00  -0.00  -0.00    -0.00  -0.00   0.00    -0.00   0.00   0.00
  10  17     0.00  -0.00   0.00    -0.00  -0.00   0.00     0.00   0.00  -0.00
  11   1    -0.00   0.88  -0.00    -0.00   0.00  -0.00     0.00  -0.38   0.00
  12   1     0.24  -0.14   0.00    -0.59   0.34  -0.00     0.54  -0.31   0.00
  13   1    -0.24  -0.13   0.00    -0.59  -0.34   0.00    -0.54  -0.31   0.00
