
                                 *****************
                                 * O   R   C   A *
                                 *****************

                                            #,                                       
                                            ###                                      
                                            ####                                     
                                            #####                                    
                                            ######                                   
                                           ########,                                 
                                     ,,################,,,,,                         
                               ,,#################################,,                 
                          ,,##########################################,,             
                       ,#########################################, ''#####,          
                    ,#############################################,,   '####,        
                  ,##################################################,,,,####,       
                ,###########''''           ''''###############################       
              ,#####''   ,,,,##########,,,,          '''####'''          '####       
            ,##' ,,,,###########################,,,                        '##       
           ' ,,###''''                  '''############,,,                           
         ,,##''                                '''############,,,,        ,,,,,,###''
      ,#''                                            '''#######################'''  
     '                                                          ''''####''''         
             ,#######,   #######,   ,#######,      ##                                
            ,#'     '#,  ##    ##  ,#'     '#,    #''#        ,####,   ,####,        
            ##       ##  ##   ,#'  ##            #'  '#       #'       #'  '#        
            ##       ##  #######   ##           ,######,      #####,   #    #        
            '#,     ,#'  ##    ##  '#,     ,#' ,#      #,     #,   #   #,  ,#        
             '#######'   ##     ##  '#######'  #'      '#     '####' # '####'        



                #########################################################
                #                        -***-                          #
                #          Department of theory and spectroscopy        #
                #                                                       #
                #                      Frank Neese                      #
                #                                                       #
                #     Directorship, Architecture, Infrastructure        #
                #                    SHARK, DRIVERS                     #
                #        Core code/Algorithms in most modules           #
                #                                                       #
                #        Max Planck Institute fuer Kohlenforschung      #
                #                Kaiser Wilhelm Platz 1                 #
                #                 D-45470 Muelheim/Ruhr                 #
                #                      Germany                          #
                #                                                       #
                #                  All rights reserved                  #
                #                        -***-                          #
                #########################################################


                         Program Version 6.0.1  -  RELEASE   -


 With contributions from (in alphabetic order):
[Max-Planck-Institut fuer Kohlenforschung]                               
  Daniel Aravena         : Magnetic Suceptibility                        
  Michael Atanasov       : Ab Initio Ligand Field Theory (pilot matlab implementation)
  Alexander A. Auer      : GIAO ZORA, VPT2 properties, NMR spectrum      
  Ute Becker             : All parallelization in ORCA, NUMFREQ, NUMCALC 
  Giovanni Bistoni       : ED, misc. LED, open-shell LED, HFLD           
  Martin Brehm           : Molecular dynamics                            
  Dmytro Bykov           : pre 5.0 version of the SCF Hessian            
  Marcos Casanova-Páez   : Triplet and SCS-CIS(D). UHF-(DLPNO)-IP/EA/STEOM-CCSD. UHF-CVS-IP/STEOM-CCSD   
  Vijay G. Chilkuri      : MRCI spin determinant printing, contributions to CSF-ICE 
  Pauline Colinet        : FMM embedding                                 
  Dipayan Datta          : RHF DLPNO-CCSD density                        
  Achintya Kumar Dutta   : EOM-CC, STEOM-CC                              
  Nicolas Foglia         : Exact transition moments, OPA infrastructure, MCD improvements    
  Dmitry Ganyushin       : Spin-Orbit,Spin-Spin,Magnetic field MRCI      
  Miquel Garcia-Rates    : C-PCM and meta-GGA Hessian, CCSD/C-PCM, Gaussian charge scheme 
  Tiago L. C. Gouveia    : GS-ROHF, GS-ROCIS                             
  Yang Guo               : DLPNO-NEVPT2, F12-NEVPT2, CIM, IAO-localization        
  Andreas Hansen         : Spin unrestricted coupled pair/coupled cluster methods 
  Ingolf Harden          : AUTO-CI MPn and infrastructure                
  Benjamin Helmich-Paris : MC-RPA, TRAH-(SCF,CASSCF), AVAS, COSX integrals, SCF dyn. polar. 
  Lee Huntington         : MR-EOM, pCC                                   
  Robert Izsak           : Overlap fitted RIJCOSX, COSX-SCS-MP3, EOM     
  Riya Kayal             : Wick's Theorem for AUTO-CI, AUTO-CI UHF-CCSDT 
  Emily Kempfer          : AUTO-CI, RHF CISDT and CCSDT                  
  Christian Kollmar      : KDIIS, OOCD, Brueckner-CCSD(T), CCSD density, CASPT2, CASPT2-K, improved NEVPT2 
  Axel Koslowski         : Symmetry handling                             
  Simone Kossmann        : meta-GGA functionals, TD-DFT gradient, OOMP2, (MP2 Hessian; deprecated post 5.0) 
  Lucas Lang             : DCDCAS                                        
  Marvin Lechner         : AUTO-CI (C++ implementation), FIC-MRCC        
  Spencer Leger          : CASSCF response                               
  Dagmar Lenk            : GEPOL surface, SMD, ORCA-2-JSON               
  Dimitrios Liakos       : Extrapolation schemes; Compound Job, initial MDCI parallelization 
  Dimitrios Manganas     : Further ROCIS development; embedding schemes. LFT, Crystal Embedding 
  Dimitrios Pantazis     : SARC Basis sets                               
  Anastasios Papadopoulos: AUTO-CI, single reference methods and gradients 
  Taras Petrenko         : pre 6.0 DFT Hessian and TD-DFT gradient, (ASA, deprecated), ECA, 1-Electron XAS/XES, NRVS 
  Peter Pinski           : DLPNO-MP2, DLPNO-MP2 Gradient                 
  Christoph Reimann      : Effective Core Potentials                     
  Marius Retegan         : Local ZFS, SOC                                
  Christoph Riplinger    : Optimizer, TS searches, QM/MM, DLPNO-CCSD(T), (RO)-DLPNO pert. Triples 
  Michael Roemelt        : Original ROCIS implementation                 
  Masaaki Saitow         : Open-shell DLPNO-CCSD energy and density      
  Barbara Sandhoefer     : DKH picture change effects                    
  Kantharuban Sivalingam : CASSCF convergence/infrastructure, NEVPT2 and variants, FIC-MRCI 
  Bernardo de Souza      : ESD, SOC TD-DFT                               
  Georgi L. Stoychev     : AutoAux, RI-MP2 NMR, DLPNO-MP2 response, X2C  
  Van Anh Tran           : RI-MP2 g-tensors                              
  Willem Van den Heuvel  : Paramagnetic NMR                              
  Zikuan Wang            : NOTCH, Electric field optimization            
  Frank Wennmohs         : Technical directorship and infrastructure     
  Hang Xu                : AUTO-CI-Response properties                   
                                                                         
[FACCTs GmbH]                                                            
  Markus Bursch, Miquel Garcia-Rates, Christoph Riplinger, Bernardo de Souza, Georgi L. Stoychev 
                                                                 
  APM, Basis sets (HGBS, AHGBS, def-TZVP (Ac-Lr), def2-XVPD (La-Lu)), CI-OPT, improved COSX, DLPNO-Multilevel,           
  DOCKER, DRACO, updates on ESD, GOAT, IRC, LR-CPCM, MBIS, meta-GGA TD-DFT gradient, ML-optimized integration grids, 
  MM, NACMEs, nearIR, NEB, NEB-TS, NL-DFT gradient (VV10), 2- and 3-layer-ONIOM, interface openCOSMO-RS, QMMM,   
  Crystal-QMMM, SF, symmetry and pop. for TD-DFT, r2SCAN hybrids, SOLVATOR                                   
                                                                         
[Other institutions]                                                     
  V. Asgeirsson          : NEB                                           
  Christoph Bannwarth    : sTDA-DFT, sTD-DFT, PBEh-3c, B97-3c, D3        
  Sebastian Ehlert       : rSCAN, r2SCAN, r2SCAN-3c, D4, dhf basis sets  
  Marvin Friede          : D4 for Fr, Ra, Ac-Lr                          
  Lars Goerigk           : TD-DFT with DH, B97 family of functionals     
  Stefan Grimme          : VdW corrections, initial TS optimization, DFT functionals, gCP, sTDA/sTD-DF 
  Waldemar Hujo          : DFT-NL                                        
  H. Jonsson             : NEB                                           
  Holger Kruse           : gCP                                           
  Marcel Mueller         : wB97X-3c, vDZP basis set                      
  Hagen Neugebauer       : wr2SCAN                                       
  Tobias Risthaus        : range-separated hybrid DFT                    
  Lukas Wittmann         : regularized MP2, r2SCAN double-hybrids, wr2SCAN        
                                                                         
We gratefully acknowledge several colleagues who have allowed us to      
interface, adapt or use parts of their codes:                            
  Ed Valeev, F. Pavosevic, A. Kumar             : LibInt (2-el integral package), F12 methods 
  Garnet Chan, S. Sharma, J. Yang, R. Olivares  : DMRG                   
  Ulf Ekstrom                                   : XCFun DFT Library      
  Mihaly Kallay                                 : mrcc  (arbitrary order and MRCC methods)
  Frank Weinhold                                : gennbo (NPA and NBO analysis)           
  Simon Mueller                                 : openCOSMO-RS                            
  Christopher J. Cramer and Donald G. Truhlar   : smd solvation model                     
  S Lehtola, MJT Oliveira, MAL Marques          : LibXC Library                           
  Liviu Ungur et al                             : ANISO software                          


 Your calculation uses the libint2 library for the computation of 2-el integrals
 For citations please refer to: http://libint.valeyev.net

 Your ORCA version has been built with support for libXC version: 6.2.2
 For citations please refer to: https://libxc.gitlab.io

 This ORCA versions uses:
   CBLAS   interface :  Fast vector & matrix operations
   LAPACKE interface :  Fast linear algebra routines
   SCALAPACK package :  Parallel linear algebra routines
   Shared memory     :  Shared parallel matrices
   BLAS/LAPACK       :  OpenBLAS 0.3.27  USE64BITINT DYNAMIC_ARCH NO_AFFINITY Zen SINGLE_THREADED
        Core in use  :  Zen
   Copyright (c) 2011-2014, The OpenBLAS Project


Your calculation utilizes the geometrical counterpoise correction gCP
Please cite in your paper:
H.Kruse, S. Grimme J.Chem.Phys., 136, (2012), 154101 
   

Your calculation utilizes the atom-pairwise dispersion correction
based on EEQ partial charges (D4)


================================================================================

----- Orbital basis set information -----
Your calculation utilizes the basis: def2-mTZVPP
   Stefan Grimme, Andreas Hansen, Sebastian Ehlert, and Jan-Michael Mewes 
   J. Chem. Phys. 154, 064103 (2021). DOI: 10.1063/5.0040021

----- AuxJ basis set information -----
Your calculation utilizes the auxiliary basis: def2/J
   F. Weigend, Phys. Chem. Chem. Phys. 8, 1057 (2006).

================================================================================
                                        WARNINGS
                       Please study these warnings very carefully!
================================================================================



WARNING: SCAN, rSCAN, or r2SCAN functional requested.
  ===> : libXC variant has now been activated.



================================================================================
                                       INPUT FILE
================================================================================
NAME = sp.inp
|  1> ! r2scan-3c def2/J RI DEFGRID2 scfconv6 printgap
|  2> %output
|  3>     printlevel normal
|  4> end
|  5> * xyz 0 1
|  6> C -0.7314523558 5.4283e-06 3.109e-06
|  7> F 0.6326785644 2.3645e-06 7.256e-07
|  8> H -1.0696584044 -0.0576005975 -1.0352204371
|  9> H -1.0696448858 -0.8677714236 0.5674366442
| 10> H -1.0697513705 0.9252627631 0.4677330661
| 11> *
| 12> 
| 13>                          ****END OF INPUT****
================================================================================

                       ****************************
                       * Single Point Calculation *
                       ****************************

---------------------------------
CARTESIAN COORDINATES (ANGSTROEM)
---------------------------------
  C     -0.731452    0.000005    0.000003
  F      0.632679    0.000002    0.000001
  H     -1.069658   -0.057601   -1.035220
  H     -1.069645   -0.867771    0.567437
  H     -1.069751    0.925263    0.467733

----------------------------
CARTESIAN COORDINATES (A.U.)
----------------------------
  NO LB      ZA    FRAG     MASS         X           Y           Z
   0 C     6.0000    0    12.011   -1.382245    0.000010    0.000006
   1 F     9.0000    0    18.998    1.195589    0.000004    0.000001
   2 H     1.0000    0     1.008   -2.021361   -0.108849   -1.956283
   3 H     1.0000    0     1.008   -2.021336   -1.639850    1.072300
   4 H     1.0000    0     1.008   -2.021537    1.748493    0.883887

--------------------------------
INTERNAL COORDINATES (ANGSTROEM)
--------------------------------
 C      0   0   0     0.000000000000     0.00000000     0.00000000
 F      1   0   0     1.364130920206     0.00000000     0.00000000
 H      1   2   0     1.090591388155   108.06590477     0.00000000
 H      1   2   3     1.090592347722   108.06519546   119.99532163
 H      1   2   3     1.090558880445   108.07186661   239.99776728

---------------------------
INTERNAL COORDINATES (A.U.)
---------------------------
 C      0   0   0     0.000000000000     0.00000000     0.00000000
 F      1   0   0     2.577833850002     0.00000000     0.00000000
 H      1   2   0     2.060919047626   108.06590477     0.00000000
 H      1   2   3     2.060920860946   108.06519546   119.99532163
 H      1   2   3     2.060857616956   108.07186661   239.99776728

---------------------
BASIS SET INFORMATION
---------------------
There are 3 groups of distinct atoms

 Group   1 Type C   : 11s6p1d contracted to 5s3p1d pattern {62111/411/1}
 Group   2 Type F   : 11s6p2d contracted to 5s3p2d pattern {62111/411/11}
 Group   3 Type H   : 4s1p contracted to 2s1p pattern {31/1}

Atom   0C    basis set group =>   1
Atom   1F    basis set group =>   2
Atom   2H    basis set group =>   3
Atom   3H    basis set group =>   3
Atom   4H    basis set group =>   3
---------------------------------
AUXILIARY/J BASIS SET INFORMATION
---------------------------------
There are 3 groups of distinct atoms

 Group   1 Type C   : 12s5p4d2f1g contracted to 6s4p3d1f1g pattern {711111/2111/211/2/1}
 Group   2 Type F   : 12s5p4d2f1g contracted to 6s4p3d1f1g pattern {711111/2111/211/2/1}
 Group   3 Type H   : 5s2p1d contracted to 3s1p1d pattern {311/2/1}

Atom   0C    basis set group =>   1
Atom   1F    basis set group =>   2
Atom   2H    basis set group =>   3
Atom   3H    basis set group =>   3
Atom   4H    basis set group =>   3

Checking for AutoStart:
The File: sp.gbw exists
Trying to determine its content:
     ... Fine, the file contains calculation information
     ... Fine, the calculation information was read
     ... Fine, the file contains a basis set
     ... Fine, the basis set was read
     ... Fine, the file contains a geometry
     ... Fine, the geometry was read
     ... Fine, the file contains a set of orbitals
     ... Fine, the orbitals can be read
     => possible old guess file was deleted
     => GBW file was renamed to GES file
     => GES file is set as startup file
     => Guess is set to MORead
     ... now leaving AutoStart

------------------------------------------------------------------------------
                             ORCA STARTUP CALCULATIONS
                           -- RI-GTO INTEGRALS CHOSEN --
------------------------------------------------------------------------------
------------------------------------------------------------------------------
                   ___                                                        
                  /   \      - P O W E R E D   B Y -                         
                 /     \                                                     
                 |  |  |   _    _      __       _____    __    __             
                 |  |  |  | |  | |    /  \     |  _  \  |  |  /  |          
                  \  \/   | |  | |   /    \    | | | |  |  | /  /          
                 / \  \   | |__| |  /  /\  \   | |_| |  |  |/  /          
                |  |  |   |  __  | /  /__\  \  |    /   |      \           
                |  |  |   | |  | | |   __   |  |    \   |  |\   \          
                \     /   | |  | | |  |  |  |  | |\  \  |  | \   \       
                 \___/    |_|  |_| |__|  |__|  |_| \__\ |__|  \__/        
                                                                              
                      - O R C A' S   B I G   F R I E N D -                    
                                      &                                       
                       - I N T E G R A L  F E E D E R -                       
                                                                              
 v1 FN, 2020, v2 2021, v3 2022-2024                                           
------------------------------------------------------------------------------


----------------------
SHARK INTEGRAL PACKAGE
----------------------

Number of atoms                             ...      5
Number of basis functions                   ...     58
Number of shells                            ...     28
Maximum angular momentum                    ...      2
Integral batch strategy                     ... SHARK/LIBINT Hybrid
RI-J (if used) integral strategy            ... SPLIT-RIJ (Revised 2003 algorithm where possible)
Printlevel                                  ...      1
Contraction scheme used                     ... SEGMENTED contraction
Prescreening option                         ... SCHWARTZ
   Thresh                                   ... 1.000e-10
   Tcut                                     ... 1.000e-11
   Tpresel                                  ... 1.000e-11 
Coulomb Range Separation                    ... NOT USED
Exchange Range Separation                   ... NOT USED
Multipole approximations                    ... NOT USED
Finite Nucleus Model                        ... NOT USED
CABS basis                                  ... NOT available
Auxiliary Coulomb fitting basis             ... AVAILABLE
   # of basis functions in Aux-J            ...    131
   # of shells in Aux-J                     ...     45
   Maximum angular momentum in Aux-J        ...      4
Auxiliary J/K fitting basis                 ... NOT available
Auxiliary Correlation fitting basis         ... NOT available
Auxiliary 'external' fitting basis          ... NOT available

Checking pre-screening integrals            ... done (  0.0 sec) Dimension = 28
Check shell pair data                       ... done (  0.0 sec)
Shell pair information
Shell pair cut-off parameter TPreSel        ...   1.0e-11
Total number of shell pairs                 ...       406
Shell pairs after pre-screening             ...       404
Total number of primitive shell pairs       ...      1431
Primitive shell pairs kept                  ...      1244
          la=0 lb=0:    134 shell pairs
          la=1 lb=0:    144 shell pairs
          la=1 lb=1:     45 shell pairs
          la=2 lb=0:     48 shell pairs
          la=2 lb=1:     27 shell pairs
          la=2 lb=2:      6 shell pairs

Calculating one electron integrals          ... done (  0.0 sec)
Calculating RI/J V-Matrix + Cholesky decomp.... done (  0.0 sec)
Calculating Nuclear repulsion               ... done (  0.0 sec) ENN=     37.734016514191 Eh

Diagonalization of the overlap matrix:
Smallest eigenvalue                        ... 2.821e-03
Time for diagonalization                   ...    0.000 sec
Threshold for overlap eigenvalues          ... 1.000e-07
Number of eigenvalues below threshold      ... 0
Time for construction of square roots      ...    0.002 sec
Total time needed                          ...    0.004 sec

-------------------
DFT GRID GENERATION
-------------------

General Integration Accuracy     IntAcc      ... 4.388
Radial Grid Type                 RadialGrid  ... OptM3 with GC (2021)
Angular Grid (max. ang.)         AngularGrid ... 4 (Lebedev-302)
Angular grid pruning method      GridPruning ... 4 (adaptive)
Weight generation scheme         WeightScheme... mBecke (2022)
Basis function cutoff            BFCut       ... 1.0000e-10
Integration weight cutoff        WCut        ... 1.0000e-14
Partially contracted basis set               ... off
Rotationally invariant grid construction     ... off
Angular grids for H and He will be reduced by one unit

Total number of grid points                  ...    22084
Total number of batches                      ...      348
Average number of points per batch           ...       63
Average number of grid points per atom       ...     4417
Initializing property integral containers    ... done (  0.0 sec)

SHARK setup successfully completed in   0.2 seconds

Maximum memory used throughout the entire STARTUP-calculation: 11.0 MB
-------------------------------------------------------------------------------
                                 ORCA GUESS
                   Start orbitals & Density for SCF / CASSCF
-------------------------------------------------------------------------------

------------
SCF SETTINGS
------------
Hamiltonian:
 Density Functional     Method          .... DFT(GTOs)
  Functional kind                       .... Exchange
  Functional name                       .... Re-regularized SCAN exchange by Furness et al
  Functional family                     .... MGGA
  Functional refs                              
    [ 0] J. W. Furness, A. D. Kaplan, J. Ning, J. P. Perdew, and J. Sun.,  J. Phys. Chem. Lett. 11, 8208-8215 (2020), doi: 10.1021/acs.jpclett.0c02405
    [ 1] J. W. Furness, A. D. Kaplan, J. Ning, J. P. Perdew, and J. Sun.,  J. Phys. Chem. Lett. 11, 9248-9248 (2020), doi: 10.1021/acs.jpclett.0c03077
  Functional external parameters        .... 6
    Parameter  0 _c1        =  6.670000e-01 : c1 parameter        
    Parameter  1 _c2        =  8.000000e-01 : c2 parameter        
    Parameter  2 _d         =  1.240000e+00 : d parameter         
    Parameter  3 _k1        =  6.500000e-02 : k1 parameter        
    Parameter  4 _eta       =  1.000000e-03 : eta parameter       
    Parameter  5 _dp2       =  3.610000e-01 : dp2 parameter       
  Functional kind                       .... Correlation
  Functional name                       .... Re-regularized SCAN correlation by Furness et al
  Functional family                     .... MGGA
  Functional refs                              
    [ 0] J. W. Furness, A. D. Kaplan, J. Ning, J. P. Perdew, and J. Sun.,  J. Phys. Chem. Lett. 11, 8208-8215 (2020), doi: 10.1021/acs.jpclett.0c02405
    [ 1] J. W. Furness, A. D. Kaplan, J. Ning, J. P. Perdew, and J. Sun.,  J. Phys. Chem. Lett. 11, 9248-9248 (2020), doi: 10.1021/acs.jpclett.0c03077
  Functional external parameters        .... 1
    Parameter  0 _eta       =  1.000000e-03 : Regularization parameter
 Gradients option       PostSCFGGA      .... off
 RI-approximation to the Coulomb term is turned on
   Number of AuxJ basis functions       .... 131


General Settings:
 Integral files         IntName         .... sp
 Hartree-Fock type      HFTyp           .... RHF
 Total Charge           Charge          ....    0
 Multiplicity           Mult            ....    1
 Number of Electrons    NEL             ....   18
 Basis Dimension        Dim             ....   58
 Nuclear Repulsion      ENuc            ....     37.7340165142 Eh

Convergence Acceleration:
 AO-DIIS                CNVDIIS         .... on
   Start iteration      DIISMaxIt       ....    12
   Startup error        DIISStart       ....  0.200000
   # of expansion vecs  DIISMaxEq       ....     5
   Bias factor          DIISBfac        ....   1.050
   Max. coefficient     DIISMaxC        ....  10.000
 MO-DIIS                CNVKDIIS        .... off
 Trust-Rad. Augm. Hess. CNVTRAH         .... auto
   Auto Start mean grad. ratio tolernc. ....  1.125000
   Auto Start start iteration           ....     1
   Auto Start num. interpolation iter.  ....    10
   Max. Number of Micro iterations      ....    24
   Max. Number of Macro iterations      .... Maxiter - #DIIS iter
   Number of Davidson start vectors     ....     2
   Converg. threshold    (grad. norm)   ....   3.330e-04
   Grad. Scal. Fac. for Micro threshold ....   0.100
   Minimum threshold for Micro iter.    ....   1.000e-02
   NR start threshold (gradient norm)   ....   1.000e-04
   Initial trust radius                 ....   0.400
   Minimum AH scaling param. (alpha)    ....   1.000
   Maximum AH scaling param. (alpha)    .... 1000.000
   Quad. conv. algorithm                .... NR
   White noise on init. David. guess    .... on
   Maximum white noise                  ....   0.010
   Pseudo random numbers                .... off
   Inactive MOs                         .... canonical
   Orbital update algorithm             .... Taylor
   Preconditioner                       .... Diag
   Full preconditioner red. dimension   ....   250
   COSX micro iterations for RIJONX calc.... off
 SOSCF                  CNVSOSCF        .... on
   Start iteration      SOSCFMaxIt      ....   150
   Startup grad/error   SOSCFStart      ....  0.003300
   Hessian update       SOSCFHessUp     .... L-BFGS
 Level Shifting         CNVShift        .... on
   Level shift para.    LevelShift      ....    0.2500
   Turn off err/grad.   ShiftErr        ....    0.0010
 Zerner damping         CNVZerner       .... off
 Static damping         CNVDamp         .... on
   Fraction old density DampFac         ....    0.7000
   Max. Damping (<1)    DampMax         ....    0.9800
   Min. Damping (>=0)   DampMin         ....    0.0000
   Turn off err/grad.   DampErr         ....    0.1000

SCF Procedure:
 Maximum # iterations   MaxIter         ....   125
 SCF integral mode      SCFMode         .... Direct
   Integral package                     .... SHARK and LIBINT hybrid scheme
 Reset frequency        DirectResetFreq ....    20
 Integral Threshold     Thresh          ....  1.000e-10 Eh
 Primitive CutOff       TCut            ....  1.000e-11 Eh

Convergence Tolerance:
 Convergence Check Mode ConvCheckMode   .... Total+1el-Energy
 Convergence forced     ConvForced      .... 0
 Energy Change          TolE            ....  1.000e-06 Eh
 1-El. energy change                    ....  1.000e-03 Eh
 Orbital Gradient       TolG            ....  3.330e-04
 Orbital Rotation angle TolX            ....  3.330e-04
 DIIS Error             TolErr          ....  1.000e-06

---------------------
INITIAL GUESS: MOREAD
---------------------
Guess MOs are being read from file: sp.ges
Input Geometry matches current geometry (good)
Atom 0: N(Shells)= 9 and 6 - projection required
Input basis set needs projection
NBasis(read)= 34
NBasis(calc)= 58
Basis set overlap was calculated
Using GuessMode=FMatrix for the initial guess
C*T matrix was formed
Effective Fockian was calculated
Effective Fockian was diagonalized
Initial density was built
                      ------------------
                      INITIAL GUESS DONE (   0.1 sec)
                      ------------------
             **** ENERGY FILE WAS UPDATED (sp.en.tmp) ****
Finished Guess after   0.3 sec
Maximum memory used throughout the entire GUESS-calculation: 6.2 MB

-------------------------------------------------------------------------------------------
                                      ORCA LEAN-SCF
                              memory conserving SCF solver
-------------------------------------------------------------------------------------------

----------------------------------------D-I-I-S--------------------------------------------
Iteration    Energy (Eh)           Delta-E    RMSDP     MaxDP     DIISErr   Damp  Time(sec)
-------------------------------------------------------------------------------------------
               ***  Starting incremental Fock matrix formation  ***
    1    -139.6526681498178846     0.00e+00  2.64e-03  3.82e-02  8.34e-01  0.700   0.2
    2    -139.6746132817023636    -2.19e-02  2.15e-03  2.86e-02  5.87e-01  0.700   0.2
    3    -139.6901188123131305    -1.55e-02  1.58e-03  2.02e-02  4.12e-01  0.700   0.4
    4    -139.7010102593714578    -1.09e-02  1.14e-03  1.42e-02  2.88e-01  0.700   0.2
    5    -139.7086513884564738    -7.64e-03  8.10e-04  1.01e-02  2.02e-01  0.700   0.2
                               ***Turning on AO-DIIS***
    6    -139.7140091578111196    -5.36e-03  5.91e-04  7.42e-03  1.42e-01  0.700   0.2
    7    -139.7177643419132096    -3.76e-03  4.19e-04  5.24e-03  9.91e-02  0.700   0.2
    8    -139.7203955670631785    -2.63e-03  9.84e-04  1.23e-02  6.94e-02  0.000   0.2
                              *** Initializing SOSCF ***
---------------------------------------S-O-S-C-F--------------------------------------
Iteration    Energy (Eh)           Delta-E    RMSDP     MaxDP     MaxGrad    Time(sec)
--------------------------------------------------------------------------------------
    9    -139.7265439029808363    -6.15e-03  4.73e-06  4.38e-05  4.38e-05     0.2
                  *** Gradient check signals convergence ***

               *****************************************************
               *                     SUCCESS                       *
               *           SCF CONVERGED AFTER   9 CYCLES          *
               *****************************************************

             **** ENERGY FILE WAS UPDATED (sp.en.tmp) ****

----------------
TOTAL SCF ENERGY
----------------

Total Energy       :       -139.72654390298084 Eh           -3802.15256 eV

Components:
Nuclear Repulsion  :         37.73401651419114 Eh            1026.79479 eV
Electronic Energy  :       -177.46056041717196 Eh           -4828.94735 eV
One Electron Energy:       -267.23373886037109 Eh           -7271.79973 eV
Two Electron Energy:         89.77317844319911 Eh            2442.85238 eV

Virial components:
Potential Energy   :       -279.00889145740325 Eh           -7592.21792 eV
Kinetic Energy     :        139.28234755442242 Eh            3790.06536 eV
Virial Ratio       :          2.00318917907659

DFT components:
N(Alpha)           :        9.000004156195 electrons
N(Beta)            :        9.000004156195 electrons
N(Total)           :       18.000008312390 electrons
E(X)               :      -16.381658935891 Eh       
E(C)               :       -0.574555179754 Eh       
E(XC)              :      -16.956214115645 Eh       

---------------
SCF CONVERGENCE
---------------

  Last Energy change         ...    6.1483e-03  Tolerance :   1.0000e-06
  Last MAX-Density change    ...    4.3803e-05  Tolerance :   1.0000e-05
  Last RMS-Density change    ...    4.7346e-06  Tolerance :   1.0000e-06
  Last DIIS Error            ...    4.3825e-05  Tolerance :   1.0000e-06
  Last Orbital Gradient      ...    4.3825e-05  Tolerance :   3.3300e-04
  Last Orbital Rotation      ...    4.3825e-05  Tolerance :   3.3300e-04


----------------
ORBITAL ENERGIES
----------------

  NO   OCC          E(Eh)            E(eV) 
   0   2.0000     -24.464365      -665.7092 
   1   2.0000     -10.100377      -274.8452 
   2   2.0000      -1.154723       -31.4216 
   3   2.0000      -0.664107       -18.0713 
   4   2.0000      -0.454868       -12.3776 
   5   2.0000      -0.447592       -12.1796 
   6   2.0000      -0.447586       -12.1794 
   7   2.0000      -0.304761        -8.2930 
   8   2.0000      -0.304753        -8.2927 
   9   0.0000       0.067227         1.8293 
  10   0.0000       0.112362         3.0575 
  11   0.0000       0.188252         5.1226 
  12   0.0000       0.188271         5.1231 
  13   0.0000       0.198801         5.4096 
  14   0.0000       0.198816         5.4101 
  15   0.0000       0.310230         8.4418 
  16   0.0000       0.319087         8.6828 
  17   0.0000       0.584152        15.8956 
  18   0.0000       0.618931        16.8420 
  19   0.0000       0.618940        16.8422 
*Only the first 10 virtual orbitals were printed.

                    ********************************
                    * MULLIKEN POPULATION ANALYSIS *
                    ********************************

-----------------------
MULLIKEN ATOMIC CHARGES
-----------------------
   0 C :   -0.094718
   1 F :   -0.294607
   2 H :    0.129775
   3 H :    0.129777
   4 H :    0.129773
Sum of atomic charges:    0.0000000

--------------------------------
MULLIKEN REDUCED ORBITAL CHARGES
--------------------------------
  0 C s       :     3.250266  s :     3.250266
      pz      :     1.094485  p :     2.790055
      px      :     0.601096
      py      :     1.094474
      dz2     :     0.007747  d :     0.054397
      dxz     :     0.013926
      dyz     :     0.004442
      dx2y2   :     0.014356
      dxy     :     0.013926

  1 F s       :     3.932181  s :     3.932181
      pz      :     1.953553  p :     5.355438
      px      :     1.448335
      py      :     1.953550
      dz2     :     0.001807  d :     0.006988
      dxz     :    -0.000015
      dyz     :     0.000209
      dx2y2   :     0.005002
      dxy     :    -0.000016

  2 H s       :     0.852889  s :     0.852889
      pz      :     0.010900  p :     0.017335
      px      :     0.002803
      py      :     0.003632

  3 H s       :     0.852888  s :     0.852888
      pz      :     0.005800  p :     0.017335
      px      :     0.002803
      py      :     0.008732

  4 H s       :     0.852890  s :     0.852890
      pz      :     0.005099  p :     0.017337
      px      :     0.002804
      py      :     0.009434


------------------------
MULLIKEN OVERLAP CHARGES
------------------------
B(  0-C ,  1-F ) :   0.2835 B(  0-C ,  2-H ) :   0.8235 B(  0-C ,  3-H ) :   0.8235 
B(  0-C ,  4-H ) :   0.8235 B(  1-F ,  2-H ) :  -0.0862 B(  1-F ,  3-H ) :  -0.0862 
B(  1-F ,  4-H ) :  -0.0862 B(  2-H ,  3-H ) :  -0.0577 B(  2-H ,  4-H ) :  -0.0577 
B(  3-H ,  4-H ) :  -0.0577 


                     *******************************
                     * LOEWDIN POPULATION ANALYSIS *
                     *******************************

----------------------
LOEWDIN ATOMIC CHARGES
----------------------
   0 C :   -0.039247
   1 F :   -0.397130
   2 H :    0.145462
   3 H :    0.145462
   4 H :    0.145454

-------------------------------
LOEWDIN REDUCED ORBITAL CHARGES
-------------------------------
  0 C s       :     2.941638  s :     2.941638
      pz      :     1.118370  p :     2.964792
      px      :     0.728053
      py      :     1.118369
      dz2     :     0.019791  d :     0.132817
      dxz     :     0.032636
      dyz     :     0.011617
      dx2y2   :     0.036135
      dxy     :     0.032639

  1 F s       :     3.767753  s :     3.767753
      pz      :     1.951648  p :     5.467913
      px      :     1.564622
      py      :     1.951643
      dz2     :     0.014769  d :     0.161465
      dxz     :     0.051649
      dyz     :     0.000905
      dx2y2   :     0.042497
      dxy     :     0.051646

  2 H s       :     0.814292  s :     0.814292
      pz      :     0.026375  p :     0.040247
      px      :     0.006108
      py      :     0.007763

  3 H s       :     0.814291  s :     0.814291
      pz      :     0.013315  p :     0.040247
      px      :     0.006107
      py      :     0.020824

  4 H s       :     0.814296  s :     0.814296
      pz      :     0.011519  p :     0.040251
      px      :     0.006109
      py      :     0.022623


---------------------------------
LOEWDIN BOND ORDERS (THRESH 0.050000)
---------------------------------
B(  0-C ,  1-F ) :   1.3818 B(  0-C ,  2-H ) :   0.9046 B(  0-C ,  3-H ) :   0.9046 
B(  0-C ,  4-H ) :   0.9046 B(  1-F ,  2-H ) :   0.0861 B(  1-F ,  3-H ) :   0.0861 
B(  1-F ,  4-H ) :   0.0861 

------------------------------------------
LOEWDIN REDUCED ORBITAL POPULATIONS PER MO
-------------------------------------------
THRESHOLD FOR PRINTING IS 0.1%%
                      0         1         2         3         4         5   
                 -24.46436 -10.10038  -1.15472  -0.66411  -0.45487  -0.44759
                   2.00000   2.00000   2.00000   2.00000   2.00000   2.00000
                  --------  --------  --------  --------  --------  --------
 0 C  s               0.0      99.3       7.7      37.0       3.1       0.0
 0 C  pz              0.0       0.0       0.0       0.0       0.0       3.9
 0 C  px              0.0       0.0       9.6       3.6      23.1       0.0
 0 C  py              0.0       0.0       0.0       0.0       0.0      36.7
 0 C  dz2             0.0       0.0       0.3       0.0       0.2       0.0
 0 C  dyz             0.0       0.0       0.0       0.0       0.0       0.2
 0 C  dx2y2           0.0       0.0       1.0       0.1       0.6       0.0
 1 F  s             100.0       0.0      77.8       7.0       3.6       0.0
 1 F  pz              0.0       0.0       0.0       0.0       0.0       3.5
 1 F  px              0.0       0.1       1.8      17.1      59.1       0.0
 1 F  py              0.0       0.0       0.0       0.0       0.0      33.0
 1 F  dz2             0.0       0.1       0.0       0.5       0.0       0.0
 1 F  dxz             0.0       0.0       0.0       0.0       0.0       0.2
 1 F  dx2y2           0.0       0.3       0.1       1.6       0.1       0.0
 1 F  dxy             0.0       0.0       0.0       0.0       0.0       1.5
 2 H  s               0.0       0.0       0.5      10.2       3.1       1.8
 2 H  pz              0.0       0.0       0.0       0.8       0.2       0.1
 2 H  px              0.0       0.0       0.0       0.0       0.1       0.0
 2 H  py              0.0       0.0       0.0       0.0       0.0       0.2
 3 H  s               0.0       0.0       0.5      10.2       3.1       5.2
 3 H  pz              0.0       0.0       0.0       0.2       0.0       0.3
 3 H  px              0.0       0.0       0.0       0.0       0.1       0.1
 3 H  py              0.0       0.0       0.0       0.5       0.1       0.0
 4 H  s               0.0       0.0       0.5      10.2       3.1      13.0
 4 H  pz              0.0       0.0       0.0       0.2       0.0       0.1
 4 H  px              0.0       0.0       0.0       0.0       0.1       0.1
 4 H  py              0.0       0.0       0.0       0.6       0.1       0.2

                      6         7         8         9        10        11   
                  -0.44759  -0.30476  -0.30475   0.06723   0.11236   0.18825
                   2.00000   2.00000   2.00000   0.00000   0.00000   0.00000
                  --------  --------  --------  --------  --------  --------
 0 C  s               0.0       0.0       0.0       3.7      49.7       0.0
 0 C  pz             36.7       2.5      12.8       0.0       0.0      24.2
 0 C  px              0.0       0.0       0.0      65.1      10.4       0.0
 0 C  py              3.9      12.8       2.5       0.0       0.0       9.9
 0 C  dz2             0.1       0.1       0.2       1.4       0.0       1.4
 0 C  dxz             0.0       0.3       1.4       0.0       0.0       0.4
 0 C  dyz             0.0       0.2       0.1       0.0       0.0       1.5
 0 C  dx2y2           0.0       0.0       0.1       4.1       0.0       0.5
 0 C  dxy             0.0       1.4       0.3       0.0       0.0       0.2
 1 F  s               0.0       0.0       0.0       7.8       0.2       0.0
 1 F  pz             33.0      10.0      51.0       0.0       0.0       0.8
 1 F  px              0.0       0.0       0.0       8.4       2.9       0.0
 1 F  py              3.5      51.0      10.0       0.0       0.0       0.3
 1 F  dz2             0.0       0.0       0.0       0.1       1.4       0.7
 1 F  dxz             1.5       0.2       0.8       0.0       0.0       2.0
 1 F  dyz             0.0       0.0       0.0       0.0       0.0       0.8
 1 F  dx2y2           0.0       0.0       0.0       0.3       4.3       0.2
 1 F  dxy             0.2       0.8       0.2       0.0       0.0       0.8
 2 H  s              11.6       2.8      10.7       1.1       7.2      18.0
 2 H  pz              0.3       0.0       0.0       0.6       2.9       4.3
 2 H  px              0.1       0.0       0.0       1.4       0.2       0.9
 2 H  py              0.0       0.1       0.0       0.0       0.0       0.9
 3 H  s               8.1       4.0       9.5       1.1       7.2      22.7
 3 H  pz              0.0       0.1       0.0       0.2       0.9       0.7
 3 H  px              0.1       0.0       0.0       1.4       0.2       1.2
 3 H  py              0.3       0.0       0.1       0.4       2.1       5.4
 4 H  s               0.3      13.5       0.0       1.1       7.2       0.3
 4 H  pz              0.1       0.0       0.1       0.1       0.6       2.0
 4 H  px              0.0       0.0       0.0       1.4       0.2       0.0
 4 H  py              0.1       0.0       0.0       0.4       2.3       0.2

                     12        13        14        15        16        17   
                   0.18827   0.19880   0.19882   0.31023   0.31909   0.58415
                   0.00000   0.00000   0.00000   0.00000   0.00000   0.00000
                  --------  --------  --------  --------  --------  --------
 0 C  s               0.0       0.0       0.0      27.3      20.6       4.2
 0 C  pz              9.9      74.7       3.8       0.0       0.0       0.0
 0 C  px              0.0       0.0       0.0      29.5      39.6       0.5
 0 C  py             24.3       3.8      74.7       0.0       0.0       0.0
 0 C  dz2             1.1       1.6       0.3       0.6       0.0       0.0
 0 C  dxz             0.2       0.0       0.0       0.0       0.0       0.0
 0 C  dyz             1.8       0.4       2.2       0.0       0.0       0.0
 0 C  dx2y2           0.4       0.5       0.1       1.7       0.1       0.0
 0 C  dxy             0.4       0.0       0.0       0.0       0.0       0.0
 1 F  s               0.0       0.0       0.0       2.1       6.0       4.4
 1 F  pz              0.3       2.9       0.1       0.0       0.0       0.0
 1 F  px              0.0       0.0       0.0      10.1       8.6      75.6
 1 F  py              0.8       0.1       2.9       0.0       0.0       0.0
 1 F  dz2             0.6       1.3       0.2       1.9       1.3       2.2
 1 F  dxz             0.8       0.0       0.0       0.0       0.0       0.0
 1 F  dyz             0.9       0.3       1.7       0.0       0.0       0.0
 1 F  dx2y2           0.2       0.4       0.1       5.8       3.8       6.7
 1 F  dxy             2.0       0.0       0.0       0.0       0.0       0.0
 2 H  s               9.3       6.6       0.5       4.8       5.5       1.5
 2 H  pz              2.5       0.0       0.0       2.2       1.1       0.3
 2 H  px              0.5       0.0       0.0       0.0       0.1       0.3
 2 H  py              1.2       0.1       1.9       0.0       0.0       0.0
 3 H  s               4.6       3.7       3.5       4.8       5.5       1.5
 3 H  pz              2.8       0.7       0.7       0.7       0.3       0.1
 3 H  px              0.2       0.0       0.0       0.0       0.1       0.3
 3 H  py              0.0       0.3       0.4       1.6       0.7       0.2
 4 H  s              27.0       0.4       6.8       4.8       5.5       1.5
 4 H  pz              1.1       1.5       0.1       0.5       0.2       0.1
 4 H  px              1.4       0.0       0.0       0.0       0.1       0.3
 4 H  py              5.7       0.4       0.0       1.8       0.9       0.2

                     18        19        20        21        22        23   
                   0.61893   0.61894   0.75357   0.75358   0.83046   0.83047
                   0.00000   0.00000   0.00000   0.00000   0.00000   0.00000
                  --------  --------  --------  --------  --------  --------
 0 C  pz              0.4       0.4       1.1       0.8       2.1       0.0
 0 C  py              0.4       0.4       0.8       1.1       0.0       2.1
 0 C  dz2             0.3       0.6       0.0       0.0       0.2       0.0
 0 C  dxz             0.9       0.8       3.5       2.6       5.1       0.1
 0 C  dyz             0.8       0.4       0.0       0.0       0.0       0.3
 0 C  dx2y2           0.1       0.2       0.0       0.0       0.1       0.0
 0 C  dxy             0.8       0.9       2.6       3.5       0.1       5.1
 1 F  pz             44.3      40.2       2.1       1.6       3.1       0.1
 1 F  py             40.2      44.3       1.6       2.1       0.1       3.1
 1 F  dz2             1.7       3.1      19.4       7.2      35.1       3.2
 1 F  dxz             0.4       0.3      23.4      17.4      26.1       0.4
 1 F  dyz             4.1       2.3       9.5      25.9       4.3      46.8
 1 F  dx2y2           0.6       1.0       6.5       2.4      11.7       1.1
 1 F  dxy             0.3       0.4      17.4      23.4       0.4      26.1
 2 H  s               0.0       0.0       3.5       2.1       5.4       0.2
 2 H  pz              0.0       0.0       0.1       0.0       1.3       0.1
 2 H  px              0.8       0.9       1.3       0.8       0.1       0.0
 2 H  py              0.8       0.6       0.1       0.1       0.1       0.7
 3 H  s               0.0       0.0       0.1       5.6       2.3       3.2
 3 H  pz              0.0       1.0       0.1       0.0       0.0       0.9
 3 H  px              1.6       0.1       0.0       2.0       0.0       0.1
 3 H  py              0.1       0.4       0.0       0.1       1.0       0.2
 4 H  s               0.0       0.0       4.8       0.8       0.6       4.9
 4 H  pz              1.1       0.1       0.0       0.2       0.3       0.6
 4 H  px              0.1       1.5       1.8       0.3       0.0       0.1
 4 H  py              0.2       0.1       0.1       0.0       0.5       0.7

                     24        25        26        27        28        29   
                   0.87850   1.03744   1.03748   1.05918   1.24244   1.28726
                   0.00000   0.00000   0.00000   0.00000   0.00000   0.00000
                  --------  --------  --------  --------  --------  --------
 0 C  s              16.7       0.0       0.0      19.2      20.0       0.0
 0 C  pz              0.0      13.0       3.3       0.0       0.0      15.0
 0 C  px              3.8       0.0       0.0       0.6      49.0       0.0
 0 C  py              0.0       3.3      13.0       0.0       0.0      40.7
 0 C  dz2             0.3       6.8       3.6       2.3       2.3       5.2
 0 C  dxz             0.0       0.0       0.0       0.0       0.0       0.1
 0 C  dyz             0.0       4.8       9.0       0.0       0.0       9.3
 0 C  dx2y2           1.0       2.3       1.2       6.9       6.9       1.7
 0 C  dxy             0.0       0.0       0.0       0.0       0.0       0.3
 1 F  s              33.8       0.0       0.0      19.6       4.2       0.0
 1 F  pz              0.0       0.2       0.0       0.0       0.0       0.4
 1 F  px              0.3       0.0       0.0       0.8       5.1       0.0
 1 F  py              0.0       0.0       0.2       0.0       0.0       1.2
 1 F  dz2             9.8       0.1       0.1       0.0       1.1       0.7
 1 F  dxz             0.0       8.9       2.2       0.0       0.0       0.4
 1 F  dyz             0.0       0.1       0.1       0.0       0.0       1.2
 1 F  dx2y2          29.3       0.0       0.0       0.0       3.4       0.2
 1 F  dxy             0.0       2.2       8.9       0.0       0.0       1.0
 2 H  s               1.6      27.8       9.2      16.3       0.2       0.1
 2 H  pz              0.1       0.1       0.1       0.0       0.0       0.5
 2 H  px              0.0       0.6       0.2       0.5       2.4       0.3
 2 H  py              0.0       0.2       0.7       0.0       0.0       8.1
 3 H  s               1.6      27.7       9.3      16.3       0.2       0.1
 3 H  pz              0.0       0.0       0.6       0.0       0.0       4.8
 3 H  px              0.0       0.6       0.2       0.5       2.4       0.1
 3 H  py              0.1       0.3       0.1       0.0       0.0       5.0
 4 H  s               1.6       0.0      37.0      16.3       0.2       0.3
 4 H  pz              0.0       0.7       0.0       0.0       0.0       0.9
 4 H  px              0.0       0.0       0.8       0.5       2.4       0.8
 4 H  py              0.1       0.2       0.1       0.0       0.0       1.7

                     30        31        32        33        34        35   
                   1.28727   1.44688   1.58295   1.75765   1.75770   1.84150
                   0.00000   0.00000   0.00000   0.00000   0.00000   0.00000
                  --------  --------  --------  --------  --------  --------
 0 C  s               0.0      30.4      37.5       0.0       0.0       0.0
 0 C  pz             40.7       0.0       0.0       0.6       3.4       0.0
 0 C  px              0.0      21.5       2.2       0.0       0.0       0.0
 0 C  py             15.0       0.0       0.0       3.4       0.6       0.0
 0 C  dz2             7.0       0.5       0.3       0.1       0.4       0.0
 0 C  dxz             0.3       0.0       0.0       3.5      21.7       0.0
 0 C  dyz             6.9       0.0       0.0       0.5       0.2       0.0
 0 C  dx2y2           2.3       1.4       1.0       0.0       0.1       0.0
 0 C  dxy             0.1       0.0       0.0      21.7       3.5       0.0
 1 F  s               0.0       6.2      20.3       0.0       0.0       0.0
 1 F  pz              1.2       0.0       0.0       0.6       3.6       0.0
 1 F  px              0.0       5.2       5.3       0.0       0.0       0.0
 1 F  py              0.4       0.0       0.0       3.6       0.6       0.0
 1 F  dz2             0.9       5.4       1.2       0.1       0.3       0.0
 1 F  dxz             1.0       0.0       0.0       1.8      10.9       0.0
 1 F  dyz             0.9       0.0       0.0       0.4       0.1       0.0
 1 F  dx2y2           0.3      16.2       3.7       0.0       0.1       0.0
 1 F  dxy             0.4       0.0       0.0      10.9       1.8       0.0
 2 H  s               0.2       1.8       9.3       0.0       0.0       0.0
 2 H  pz              2.0       0.0       0.1       1.3       6.1       0.1
 2 H  px              0.5       2.6       0.0       5.0      22.5       0.0
 2 H  py              3.4       0.0       0.0       0.3       0.0      33.2
 3 H  s               0.2       1.8       9.3       0.0       0.0       0.0
 3 H  pz              4.0       0.0       0.0       0.2       2.2      23.3
 3 H  px              0.7       2.6       0.0       9.0      18.5       0.0
 3 H  py              0.2       0.0       0.1       2.4       2.8      10.0
 4 H  s               0.0       1.8       9.3       0.0       0.0       0.0
 4 H  pz              8.7       0.0       0.0       1.4       0.4      26.5
 4 H  px              0.0       2.6       0.0      27.3       0.2       0.0
 4 H  py              2.7       0.0       0.1       5.9       0.0       6.8

                     36        37        38        39        40        41   
                   2.24055   2.24058   2.26389   2.26393   2.40126   2.51109
                   0.00000   0.00000   0.00000   0.00000   0.00000   0.00000
                  --------  --------  --------  --------  --------  --------
 0 C  s               0.0       0.0       0.0       0.0       5.9       1.4
 0 C  pz             18.6      10.7       3.1       0.8       0.0       0.0
 0 C  px              0.0       0.0       0.0       0.0      24.0       6.3
 0 C  py             10.7      18.6       0.8       3.1       0.0       0.0
 0 C  dz2             3.1       3.6       2.5       1.3       7.2       4.1
 0 C  dxz             5.1       2.9      24.9       6.2       0.0       0.0
 0 C  dyz             4.7       4.2       1.7       3.3       0.0       0.0
 0 C  dx2y2           1.0       1.2       0.8       0.4      21.5      12.3
 0 C  dxy             2.9       5.1       6.2      24.9       0.0       0.0
 1 F  s               0.0       0.0       0.0       0.0       3.4       0.2
 1 F  pz              1.8       1.0       1.3       0.3       0.0       0.0
 1 F  px              0.0       0.0       0.0       0.0      13.4       1.0
 1 F  py              1.0       1.8       0.3       1.3       0.0       0.0
 1 F  dz2             0.0       0.0       0.5       0.3       1.2       0.6
 1 F  dxz             1.2       0.7       3.9       1.0       0.0       0.0
 1 F  dyz             0.0       0.0       0.4       0.7       0.0       0.0
 1 F  dx2y2           0.0       0.0       0.2       0.1       3.6       1.7
 1 F  dxy             0.7       1.2       1.0       3.9       0.0       0.0
 2 H  s               3.2       2.3       4.8       1.5       0.8       0.0
 2 H  pz              9.3       5.7       4.9       1.8       2.8       3.6
 2 H  px              1.8       1.3      16.0       5.2       3.0      20.5
 2 H  py              3.1       5.8       0.3       0.6       0.0       0.0
 3 H  s               4.9       0.6       4.7       1.6       0.8       0.0
 3 H  pz              8.1       2.7       0.7       2.0       0.8       1.1
 3 H  px              2.8       0.4      15.8       5.4       3.0      20.5
 3 H  py              6.3       6.9       4.5       0.4       2.0       2.6
 4 H  s               0.2       5.3       0.0       6.3       0.8       0.0
 4 H  pz              5.3       4.8       0.7       1.4       0.6       0.7
 4 H  px              0.1       3.0       0.0      21.2       3.0      20.5
 4 H  py              3.8      10.0       0.2       5.3       2.2       2.9

                     42        43        44        45        46        47   
                   2.68635   2.68637   3.16370   3.25736   3.25738   3.34942
                   0.00000   0.00000   0.00000   0.00000   0.00000   0.00000
                  --------  --------  --------  --------  --------  --------
 0 C  s               0.0       0.0      11.4       0.0       0.0       0.0
 0 C  pz              3.7       0.2       0.0       0.6       0.0       2.0
 0 C  px              0.0       0.0       4.3       0.0       0.0       0.0
 0 C  py              0.2       3.7       0.0       0.0       0.6       0.3
 0 C  dz2            17.2       2.6       1.7       0.6       0.1       3.0
 0 C  dxz             4.4       0.2       0.0       1.7       0.0       0.8
 0 C  dyz             3.5      22.9       0.0       0.1       0.8       0.2
 0 C  dx2y2           5.7       0.9       5.1       0.2       0.0       1.0
 0 C  dxy             0.2       4.4       0.0       0.0       1.7       0.1
 1 F  s               0.0       0.0       0.5       0.0       0.0       0.0
 1 F  pz              2.2       0.1       0.0      65.4       1.1       9.0
 1 F  px              0.0       0.0       1.1       0.0       0.0       0.0
 1 F  py              0.1       2.2       0.0       1.1      65.4       1.4
 1 F  dz2             0.1       0.0       3.1       2.5       0.2      52.1
 1 F  dxz             2.6       0.1       0.0      21.0       0.4       0.0
 1 F  dyz             0.0       0.1       0.0       0.3       3.3       3.3
 1 F  dx2y2           0.0       0.0       9.2       0.8       0.1      17.4
 1 F  dxy             0.1       2.6       0.0       0.4      21.0       0.0
 2 H  s               0.5       0.0       2.3       0.6       0.0       1.8
 2 H  pz              1.0       0.4      17.5       2.6       0.1       3.4
 2 H  px              1.6       0.1       1.3       0.0       0.0       0.3
 2 H  py              2.6      33.7       0.1       0.0       0.1       0.0
 3 H  s               0.2       0.2       2.3       0.3       0.4       0.1
 3 H  pz              9.8      16.1       5.3       0.1       0.8       0.0
 3 H  px              0.9       0.9       1.3       0.0       0.0       0.0
 3 H  py              9.1       2.7      12.3       1.1       0.8       0.2
 4 H  s               0.0       0.5       2.3       0.1       0.6       1.1
 4 H  pz             25.6       3.6       3.6       0.0       0.7       0.3
 4 H  px              0.1       1.6       1.3       0.0       0.0       0.2
 4 H  py              8.4       0.1      14.0       0.4       1.8       1.8

                     48        49        50        51        52        53   
                   3.34944   3.39047   3.52045   3.52050   3.54633   3.54638
                   0.00000   0.00000   0.00000   0.00000   0.00000   0.00000
                  --------  --------  --------  --------  --------  --------
 0 C  s               0.0       3.6       0.0       0.0       0.0       0.0
 0 C  pz              0.3       0.0       8.1       1.6       0.2       0.8
 0 C  px              0.0       0.2       0.0       0.0       0.0       0.0
 0 C  py              2.0       0.0       1.6       8.1       0.8       0.2
 0 C  dz2             0.1       0.3       6.6       2.9       0.8       1.6
 0 C  dxz             0.1       0.0       7.9       1.6       0.6       2.5
 0 C  dyz             4.0       0.0       3.9       8.8       2.1       1.1
 0 C  dx2y2           0.0       1.0       2.2       1.0       0.3       0.5
 0 C  dxy             0.8       0.0       1.6       7.9       2.6       0.6
 1 F  s               0.0       0.4       0.0       0.0       0.0       0.0
 1 F  pz              1.4       0.0       0.0       0.0       3.2      14.0
 1 F  px              0.0      43.3       0.0       0.0       0.0       0.0
 1 F  py              9.0       0.0       0.0       0.0      14.0       3.2
 1 F  dz2             2.5      11.8       8.4       3.8       1.6       3.3
 1 F  dxz             0.0       0.0       9.6       1.9      11.1      48.0
 1 F  dyz            69.5       0.0       5.0      11.2       4.4       2.2
 1 F  dx2y2           0.8      35.4       2.8       1.3       0.5       1.1
 1 F  dxy             0.0       0.0       1.9       9.5      48.1      11.1
 2 H  s               0.2       0.2       6.2       1.7       0.1       0.5
 2 H  pz              0.4       0.6      13.7       3.9       0.1       0.6
 2 H  px              0.0       0.5       0.8       0.2       1.1       3.7
 2 H  py              0.1       0.0       0.3       0.2       0.2       0.0
 3 H  s               1.9       0.2       5.6       2.3       0.2       0.5
 3 H  pz              1.2       0.2       2.7       2.9       0.0       0.4
 3 H  px              0.3       0.5       0.7       0.3       1.3       3.5
 3 H  py              2.5       0.4      10.0       2.5       0.4       0.2
 4 H  s               0.9       0.2       0.0       7.9       0.6       0.0
 4 H  pz              0.5       0.1       0.2       3.7       0.1       0.2
 4 H  px              0.1       0.5       0.0       1.0       4.8       0.0
 4 H  py              1.2       0.5       0.2      13.9       0.6       0.0

                     54        55        56        57   
                   3.89114   4.43743  21.80688  56.99755
                   0.00000   0.00000   0.00000   0.00000
                  --------  --------  --------  --------
 0 C  s               1.1       0.5      99.7       0.0
 0 C  px              2.0       4.7       0.0       0.0
 0 C  dz2             1.2       2.2       0.0       0.0
 0 C  dx2y2           3.6       6.5       0.0       0.0
 1 F  s              63.3      39.3       0.0     100.0
 1 F  px             16.1      24.5       0.1       0.0
 1 F  dz2             3.1       5.1       0.0       0.0
 1 F  dx2y2           9.2      15.4       0.0       0.0
 2 H  s               0.1       0.2       0.0       0.0
 2 H  pz              0.1       0.2       0.0       0.0
 2 H  px              0.0       0.2       0.0       0.0
 3 H  s               0.1       0.2       0.0       0.0
 3 H  px              0.0       0.2       0.0       0.0
 3 H  py              0.1       0.2       0.0       0.0
 4 H  s               0.1       0.2       0.0       0.0
 4 H  px              0.0       0.2       0.0       0.0
 4 H  py              0.1       0.2       0.0       0.0


                      *****************************
                      * MAYER POPULATION ANALYSIS *
                      *****************************

  NA   - Mulliken gross atomic population
  ZA   - Total nuclear charge
  QA   - Mulliken gross atomic charge
  VA   - Mayer's total valence
  BVA  - Mayer's bonded valence
  FA   - Mayer's free valence

  ATOM       NA         ZA         QA         VA         BVA        FA
  0 C      6.0947     6.0000    -0.0947     3.7548     3.7548     0.0000
  1 F      9.2946     9.0000    -0.2946     0.8180     0.8180     0.0000
  2 H      0.8702     1.0000     0.1298     0.9606     0.9606    -0.0000
  3 H      0.8702     1.0000     0.1298     0.9606     0.9606     0.0000
  4 H      0.8702     1.0000     0.1298     0.9606     0.9606    -0.0000

  Mayer bond orders larger than 0.100000
B(  0-C ,  1-F ) :   0.8350 B(  0-C ,  2-H ) :   0.9733 B(  0-C ,  3-H ) :   0.9733 
B(  0-C ,  4-H ) :   0.9733 

-------
TIMINGS
-------

Total SCF time: 0 days 0 hours 0 min 1 sec 

Total time                  ....       1.899 sec
Sum of individual times     ....       1.871 sec  ( 98.5%)

SCF preparation             ....       0.052 sec  (  2.7%)
Fock matrix formation       ....       1.496 sec  ( 78.8%)
  Startup                   ....       0.004 sec  (  0.3% of F)
  Split-RI-J                ....       0.093 sec  (  6.2% of F)
  XC integration            ....       1.315 sec  ( 87.9% of F)
    XC Preparation          ....       0.000 sec  (  0.0% of XC)
    Basis function eval.    ....       0.223 sec  ( 16.9% of XC)
    Density eval.           ....       0.343 sec  ( 26.1% of XC)
    XC-Functional eval.     ....       0.338 sec  ( 25.7% of XC)
    XC-Potential eval.      ....       0.297 sec  ( 22.6% of XC)
Diagonalization             ....       0.000 sec  (  0.0%)
Density matrix formation    ....       0.239 sec  ( 12.6%)
Total Energy calculation    ....       0.001 sec  (  0.1%)
Population analysis         ....       0.014 sec  (  0.7%)
Orbital Transformation      ....       0.009 sec  (  0.5%)
Orbital Orthonormalization  ....       0.000 sec  (  0.0%)
DIIS solution               ....       0.056 sec  (  3.0%)
  MO trafo                  ....       0.000 sec  (  0.0 % of DIIS)
  Orb grad                  ....       0.000 sec  (  0.0 % of DIIS)
  Energy W gradient         ....       0.000 sec  (  0.0 % of DIIS)
  DIIS error                ....       0.000 sec  (  0.8 % of DIIS)
  DIIS work                 ....       0.050 sec  ( 88.4 % of DIIS)
  Form Q                    ....       0.000 sec  (  0.0 % of DIIS)
  Form QpQm                 ....       0.000 sec  (  0.0 % of DIIS)
  Exp/Cayley                ....       0.000 sec  (  0.0 % of DIIS)
  Orb update                ....       0.000 sec  (  0.0 % of DIIS)
  Wake-sleep                ....       0.001 sec  (  1.9 % of DIIS)
SOSCF solution              ....       0.004 sec  (  0.2%)
  MO trafo                  ....       0.004 sec  ( 99.4 % of SOSCF)
  Orb grad                  ....       0.000 sec  (  0.0 % of SOSCF)
  Rot update                ....       0.000 sec  (  0.0 % of SOSCF)
  Step                      ....       0.000 sec  (  0.0 % of SOSCF)
Finished LeanSCF after   2.1 sec

Maximum memory used throughout the entire LEANSCF-calculation: 6.7 MB


-------------------------------------------------------------------------------
                          DFT DISPERSION CORRECTION                            
                                                                               
                                DFTD4 V3.4.0                                   
-------------------------------------------------------------------------------
The R2SCAN3C composite method is recognized
Using three-body term ABC
Active option DFTDOPT                   ...         5   

-------------------------   ----------------
Dispersion correction           -0.000340203
-------------------------   ----------------

------------------   -----------------
gCP correction             0.004213506
------------------   -----------------

-------------------------   --------------------
FINAL SINGLE POINT ENERGY      -139.722670600350
-------------------------   --------------------


------------------------------------------------------------------------------
                              ORCA PROPERTY CALCULATIONS
------------------------------------------------------------------------------

GBWName                                 ... sp.gbw
Number of atoms                         ...      5
Number of basis functions               ...     58
Max core memory                         ...   1024 MB

Electric properties:
Dipole moment                           ... YES
Quadrupole moment                       ...  NO
Static polarizability (Dipole/Dipole)   ...  NO
Static polarizability (Dipole/Quad.)    ...  NO
Static polarizability (Quad./Quad.)     ...  NO
Static polarizability (Velocity)        ...  NO

Atomic electric properties:
Dipole moment                           ...  NO
Quadrupole moment                       ...  NO
Static polarizability                   ...  NO

Choice of electric origin               ... Center of mass
Position of electric origin             ...    -0.000032    -0.000000    -0.000000

General magnetic properties:
Magnetizability                         ...  NO

EPR properties:
g-Tensor (aka g-matrix)                 ...  NO
Zero-Field splitting spin-orbit         ...  NO
Zero-field splitting spin-spin          ...  NO
Hyperfine couplings                     ...  NO (   0 nuclei)
Quadrupole couplings                    ...  NO (   0 nuclei)
Contact density                         ...  NO (   0 nuclei)

NMR properties:
Chemical shifts                         ...  NO (   0 nuclei)
Spin-rotation constants                 ...  NO (   0 nuclei)
Spin-spin couplings                     ...  NO (   0 nuclei,    0 pairs)

Choice of magnetic origin               ... GIAO
Position of magnetic origin             ...     0.000000     0.000000     0.000000

Properties with geometric perturbations:
SCF Hessian                             ...  NO
IR spectrum                             ...  NO
VCD spectrum                            ...  NO
X-ray spectroscopy properties:
SCF XES/XAS/RIXS spectra                ...  NO


-------------
DIPOLE MOMENT
-------------

Method             : SCF
Type of density    : Electron Density
Multiplicity       :   1
Irrep              :   0
Energy             :  -139.7265439029808363 Eh
Relativity type    : 
Basis              : AO
                                X                 Y                 Z
Electronic contribution:      2.909317128       0.000102862       0.000051492
Nuclear contribution   :     -3.596825620      -0.000104693      -0.000048263
                        -----------------------------------------
Total Dipole Moment    :     -0.687508492      -0.000001831       0.000003229
                        -----------------------------------------
Magnitude (a.u.)       :      0.687508492
Magnitude (Debye)      :      1.747507710



--------------------
Rotational spectrum 
--------------------
 
Rotational constants in cm-1:             5.185858             0.881852             0.881851 
Rotational constants in MHz :        155468.115704         26437.242959         26437.220189 

Dipole components along the rotational axes: 
x,y,z [a.u.] :     0.687508     0.000002    -0.000003 
x,y,z [Debye]:     1.747508     0.000005    -0.000008 

 

Dipole moment calculation done in   0.0 sec 

Maximum memory used throughout the entire PROP-calculation: 4.2 MB

--------------------------------
SUGGESTED CITATIONS FOR THIS RUN
--------------------------------

Below you find a list of papers that are relevant to this ORCA run
We neither can nor want to force you to cite these papers, but we appreciate if you do
You receive ORCA, which is the product of decades of hard work by many enthusiastic individuals, for free
The only thing we kindly ask in return is that you cite our papers,
We deeply appreciate it, if you show your appreciation for ORCA by not just citing the generic ORCA reference.

Please note that relegating all ORCA citations to the supporting information does *not* help us.
SI sections are not indexed - citations you put there will not count into any citation statistics
But we need these citations in order to attract the funding resources that allow us to do what we are doing

Therefore, if you are a happy ORCA user, please consider citing a few of the papers listed below in the main body of your paper

In addition to the list printed below, the program has created the file sp.bibtex that contains the list in bibtex format
You can import this file easily into all common literature databanks and citation aid programs


List of essential papers. We consider these as the minimum necessary citations

  1. Neese,F.
     Software update: the ORCA program system, version 5.0
     WIRES Comput. Molec. Sci., 2022 12(1)e1606
     doi.org/10.1002/wcms.1606
  2. Grimme,S.; Hansen,A.; Ehlert,S.; Mewes,J.
     r2SCAN-3c: A 'Swiss army knife' composite electronic-structure method
     J. Chem. Phys., 2021 154 064103
     doi.org/10.1063/5.0040021

List of papers to cite with high priority. The work reported in these papers was absolutely
necessary for this run to complete.
Our perspective: the developers of density functionals and basis sets usually get cited in chemistry papers
Good! But without the algorithms to do something with them, the functionals or basis sets would not do anything.
Hence, in our opinion, the algorithm design and method developments papers are equally worthy of getting cited

  1. Neese,F.
     An improvement of the resolution of the identity approximation for the formation of the Coulomb matrix
     J. Comp. Chem., 2003 24(14)1740-1747
     doi.org/10.1002/jcc.10318
  2. Neese,F.
     The SHARK Integral Generation and Digestion System
     J. Comp. Chem., 2022  1-16
     doi.org/10.1002/jcc.26942
  3. Lehtola,S.; Steigemann,C.; Oliveira,M.; Marques,M.
     Recent developments in Libxc - A comprehensive library of functionals for density functional theory
     Software X, 2018 7 
     doi.org/10.1016/j.softx.2017.11.002
  4. Caldeweyher,E.; Bannwarth,C.; Grimme,S.
     Extension of the D3 dispersion coefficient model
     J. Chem. Phys., 2017 147 034112
     doi.org/10.1063/1.4993215
  5. Caldeweyher,E.; Ehlert,S.; Hansen,A.; Neugebauer,H.; Spicher,S.; Bannwarth,C.; Grimme,S.
     A generally applicable atomic-charge dependent London dispersion correction
     J. Chem. Phys., 2019 150 154122
     doi.org/10.1063/1.5090222
  6. Caldeweyher,E.; Mewes,J.; Ehlert,S.; Grimme,S.
     Extension and evaluation of the D4 London-dispersion model for periodic systems
     Phys. Chem. Chem. Phys., 2020 22(16)8499-8512
     doi.org/10.1039/D0CP00502A
  7. Wittmann,L.; Gordiy,I.; Friede,M.; Helmich-Paris,B.; Grimme,S.; Hansen,A.; Bursch,M.
     Extension of the D3 and D4 London Dispersion Corrections to the full Actinides Series
     Phys. Chem. Chem. Phys., 2024 26(32)21379-21394
     doi.org/https://doi.org/10.1039/D4CP01514B 

List of suggested additional citations. These are papers that are important in the 'surrounding' of 
of this run, or papers that preceded the highly important papers. If you like your results we are grateful for a citation.

  1. Neese,F.
     The ORCA program system
     WIRES Comput. Molec. Sci., 2012 2(1)73-78
     doi.org/10.1002/wcms.81
  2. Neese,F.
     Software update: the ORCA program system, version 4.0
     WIRES Comput. Molec. Sci., 2018 8(1)1-6
     doi.org/10.1002/wcms.1327
  3. Neese,F.; Wennmohs,F.; Becker,U.; Riplinger,C.
     The ORCA quantum chemistry program package
     J. Chem. Phys., 2020 152 Art. No. L224108
     doi.org/10.1063/5.0004608

List of optional additional citations

  1. Neese,F.
     Approximate second-order SCF convergence for spin unrestricted wavefunctions
     Chem. Phys. Lett., 2000 325(1-3)93-98
     doi.org/10.1016/s0009-2614(00)00662-x

Timings for individual modules:

Sum of individual times          ...        2.674 sec (=   0.045 min)
Startup calculation              ...        0.179 sec (=   0.003 min)   6.7 %
SCF iterations                   ...        2.442 sec (=   0.041 min)  91.3 %
Property calculations            ...        0.054 sec (=   0.001 min)   2.0 %
                             ****ORCA TERMINATED NORMALLY****
TOTAL RUN TIME: 0 days 0 hours 0 minutes 2 seconds 921 msec
