15
 energy: -22.900322054384 gnorm: 0.026670070816 xtb: 6.7.1 (edcfbbe)
C           -2.35233158407195       -0.56860703953958       -0.00118992726182
O           -0.91239486254986       -0.63934092644080       -0.00137755763541
C           -0.28480379434937        0.56688127252391        0.00115199005557
O           -0.87613486347245        1.62320612551885        0.00304387114105
C            1.18721837030521        0.43015741800862        0.00078001701911
C            1.85347515074180       -0.71367370813201        0.74373310868858
C            1.85361169358854       -0.71139570554404       -0.74552436919022
H           -2.69471032650065       -1.60343029446968       -0.00587845258122
H           -2.70814274554791       -0.03913182210146       -0.88880041806286
H           -2.70818112690626       -0.04730388618979        0.89125589533643
H            1.68987551828174        1.38971999387192        0.00230082604760
H            2.77473908243641       -0.47493852629138        1.26293054563496
H            1.19712000459801       -1.41266909417490        1.24766583935473
H            2.77498773894347       -0.47110293355185       -1.26380393029347
H            1.19734357533400       -1.40884935926951       -1.25169093951002
15
 energy: -22.900994474686 gnorm: 0.011393087083 xtb: 6.7.1 (edcfbbe)
C           -2.34444882836093       -0.57025731055056       -0.00115878263375
O           -0.91674740179954       -0.63131456931829       -0.00140235514135
C           -0.28706316970486        0.56443711208699        0.00091402614078
O           -0.87527218011064        1.61585100146397        0.00303874455491
C            1.18489729926373        0.43076263326371        0.00080749178946
C            1.84780417483665       -0.70959011301255        0.74235834014013
C            1.84794285250797       -0.70728445535319       -0.74411606091660
H           -2.68706249642922       -1.60235096065169       -0.00578685532150
H           -2.69605103864724       -0.03976755625591       -0.88728486800840
H           -2.69608104261604       -0.04781350270951        0.88973882405065
H            1.68474772980050        1.39069384956486        0.00239317031305
H            2.76624140004621       -0.48287847579385        1.26282466457078
H            1.19802130292908       -1.40793966067396        1.24612882560453
H            2.76648272090705       -0.47895319854024       -1.26368738186446
H            1.19826050820802       -1.40407327930147       -1.25017128453522
15
 energy: -22.901116887521 gnorm: 0.003986378473 xtb: 6.7.1 (edcfbbe)
C           -2.33610295389188       -0.57116655136669       -0.00118745568567
O           -0.91657898444290       -0.62618352782777       -0.00131960141199
C           -0.28795152999906        0.56352226529566        0.00111495313927
O           -0.87573457245955        1.61466926896116        0.00302685236618
C            1.18530620595491        0.43108693846095        0.00081645061242
C            1.84411897666961       -0.70745435031529        0.74198496820998
C            1.84422218765684       -0.70516043513122       -0.74375715453128
H           -2.67922086447436       -1.60194787323631       -0.00579626818462
H           -2.69193208931620       -0.04132608100256       -0.88599381518705
H           -2.69203709317257       -0.04932398402746        0.88832366830830
H            1.68202231654839        1.39228488698260        0.00234246433194
H            2.76150666508294       -0.48881152928874        1.26524480014218
H            1.19608910808616       -1.40479880094428        1.24716992336741
H            2.76169801269551       -0.48492181681584       -1.26619726583416
H            1.19626644589290       -1.40094689552589       -1.25117602089991
15
 energy: -22.901129764175 gnorm: 0.001275954391 xtb: 6.7.1 (edcfbbe)
C           -2.33335476431956       -0.57192438596409       -0.00116383419453
O           -0.91543898453761       -0.62441837210528       -0.00133901414466
C           -0.28771993520020        0.56430886373734        0.00094269179494
O           -0.87516656605187        1.61654995500526        0.00303087367228
C            1.18649219371040        0.43198004784138        0.00083607548039
C            1.84299837643640       -0.70700081064689        0.74202718932504
C            1.84311080257297       -0.70467679811755       -0.74378647215609
H           -2.67619914325954       -1.60312745822509       -0.00571365005206
H           -2.69273739008705       -0.04269545374374       -0.88569820865726
H           -2.69281891078921       -0.05057557460011        0.88801030533944
H            1.68209854668362        1.39384040470432        0.00242009715101
H            2.76099200800602       -0.49143238887360        1.26628101543336
H            1.19401574751531       -1.40387556468252        1.24775151640329
H            2.76118693515134       -0.48746068484222       -1.26721110498329
H            1.19421291499971       -1.39997026526890       -1.25179098166884
15
 energy: -22.901132064433 gnorm: 0.000865888085 xtb: 6.7.1 (edcfbbe)
C           -2.33170112332577       -0.57288675865346       -0.00120151872457
O           -0.91413665992253       -0.62289088484780       -0.00123896416410
C           -0.28719538868053        0.56576471692313        0.00121550171940
O           -0.87367049125993        1.61919184082012        0.00301516607441
C            1.18795522512958        0.43319008918975        0.00084172588231
C            1.84206748077109       -0.70691926579752        0.74208418581345
C            1.84215007824822       -0.70460211387507       -0.74387762733329
H           -2.67330195684062       -1.60503477236891       -0.00571908713337
H           -2.69395680741273       -0.04448675329546       -0.88580484527429
H           -2.69412106811788       -0.05229576055428        0.88795907812347
H            1.68293383164723        1.39543772683508        0.00235870000545
H            2.76095835764574       -0.49381993925506        1.26669834363633
H            1.19121819576681       -1.40256364934821        1.24833667527077
H            2.76111636145490       -0.48989651693979       -1.26771310705955
H            1.19135579572715       -1.39866644461420       -1.25235772809343
15
 energy: -22.901132585812 gnorm: 0.000173335007 xtb: 6.7.1 (edcfbbe)
C           -2.33198835161185       -0.57291196112153       -0.00115329679591
O           -0.91412753589638       -0.62289006547414       -0.00131474002054
C           -0.28718234479140        0.56596726292747        0.00088028504499
O           -0.87351480451883        1.61919072999168        0.00301813753816
C            1.18786739777181        0.43325711552044        0.00086254260970
C            1.84195412603853       -0.70704556404202        0.74207622649519
C            1.84206632710998       -0.70468285543519       -0.74384236397746
H           -2.67311459684132       -1.60511612581318       -0.00560248437592
H           -2.69365552203948       -0.04468694790073       -0.88585995687790
H           -2.69375369898943       -0.05237317747965        0.88806332995643
H            1.68308281508006        1.39531946046217        0.00248500943752
H            2.76084712347635       -0.49387467114272        1.26637193036554
H            1.19097951514053       -1.40238896061161        1.24820981154561
H            2.76103527381072       -0.48982618619469       -1.26730744483262
H            1.19117610709144       -1.39841653946798       -1.25229048736980
15
 energy: -22.901132633743 gnorm: 0.000114430310 xtb: 6.7.1 (edcfbbe)
C           -2.33181724674714       -0.57304379432823       -0.00120806563419
O           -0.91388757288451       -0.62266067963552       -0.00119741991492
C           -0.28711421043426        0.56626057273792        0.00128946014587
O           -0.87341757797269        1.61941571803993        0.00299331654769
C            1.18794711395086        0.43344615710831        0.00085386001067
C            1.84170092123729       -0.70705185779995        0.74205176005550
C            1.84177765483914       -0.70471609296292       -0.74386296053983
H           -2.67251622664251       -1.60534226685055       -0.00565989906523
H           -2.69339680480283       -0.04497102505876       -0.88594490275525
H           -2.69359976632046       -0.05265797495563        0.88799574173058
H            1.68330401750980        1.39540376354524        0.00236585617040
H            2.76069183191160       -0.49415769369191        1.26616038385608
H            1.19051594617294       -1.40205816676040        1.24824048625680
H            2.76084347266507       -0.49021542846923       -1.26719712759714
H            1.19064027834844       -1.39812971670000       -1.25228399052402
