
                                 *****************
                                 * O   R   C   A *
                                 *****************

                                            #,                                       
                                            ###                                      
                                            ####                                     
                                            #####                                    
                                            ######                                   
                                           ########,                                 
                                     ,,################,,,,,                         
                               ,,#################################,,                 
                          ,,##########################################,,             
                       ,#########################################, ''#####,          
                    ,#############################################,,   '####,        
                  ,##################################################,,,,####,       
                ,###########''''           ''''###############################       
              ,#####''   ,,,,##########,,,,          '''####'''          '####       
            ,##' ,,,,###########################,,,                        '##       
           ' ,,###''''                  '''############,,,                           
         ,,##''                                '''############,,,,        ,,,,,,###''
      ,#''                                            '''#######################'''  
     '                                                          ''''####''''         
             ,#######,   #######,   ,#######,      ##                                
            ,#'     '#,  ##    ##  ,#'     '#,    #''#        ,####,   ,####,        
            ##       ##  ##   ,#'  ##            #'  '#       #'       #'  '#        
            ##       ##  #######   ##           ,######,      #####,   #    #        
            '#,     ,#'  ##    ##  '#,     ,#' ,#      #,     #,   #   #,  ,#        
             '#######'   ##     ##  '#######'  #'      '#     '####' # '####'        



                #########################################################
                #                        -***-                          #
                #          Department of theory and spectroscopy        #
                #                                                       #
                #                      Frank Neese                      #
                #                                                       #
                #     Directorship, Architecture, Infrastructure        #
                #                    SHARK, DRIVERS                     #
                #        Core code/Algorithms in most modules           #
                #                                                       #
                #        Max Planck Institute fuer Kohlenforschung      #
                #                Kaiser Wilhelm Platz 1                 #
                #                 D-45470 Muelheim/Ruhr                 #
                #                      Germany                          #
                #                                                       #
                #                  All rights reserved                  #
                #                        -***-                          #
                #########################################################


                         Program Version 6.0.1  -  RELEASE   -


 With contributions from (in alphabetic order):
[Max-Planck-Institut fuer Kohlenforschung]                               
  Daniel Aravena         : Magnetic Suceptibility                        
  Michael Atanasov       : Ab Initio Ligand Field Theory (pilot matlab implementation)
  Alexander A. Auer      : GIAO ZORA, VPT2 properties, NMR spectrum      
  Ute Becker             : All parallelization in ORCA, NUMFREQ, NUMCALC 
  Giovanni Bistoni       : ED, misc. LED, open-shell LED, HFLD           
  Martin Brehm           : Molecular dynamics                            
  Dmytro Bykov           : pre 5.0 version of the SCF Hessian            
  Marcos Casanova-Páez   : Triplet and SCS-CIS(D). UHF-(DLPNO)-IP/EA/STEOM-CCSD. UHF-CVS-IP/STEOM-CCSD   
  Vijay G. Chilkuri      : MRCI spin determinant printing, contributions to CSF-ICE 
  Pauline Colinet        : FMM embedding                                 
  Dipayan Datta          : RHF DLPNO-CCSD density                        
  Achintya Kumar Dutta   : EOM-CC, STEOM-CC                              
  Nicolas Foglia         : Exact transition moments, OPA infrastructure, MCD improvements    
  Dmitry Ganyushin       : Spin-Orbit,Spin-Spin,Magnetic field MRCI      
  Miquel Garcia-Rates    : C-PCM and meta-GGA Hessian, CCSD/C-PCM, Gaussian charge scheme 
  Tiago L. C. Gouveia    : GS-ROHF, GS-ROCIS                             
  Yang Guo               : DLPNO-NEVPT2, F12-NEVPT2, CIM, IAO-localization        
  Andreas Hansen         : Spin unrestricted coupled pair/coupled cluster methods 
  Ingolf Harden          : AUTO-CI MPn and infrastructure                
  Benjamin Helmich-Paris : MC-RPA, TRAH-(SCF,CASSCF), AVAS, COSX integrals, SCF dyn. polar. 
  Lee Huntington         : MR-EOM, pCC                                   
  Robert Izsak           : Overlap fitted RIJCOSX, COSX-SCS-MP3, EOM     
  Riya Kayal             : Wick's Theorem for AUTO-CI, AUTO-CI UHF-CCSDT 
  Emily Kempfer          : AUTO-CI, RHF CISDT and CCSDT                  
  Christian Kollmar      : KDIIS, OOCD, Brueckner-CCSD(T), CCSD density, CASPT2, CASPT2-K, improved NEVPT2 
  Axel Koslowski         : Symmetry handling                             
  Simone Kossmann        : meta-GGA functionals, TD-DFT gradient, OOMP2, (MP2 Hessian; deprecated post 5.0) 
  Lucas Lang             : DCDCAS                                        
  Marvin Lechner         : AUTO-CI (C++ implementation), FIC-MRCC        
  Spencer Leger          : CASSCF response                               
  Dagmar Lenk            : GEPOL surface, SMD, ORCA-2-JSON               
  Dimitrios Liakos       : Extrapolation schemes; Compound Job, initial MDCI parallelization 
  Dimitrios Manganas     : Further ROCIS development; embedding schemes. LFT, Crystal Embedding 
  Dimitrios Pantazis     : SARC Basis sets                               
  Anastasios Papadopoulos: AUTO-CI, single reference methods and gradients 
  Taras Petrenko         : pre 6.0 DFT Hessian and TD-DFT gradient, (ASA, deprecated), ECA, 1-Electron XAS/XES, NRVS 
  Peter Pinski           : DLPNO-MP2, DLPNO-MP2 Gradient                 
  Christoph Reimann      : Effective Core Potentials                     
  Marius Retegan         : Local ZFS, SOC                                
  Christoph Riplinger    : Optimizer, TS searches, QM/MM, DLPNO-CCSD(T), (RO)-DLPNO pert. Triples 
  Michael Roemelt        : Original ROCIS implementation                 
  Masaaki Saitow         : Open-shell DLPNO-CCSD energy and density      
  Barbara Sandhoefer     : DKH picture change effects                    
  Kantharuban Sivalingam : CASSCF convergence/infrastructure, NEVPT2 and variants, FIC-MRCI 
  Bernardo de Souza      : ESD, SOC TD-DFT                               
  Georgi L. Stoychev     : AutoAux, RI-MP2 NMR, DLPNO-MP2 response, X2C  
  Van Anh Tran           : RI-MP2 g-tensors                              
  Willem Van den Heuvel  : Paramagnetic NMR                              
  Zikuan Wang            : NOTCH, Electric field optimization            
  Frank Wennmohs         : Technical directorship and infrastructure     
  Hang Xu                : AUTO-CI-Response properties                   
                                                                         
[FACCTs GmbH]                                                            
  Markus Bursch, Miquel Garcia-Rates, Christoph Riplinger, Bernardo de Souza, Georgi L. Stoychev 
                                                                 
  APM, Basis sets (HGBS, AHGBS, def-TZVP (Ac-Lr), def2-XVPD (La-Lu)), CI-OPT, improved COSX, DLPNO-Multilevel,           
  DOCKER, DRACO, updates on ESD, GOAT, IRC, LR-CPCM, MBIS, meta-GGA TD-DFT gradient, ML-optimized integration grids, 
  MM, NACMEs, nearIR, NEB, NEB-TS, NL-DFT gradient (VV10), 2- and 3-layer-ONIOM, interface openCOSMO-RS, QMMM,   
  Crystal-QMMM, SF, symmetry and pop. for TD-DFT, r2SCAN hybrids, SOLVATOR                                   
                                                                         
[Other institutions]                                                     
  V. Asgeirsson          : NEB                                           
  Christoph Bannwarth    : sTDA-DFT, sTD-DFT, PBEh-3c, B97-3c, D3        
  Sebastian Ehlert       : rSCAN, r2SCAN, r2SCAN-3c, D4, dhf basis sets  
  Marvin Friede          : D4 for Fr, Ra, Ac-Lr                          
  Lars Goerigk           : TD-DFT with DH, B97 family of functionals     
  Stefan Grimme          : VdW corrections, initial TS optimization, DFT functionals, gCP, sTDA/sTD-DF 
  Waldemar Hujo          : DFT-NL                                        
  H. Jonsson             : NEB                                           
  Holger Kruse           : gCP                                           
  Marcel Mueller         : wB97X-3c, vDZP basis set                      
  Hagen Neugebauer       : wr2SCAN                                       
  Tobias Risthaus        : range-separated hybrid DFT                    
  Lukas Wittmann         : regularized MP2, r2SCAN double-hybrids, wr2SCAN        
                                                                         
We gratefully acknowledge several colleagues who have allowed us to      
interface, adapt or use parts of their codes:                            
  Ed Valeev, F. Pavosevic, A. Kumar             : LibInt (2-el integral package), F12 methods 
  Garnet Chan, S. Sharma, J. Yang, R. Olivares  : DMRG                   
  Ulf Ekstrom                                   : XCFun DFT Library      
  Mihaly Kallay                                 : mrcc  (arbitrary order and MRCC methods)
  Frank Weinhold                                : gennbo (NPA and NBO analysis)           
  Simon Mueller                                 : openCOSMO-RS                            
  Christopher J. Cramer and Donald G. Truhlar   : smd solvation model                     
  S Lehtola, MJT Oliveira, MAL Marques          : LibXC Library                           
  Liviu Ungur et al                             : ANISO software                          


 Your calculation uses the libint2 library for the computation of 2-el integrals
 For citations please refer to: http://libint.valeyev.net

 Your ORCA version has been built with support for libXC version: 6.2.2
 For citations please refer to: https://libxc.gitlab.io

 This ORCA versions uses:
   CBLAS   interface :  Fast vector & matrix operations
   LAPACKE interface :  Fast linear algebra routines
   SCALAPACK package :  Parallel linear algebra routines
   Shared memory     :  Shared parallel matrices
   BLAS/LAPACK       :  OpenBLAS 0.3.27  USE64BITINT DYNAMIC_ARCH NO_AFFINITY Zen SINGLE_THREADED
        Core in use  :  Zen
   Copyright (c) 2011-2014, The OpenBLAS Project


Your calculation utilizes the geometrical counterpoise correction gCP
Please cite in your paper:
H.Kruse, S. Grimme J.Chem.Phys., 136, (2012), 154101 
   

Your calculation utilizes the atom-pairwise dispersion correction
based on EEQ partial charges (D4)


================================================================================

----- Orbital basis set information -----
Your calculation utilizes the basis: def2-SV(P)
   F. Weigend and R. Ahlrichs, Phys. Chem. Chem. Phys. 7, 3297 (2005).

----- AuxJ basis set information -----
Your calculation utilizes the auxiliary basis: def2/J
   F. Weigend, Phys. Chem. Chem. Phys. 8, 1057 (2006).

================================================================================
                                        WARNINGS
                       Please study these warnings very carefully!
================================================================================


================================================================================
                                       INPUT FILE
================================================================================
NAME = sp.inp
|  1> ! pbe def2-sv(p) def2/J RI DEFGRID1 loosescf d4 GCP(DFT/SV(P)) printgap
|  2> %output
|  3>     printlevel normal
|  4> end
|  5> * xyz 0 1
|  6> C -1.8179253742 -1.0749371137 -0.6310848439
|  7> C -1.0178250417 -0.4782899797 0.5446208278
|  8> H -1.6437838781 -0.5300081249 1.4465870057
|  9> C -0.6988351271 1.006178708 0.3160723715
| 10> H -1.5396977778 1.4382181269 -0.2465070512
| 11> C 0.6003778495 1.239340818 -0.494494833
| 12> H 0.8799342635 2.2969057346 -0.3759255527
| 13> C 1.7275909203 0.3738872608 0.0936534299
| 14> H 2.6140806025 0.4418894776 -0.5454010194
| 15> C 1.2732519758 -1.0988851012 0.135105833
| 16> H 2.0281250458 -1.6837803452 0.6830894955
| 17> O 0.1067340021 -1.2773524611 0.8845329073
| 18> O 1.1442713021 -1.5629999178 -1.1851015354
| 19> O 2.1091790745 0.8030042886 1.3680230783
| 20> O 0.4240574483 1.0333295356 -1.8669518717
| 21> O -0.5977982063 1.6028800058 1.5972144157
| 22> O -3.1045466238 -0.5249373914 -0.7182975456
| 23> H -1.8594088153 -2.1659922172 -0.4964115729
| 24> H -1.3406256963 -0.8507635431 -1.5862784452
| 25> H 0.8944546844 -2.4944896318 -1.1697189706
| 26> H 1.31642583 0.8148588783 1.928863295
| 27> H 0.6002449355 0.1013315775 -2.061266321
| 28> H -0.4594607812 2.5514632216 1.4938168636
| 29> H -3.584403135 -0.7033576784 0.0989711576
| 30> *
| 31> 
| 32>                          ****END OF INPUT****
================================================================================

                       ****************************
                       * Single Point Calculation *
                       ****************************

---------------------------------
CARTESIAN COORDINATES (ANGSTROEM)
---------------------------------
  C     -1.817925   -1.074937   -0.631085
  C     -1.017825   -0.478290    0.544621
  H     -1.643784   -0.530008    1.446587
  C     -0.698835    1.006179    0.316072
  H     -1.539698    1.438218   -0.246507
  C      0.600378    1.239341   -0.494495
  H      0.879934    2.296906   -0.375926
  C      1.727591    0.373887    0.093653
  H      2.614081    0.441889   -0.545401
  C      1.273252   -1.098885    0.135106
  H      2.028125   -1.683780    0.683089
  O      0.106734   -1.277352    0.884533
  O      1.144271   -1.563000   -1.185102
  O      2.109179    0.803004    1.368023
  O      0.424057    1.033330   -1.866952
  O     -0.597798    1.602880    1.597214
  O     -3.104547   -0.524937   -0.718298
  H     -1.859409   -2.165992   -0.496412
  H     -1.340626   -0.850764   -1.586278
  H      0.894455   -2.494490   -1.169719
  H      1.316426    0.814859    1.928863
  H      0.600245    0.101332   -2.061266
  H     -0.459461    2.551463    1.493817
  H     -3.584403   -0.703358    0.098971

----------------------------
CARTESIAN COORDINATES (A.U.)
----------------------------
  NO LB      ZA    FRAG     MASS         X           Y           Z
   0 C     6.0000    0    12.011   -3.435381   -2.031337   -1.192578
   1 C     6.0000    0    12.011   -1.923411   -0.903837    1.029184
   2 H     1.0000    0     1.008   -3.106301   -1.001570    2.733653
   3 C     6.0000    0    12.011   -1.320607    1.901402    0.597290
   4 H     1.0000    0     1.008   -2.909607    2.717838   -0.465831
   5 C     6.0000    0    12.011    1.134550    2.342015   -0.934460
   6 H     1.0000    0     1.008    1.662835    4.340523   -0.710396
   7 C     6.0000    0    12.011    3.264674    0.706545    0.176979
   8 H     1.0000    0     1.008    4.939896    0.835050   -1.030659
   9 C     6.0000    0    12.011    2.406098   -2.076592    0.255313
  10 H     1.0000    0     1.008    3.832601   -3.181884    1.290852
  11 O     8.0000    0    15.999    0.201698   -2.413846    1.671525
  12 O     8.0000    0    15.999    2.162359   -2.953642   -2.239517
  13 O     8.0000    0    15.999    3.985771    1.517458    2.585189
  14 O     8.0000    0    15.999    0.801352    1.952710   -3.528028
  15 O     8.0000    0    15.999   -1.129675    3.029004    3.018298
  16 O     8.0000    0    15.999   -5.866743   -0.991988   -1.357386
  17 H     1.0000    0     1.008   -3.513773   -4.093132   -0.938082
  18 H     1.0000    0     1.008   -2.533415   -1.607710   -2.997632
  19 H     1.0000    0     1.008    1.690274   -4.713902   -2.210449
  20 H     1.0000    0     1.008    2.487684    1.539860    3.645023
  21 H     1.0000    0     1.008    1.134299    0.191489   -3.895229
  22 H     1.0000    0     1.008   -0.868255    4.821567    2.822905
  23 H     1.0000    0     1.008   -6.773540   -1.329153    0.187028

--------------------------------
INTERNAL COORDINATES (ANGSTROEM)
--------------------------------
 C      0   0   0     0.000000000000     0.00000000     0.00000000
 C      1   0   0     1.542216642059     0.00000000     0.00000000
 H      2   1   0     1.099109738600   108.17620832     0.00000000
 C      2   1   3     1.535459620848   111.61298818   243.01134060
 H      4   2   1     1.100092570501   107.27828892    33.07716067
 C      4   2   1     1.548979703262   113.43246608   273.49660555
 H      6   4   2     1.100297239687   107.54141071   194.72456896
 C      6   4   2     1.538030411209   109.26318273   312.02646131
 H      8   6   4     1.094933261577   109.58689609   173.26436747
 C      8   6   4     1.541817307103   109.37912911    54.70892970
 H     10   8   6     1.101009487985   108.58979502   187.74925678
 O     10   8   6     1.397946966522   112.47336247   301.97132246
 O     10   8   6     1.405341977155   108.49668414    67.25126147
 O      8   6   4     1.397772851266   112.08433028   291.87646656
 O      6   4   2     1.398988154143   112.67411804    78.01371159
 O      4   2   1     1.416893021924   106.70095503   151.60981503
 O      1   2   3     1.401962905997   111.82457759    49.81510119
 H      1   2   3     1.100117723101   108.05488037   287.07802090
 H      1   2   3     1.091083676096   111.15929387   167.37788119
 H     13  10   8     0.964529964836   109.13084425   177.75078016
 H     14   8   6     0.971153945896   107.90343592    55.46555878
 H     15   6   4     0.968204694140   108.40339170   270.58539015
 H     16   4   2     0.964177584401   109.12249323   183.98061674
 H     17   1   2     0.964377624888   109.35046096   300.11916887

---------------------------
INTERNAL COORDINATES (A.U.)
---------------------------
 C      0   0   0     0.000000000000     0.00000000     0.00000000
 C      1   0   0     2.914367092668     0.00000000     0.00000000
 H      2   1   0     2.077016397080   108.17620832     0.00000000
 C      2   1   3     2.901598173098   111.61298818   243.01134060
 H      4   2   1     2.078873680208   107.27828892    33.07716067
 C      4   2   1     2.927147426167   113.43246608   273.49660555
 H      6   4   2     2.079260448918   107.54141071   194.72456896
 C      6   4   2     2.906456262828   109.26318273   312.02646131
 H      8   6   4     2.069123999301   109.58689609   173.26436747
 C      8   6   4     2.913612458965   109.37912911    54.70892970
 H     10   8   6     2.080606403140   108.58979502   187.74925678
 O     10   8   6     2.641736916473   112.47336247   301.97132246
 O     10   8   6     2.655711461326   108.49668414    67.25126147
 O      8   6   4     2.641407886323   112.08433028   291.87646656
 O      6   4   2     2.643704475930   112.67411804    78.01371159
 O      4   2   1     2.677539772501   106.70095503   151.60981503
 O      1   2   3     2.649325942250   111.82457759    49.81510119
 H      1   2   3     2.078921211734   108.05488037   287.07802090
 H      1   2   3     2.061849337014   111.15929387   167.37788119
 H     13  10   8     1.822697481501   109.13084425   177.75078016
 H     14   8   6     1.835214991621   107.90343592    55.46555878
 H     15   6   4     1.829641713502   108.40339170   270.58539015
 H     16   4   2     1.822031578983   109.12249323   183.98061674
 H     17   1   2     1.822409600720   109.35046096   300.11916887

---------------------
BASIS SET INFORMATION
---------------------
There are 3 groups of distinct atoms

 Group   1 Type C   : 7s4p1d contracted to 3s2p1d pattern {511/31/1}
 Group   2 Type H   : 4s contracted to 2s pattern {31}
 Group   3 Type O   : 7s4p1d contracted to 3s2p1d pattern {511/31/1}

Atom   0C    basis set group =>   1
Atom   1C    basis set group =>   1
Atom   2H    basis set group =>   2
Atom   3C    basis set group =>   1
Atom   4H    basis set group =>   2
Atom   5C    basis set group =>   1
Atom   6H    basis set group =>   2
Atom   7C    basis set group =>   1
Atom   8H    basis set group =>   2
Atom   9C    basis set group =>   1
Atom  10H    basis set group =>   2
Atom  11O    basis set group =>   3
Atom  12O    basis set group =>   3
Atom  13O    basis set group =>   3
Atom  14O    basis set group =>   3
Atom  15O    basis set group =>   3
Atom  16O    basis set group =>   3
Atom  17H    basis set group =>   2
Atom  18H    basis set group =>   2
Atom  19H    basis set group =>   2
Atom  20H    basis set group =>   2
Atom  21H    basis set group =>   2
Atom  22H    basis set group =>   2
Atom  23H    basis set group =>   2
---------------------------------
AUXILIARY/J BASIS SET INFORMATION
---------------------------------
There are 3 groups of distinct atoms

 Group   1 Type C   : 12s5p4d2f1g contracted to 6s4p3d1f1g pattern {711111/2111/211/2/1}
 Group   2 Type H   : 5s2p1d contracted to 3s1p1d pattern {311/2/1}
 Group   3 Type O   : 12s5p4d2f1g contracted to 6s4p3d1f1g pattern {711111/2111/211/2/1}

Atom   0C    basis set group =>   1
Atom   1C    basis set group =>   1
Atom   2H    basis set group =>   2
Atom   3C    basis set group =>   1
Atom   4H    basis set group =>   2
Atom   5C    basis set group =>   1
Atom   6H    basis set group =>   2
Atom   7C    basis set group =>   1
Atom   8H    basis set group =>   2
Atom   9C    basis set group =>   1
Atom  10H    basis set group =>   2
Atom  11O    basis set group =>   3
Atom  12O    basis set group =>   3
Atom  13O    basis set group =>   3
Atom  14O    basis set group =>   3
Atom  15O    basis set group =>   3
Atom  16O    basis set group =>   3
Atom  17H    basis set group =>   2
Atom  18H    basis set group =>   2
Atom  19H    basis set group =>   2
Atom  20H    basis set group =>   2
Atom  21H    basis set group =>   2
Atom  22H    basis set group =>   2
Atom  23H    basis set group =>   2
------------------------------------------------------------------------------
                             ORCA STARTUP CALCULATIONS
                           -- RI-GTO INTEGRALS CHOSEN --
------------------------------------------------------------------------------
------------------------------------------------------------------------------
                   ___                                                        
                  /   \      - P O W E R E D   B Y -                         
                 /     \                                                     
                 |  |  |   _    _      __       _____    __    __             
                 |  |  |  | |  | |    /  \     |  _  \  |  |  /  |          
                  \  \/   | |  | |   /    \    | | | |  |  | /  /          
                 / \  \   | |__| |  /  /\  \   | |_| |  |  |/  /          
                |  |  |   |  __  | /  /__\  \  |    /   |      \           
                |  |  |   | |  | | |   __   |  |    \   |  |\   \          
                \     /   | |  | | |  |  |  |  | |\  \  |  | \   \       
                 \___/    |_|  |_| |__|  |__|  |_| \__\ |__|  \__/        
                                                                              
                      - O R C A' S   B I G   F R I E N D -                    
                                      &                                       
                       - I N T E G R A L  F E E D E R -                       
                                                                              
 v1 FN, 2020, v2 2021, v3 2022-2024                                           
------------------------------------------------------------------------------


----------------------
SHARK INTEGRAL PACKAGE
----------------------

Number of atoms                             ...     24
Number of basis functions                   ...    192
Number of shells                            ...     96
Maximum angular momentum                    ...      2
Integral batch strategy                     ... SHARK/LIBINT Hybrid
RI-J (if used) integral strategy            ... SPLIT-RIJ (Revised 2003 algorithm where possible)
Printlevel                                  ...      1
Contraction scheme used                     ... SEGMENTED contraction
Prescreening option                         ... SCHWARTZ
   Thresh                                   ... 1.000e-09
   Tcut                                     ... 1.000e-10
   Tpresel                                  ... 1.000e-10 
Coulomb Range Separation                    ... NOT USED
Exchange Range Separation                   ... NOT USED
Multipole approximations                    ... NOT USED
Finite Nucleus Model                        ... NOT USED
CABS basis                                  ... NOT available
Auxiliary Coulomb fitting basis             ... AVAILABLE
   # of basis functions in Aux-J            ...    720
   # of shells in Aux-J                     ...    240
   Maximum angular momentum in Aux-J        ...      4
Auxiliary J/K fitting basis                 ... NOT available
Auxiliary Correlation fitting basis         ... NOT available
Auxiliary 'external' fitting basis          ... NOT available

Checking pre-screening integrals            ... done (  0.0 sec) Dimension = 96
Check shell pair data                       ... done (  0.0 sec)
Shell pair information
Shell pair cut-off parameter TPreSel        ...   1.0e-10
Total number of shell pairs                 ...      4656
Shell pairs after pre-screening             ...      4288
Total number of primitive shell pairs       ...     18720
Primitive shell pairs kept                  ...     11638
          la=0 lb=0:   1665 shell pairs
          la=1 lb=0:   1357 shell pairs
          la=1 lb=1:    291 shell pairs
          la=2 lb=0:    632 shell pairs
          la=2 lb=1:    273 shell pairs
          la=2 lb=2:     70 shell pairs

Calculating one electron integrals          ... done (  0.0 sec)
Calculating RI/J V-Matrix + Cholesky decomp.... done (  0.0 sec)
Calculating Nuclear repulsion               ... done (  0.0 sec) ENN=    861.201639106580 Eh

Diagonalization of the overlap matrix:
Smallest eigenvalue                        ... 7.772e-04
Time for diagonalization                   ...    0.003 sec
Threshold for overlap eigenvalues          ... 1.000e-07
Number of eigenvalues below threshold      ... 0
Time for construction of square roots      ...    0.003 sec
Total time needed                          ...    0.008 sec

-------------------
DFT GRID GENERATION
-------------------

General Integration Accuracy     IntAcc      ... 4.159
Radial Grid Type                 RadialGrid  ... OptM3 with GC (2021)
Angular Grid (max. ang.)         AngularGrid ... 3 (Lebedev-194)
Angular grid pruning method      GridPruning ... 4 (adaptive)
Weight generation scheme         WeightScheme... mBecke (2022)
Basis function cutoff            BFCut       ... 1.0000e-10
Integration weight cutoff        WCut        ... 1.0000e-14
Partially contracted basis set               ... off
Rotationally invariant grid construction     ... off
Angular grids for H and He will be reduced by one unit

Total number of grid points                  ...    55561
Total number of batches                      ...      882
Average number of points per batch           ...       62
Average number of grid points per atom       ...     2315
Initializing property integral containers    ... done (  0.0 sec)

SHARK setup successfully completed in   0.6 seconds

Maximum memory used throughout the entire STARTUP-calculation: 28.9 MB
-------------------------------------------------------------------------------
                                 ORCA GUESS
                   Start orbitals & Density for SCF / CASSCF
-------------------------------------------------------------------------------

------------
SCF SETTINGS
------------
Hamiltonian:
 Density Functional     Method          .... DFT(GTOs)
 Exchange Functional    Exchange        .... PBE
   PBE kappa parameter   XKappa         ....  0.804000
   PBE mue parameter    XMuePBE         ....  0.219520
 Correlation Functional Correlation     .... PBE
   PBE beta parameter  CBetaPBE         ....  0.066725
 LDA part of GGA corr.  LDAOpt          .... PW91-LDA
 Gradients option       PostSCFGGA      .... off
   NL short-range parameter             ....  6.400000
 RI-approximation to the Coulomb term is turned on
   Number of AuxJ basis functions       .... 720


General Settings:
 Integral files         IntName         .... sp
 Hartree-Fock type      HFTyp           .... RHF
 Total Charge           Charge          ....    0
 Multiplicity           Mult            ....    1
 Number of Electrons    NEL             ....   96
 Basis Dimension        Dim             ....  192
 Nuclear Repulsion      ENuc            ....    861.2016391066 Eh

Convergence Acceleration:
 AO-DIIS                CNVDIIS         .... on
   Start iteration      DIISMaxIt       ....    12
   Startup error        DIISStart       ....  0.200000
   # of expansion vecs  DIISMaxEq       ....     5
   Bias factor          DIISBfac        ....   1.050
   Max. coefficient     DIISMaxC        ....  10.000
 MO-DIIS                CNVKDIIS        .... off
 Trust-Rad. Augm. Hess. CNVTRAH         .... auto
   Auto Start mean grad. ratio tolernc. ....  1.125000
   Auto Start start iteration           ....    50
   Auto Start num. interpolation iter.  ....    10
   Max. Number of Micro iterations      ....    24
   Max. Number of Macro iterations      .... Maxiter - #DIIS iter
   Number of Davidson start vectors     ....     2
   Converg. threshold    (grad. norm)   ....   1.000e-04
   Grad. Scal. Fac. for Micro threshold ....   0.100
   Minimum threshold for Micro iter.    ....   1.000e-02
   NR start threshold (gradient norm)   ....   1.000e-04
   Initial trust radius                 ....   0.400
   Minimum AH scaling param. (alpha)    ....   1.000
   Maximum AH scaling param. (alpha)    .... 1000.000
   Quad. conv. algorithm                .... NR
   White noise on init. David. guess    .... on
   Maximum white noise                  ....   0.010
   Pseudo random numbers                .... off
   Inactive MOs                         .... canonical
   Orbital update algorithm             .... Taylor
   Preconditioner                       .... Diag
   Full preconditioner red. dimension   ....   250
 SOSCF                  CNVSOSCF        .... on
   Start iteration      SOSCFMaxIt      ....   150
   Startup grad/error   SOSCFStart      ....  0.003300
   Hessian update       SOSCFHessUp     .... L-BFGS
 Level Shifting         CNVShift        .... on
   Level shift para.    LevelShift      ....    0.2500
   Turn off err/grad.   ShiftErr        ....    0.0010
 Zerner damping         CNVZerner       .... off
 Static damping         CNVDamp         .... on
   Fraction old density DampFac         ....    0.7000
   Max. Damping (<1)    DampMax         ....    0.9800
   Min. Damping (>=0)   DampMin         ....    0.0000
   Turn off err/grad.   DampErr         ....    0.1000

SCF Procedure:
 Maximum # iterations   MaxIter         ....   125
 SCF integral mode      SCFMode         .... Direct
   Integral package                     .... SHARK and LIBINT hybrid scheme
 Reset frequency        DirectResetFreq ....    20
 Integral Threshold     Thresh          ....  1.000e-09 Eh
 Primitive CutOff       TCut            ....  1.000e-10 Eh

Convergence Tolerance:
 Convergence Check Mode ConvCheckMode   .... Total+1el-Energy
 Convergence forced     ConvForced      .... 0
 Energy Change          TolE            ....  1.000e-05 Eh
 1-El. energy change                    ....  1.000e-02 Eh
 Orbital Gradient       TolG            ....  1.000e-04
 Orbital Rotation angle TolX            ....  1.000e-04
 DIIS Error             TolErr          ....  5.000e-04

------------------------------
INITIAL GUESS: MODEL POTENTIAL
------------------------------
Loading Hartree-Fock densities                     ... done
Calculating cut-offs                               ... done
Initializing the effective Hamiltonian             ... done
Setting up the integral package (SHARK)            ... done
Starting the Coulomb interaction                   ... done (   0.2 sec)
Making the grid                                    ... done (   0.2 sec)
Mapping shells                                     ... done
Starting the XC term evaluation                    ... done (   0.2 sec)
  promolecular density results
     # of electrons  =     95.989226816
     EX              =    -83.243177937
     EC              =     -3.276566073
     EX+EC           =    -86.519744010
Transforming the Hamiltonian                       ... done (   0.0 sec)
Diagonalizing the Hamiltonian                      ... done (   0.0 sec)
Back transforming the eigenvectors                 ... done (   0.0 sec)
Now organizing SCF variables                       ... done
                      ------------------
                      INITIAL GUESS DONE (   0.7 sec)
                      ------------------
             **** ENERGY FILE WAS UPDATED (sp.en.tmp) ****
Finished Guess after   0.7 sec
Maximum memory used throughout the entire GUESS-calculation: 22.7 MB

-------------------------------------------------------------------------------------------
                                      ORCA LEAN-SCF
                              memory conserving SCF solver
-------------------------------------------------------------------------------------------

----------------------------------------D-I-I-S--------------------------------------------
Iteration    Energy (Eh)           Delta-E    RMSDP     MaxDP     DIISErr   Damp  Time(sec)
-------------------------------------------------------------------------------------------
               ***  Starting incremental Fock matrix formation  ***
    1    -685.5396996642309659     0.00e+00  4.47e-03  1.06e-01  2.27e-01  0.700   0.9
    2    -685.6845388386934701    -1.45e-01  2.90e-03  7.73e-02  9.03e-02  0.700   0.8
                               ***Turning on AO-DIIS***
    3    -685.7310378802001196    -4.65e-02  1.07e-03  2.42e-02  1.96e-02  0.700   0.8
    4    -685.7618041716430071    -3.08e-02  1.46e-03  2.31e-02  9.21e-03  0.000   0.7
    5    -685.8325687950086831    -7.08e-02  4.36e-04  1.32e-02  4.79e-03  0.000   0.7
                              *** Initializing SOSCF ***
---------------------------------------S-O-S-C-F--------------------------------------
Iteration    Energy (Eh)           Delta-E    RMSDP     MaxDP     MaxGrad    Time(sec)
--------------------------------------------------------------------------------------
    6    -685.8328664529267371    -2.98e-04  1.34e-04  3.00e-03  1.44e-03     0.7
               *** Restarting incremental Fock matrix formation ***
    7    -685.8328938984820979    -2.74e-05  9.21e-05  2.18e-03  2.38e-04     0.8
    8    -685.8328942111231754    -3.13e-07  3.38e-05  5.86e-04  1.91e-04     0.7
                 **** Energy Check signals convergence ****

               *****************************************************
               *                     SUCCESS                       *
               *           SCF CONVERGED AFTER   8 CYCLES          *
               *****************************************************

             **** ENERGY FILE WAS UPDATED (sp.en.tmp) ****

----------------
TOTAL SCF ENERGY
----------------

Total Energy       :       -685.83289421112318 Eh          -18662.46183 eV

Components:
Nuclear Repulsion  :        861.20163910658039 Eh           23434.48799 eV
Electronic Energy  :      -1547.03453331770356 Eh          -42096.94982 eV
One Electron Energy:      -2651.15905247678438 Eh          -72141.70543 eV
Two Electron Energy:       1104.12451915908082 Eh           30044.75561 eV

Virial components:
Potential Energy   :      -1366.94029401155603 Eh          -37196.33643 eV
Kinetic Energy     :        681.10739980043286 Eh           18533.87459 eV
Virial Ratio       :          2.00693795781998

DFT components:
N(Alpha)           :       47.999861367239 electrons
N(Beta)            :       47.999861367239 electrons
N(Total)           :       95.999722734478 electrons
E(X)               :      -84.606281695135 Eh       
E(C)               :       -3.286421512066 Eh       
E(XC)              :      -87.892703207201 Eh       

---------------
SCF CONVERGENCE
---------------

  Last Energy change         ...    3.1264e-07  Tolerance :   1.0000e-05
  Last MAX-Density change    ...    5.8569e-04  Tolerance :   1.0000e-03
  Last RMS-Density change    ...    3.3800e-05  Tolerance :   1.0000e-04
  Last DIIS Error            ...    1.4435e-03  Tolerance :   5.0000e-04
  Last Orbital Gradient      ...    1.9139e-04  Tolerance :   1.0000e-04
  Last Orbital Rotation      ...    1.3652e-04  Tolerance :   1.0000e-04


----------------
ORBITAL ENERGIES
----------------

  NO   OCC          E(Eh)            E(eV) 
   0   2.0000     -18.788415      -511.2588 
   1   2.0000     -18.778832      -510.9980 
   2   2.0000     -18.770834      -510.7804 
   3   2.0000     -18.757442      -510.4160 
   4   2.0000     -18.744938      -510.0757 
   5   2.0000     -18.744600      -510.0665 
   6   2.0000      -9.993393      -271.9340 
   7   2.0000      -9.951893      -270.8048 
   8   2.0000      -9.946348      -270.6539 
   9   2.0000      -9.943107      -270.5657 
  10   2.0000      -9.942736      -270.5556 
  11   2.0000      -9.937796      -270.4212 
  12   2.0000      -0.996929       -27.1278 
  13   2.0000      -0.950680       -25.8693 
  14   2.0000      -0.936503       -25.4835 
  15   2.0000      -0.929784       -25.3007 
  16   2.0000      -0.927263       -25.2321 
  17   2.0000      -0.918773       -25.0011 
  18   2.0000      -0.708351       -19.2752 
  19   2.0000      -0.688527       -18.7358 
  20   2.0000      -0.625288       -17.0150 
  21   2.0000      -0.592524       -16.1234 
  22   2.0000      -0.586320       -15.9546 
  23   2.0000      -0.530482       -14.4352 
  24   2.0000      -0.511797       -13.9267 
  25   2.0000      -0.486524       -13.2390 
  26   2.0000      -0.476862       -12.9761 
  27   2.0000      -0.467052       -12.7091 
  28   2.0000      -0.447773       -12.1845 
  29   2.0000      -0.438522       -11.9328 
  30   2.0000      -0.419143       -11.4055 
  31   2.0000      -0.405556       -11.0357 
  32   2.0000      -0.385223       -10.4825 
  33   2.0000      -0.376119       -10.2347 
  34   2.0000      -0.365477        -9.9451 
  35   2.0000      -0.361294        -9.8313 
  36   2.0000      -0.338695        -9.2164 
  37   2.0000      -0.328871        -8.9490 
  38   2.0000      -0.315166        -8.5761 
  39   2.0000      -0.300710        -8.1827 
  40   2.0000      -0.282138        -7.6774 
  41   2.0000      -0.273832        -7.4514 
  42   2.0000      -0.267030        -7.2662 
  43   2.0000      -0.254629        -6.9288 
  44   2.0000      -0.242433        -6.5969 
  45   2.0000      -0.227138        -6.1808 
  46   2.0000      -0.217723        -5.9246 
  47   2.0000      -0.200522        -5.4565 
  48   0.0000       0.008312         0.2262 
  49   0.0000       0.015341         0.4174 
  50   0.0000       0.020081         0.5464 
  51   0.0000       0.053720         1.4618 
  52   0.0000       0.064542         1.7563 
  53   0.0000       0.072509         1.9731 
  54   0.0000       0.080926         2.2021 
  55   0.0000       0.092932         2.5288 
  56   0.0000       0.100599         2.7374 
  57   0.0000       0.113771         3.0959 
  58   0.0000       0.115562         3.1446 
*Only the first 10 virtual orbitals were printed.

                    ********************************
                    * MULLIKEN POPULATION ANALYSIS *
                    ********************************

-----------------------
MULLIKEN ATOMIC CHARGES
-----------------------
   0 C :    0.032980
   1 C :    0.027047
   2 H :    0.071996
   3 C :    0.023680
   4 H :    0.087807
   5 C :    0.040626
   6 H :    0.064408
   7 C :    0.032143
   8 H :    0.088638
   9 C :    0.172134
  10 H :    0.078606
  11 O :   -0.306270
  12 O :   -0.413116
  13 O :   -0.424699
  14 O :   -0.416586
  15 O :   -0.419543
  16 O :   -0.421559
  17 H :    0.071540
  18 H :    0.077028
  19 H :    0.313799
  20 H :    0.297257
  21 H :    0.317213
  22 H :    0.307483
  23 H :    0.297389
Sum of atomic charges:    0.0000000

--------------------------------
MULLIKEN REDUCED ORBITAL CHARGES
--------------------------------
  0 C s       :     3.030342  s :     3.030342
      pz      :     1.078142  p :     2.873306
      px      :     0.799594
      py      :     0.995571
      dz2     :     0.012063  d :     0.063371
      dxz     :     0.015240
      dyz     :     0.003496
      dx2y2   :     0.019104
      dxy     :     0.013468

  1 C s       :     3.063829  s :     3.063829
      pz      :     1.040401  p :     2.843909
      px      :     0.861043
      py      :     0.942465
      dz2     :     0.010689  d :     0.065215
      dxz     :     0.016692
      dyz     :     0.006944
      dx2y2   :     0.014337
      dxy     :     0.016553

  2 H s       :     0.928004  s :     0.928004

  3 C s       :     3.060749  s :     3.060749
      pz      :     0.791744  p :     2.849914
      px      :     1.045260
      py      :     1.012910
      dz2     :     0.015384  d :     0.065657
      dxz     :     0.018141
      dyz     :     0.014860
      dx2y2   :     0.009295
      dxy     :     0.007977

  4 H s       :     0.912193  s :     0.912193

  5 C s       :     3.067350  s :     3.067350
      pz      :     0.767591  p :     2.823172
      px      :     1.003874
      py      :     1.051706
      dz2     :     0.020904  d :     0.068853
      dxz     :     0.019576
      dyz     :     0.011353
      dx2y2   :     0.010578
      dxy     :     0.006442

  6 H s       :     0.935592  s :     0.935592

  7 C s       :     3.067550  s :     3.067550
      pz      :     0.831617  p :     2.831456
      px      :     1.027676
      py      :     0.972163
      dz2     :     0.016415  d :     0.068852
      dxz     :     0.018082
      dyz     :     0.014370
      dx2y2   :     0.011740
      dxy     :     0.008244

  8 H s       :     0.911362  s :     0.911362

  9 C s       :     3.006629  s :     3.006629
      pz      :     0.769086  p :     2.722341
      px      :     0.884651
      py      :     1.068604
      dz2     :     0.024768  d :     0.098896
      dxz     :     0.028172
      dyz     :     0.016687
      dx2y2   :     0.013435
      dxy     :     0.015834

 10 H s       :     0.921394  s :     0.921394

 11 O s       :     3.746846  s :     3.746846
      pz      :     1.662022  p :     4.543965
      px      :     1.227684
      py      :     1.654259
      dz2     :     0.002173  d :     0.015459
      dxz     :     0.004522
      dyz     :     0.002260
      dx2y2   :     0.002611
      dxy     :     0.003893

 12 O s       :     3.773284  s :     3.773284
      pz      :     1.446843  p :     4.625205
      px      :     1.837491
      py      :     1.340871
      dz2     :     0.005815  d :     0.014628
      dxz     :     0.001793
      dyz     :     0.001789
      dx2y2   :     0.003760
      dxy     :     0.001471

 13 O s       :     3.783649  s :     3.783649
      pz      :     1.255241  p :     4.625343
      px      :     1.534058
      py      :     1.836044
      dz2     :     0.002063  d :     0.015707
      dxz     :     0.006655
      dyz     :     0.001770
      dx2y2   :     0.003786
      dxy     :     0.001434

 14 O s       :     3.774591  s :     3.774591
      pz      :     1.349836  p :     4.626372
      px      :     1.851032
      py      :     1.425504
      dz2     :     0.005759  d :     0.015624
      dxz     :     0.002181
      dyz     :     0.001935
      dx2y2   :     0.004450
      dxy     :     0.001298

 15 O s       :     3.786537  s :     3.786537
      pz      :     1.466617  p :     4.617820
      px      :     1.876932
      py      :     1.274272
      dz2     :     0.005570  d :     0.015186
      dxz     :     0.001966
      dyz     :     0.002357
      dx2y2   :     0.004443
      dxy     :     0.000851

 16 O s       :     3.789200  s :     3.789200
      pz      :     1.503295  p :     4.616426
      px      :     1.323126
      py      :     1.790005
      dz2     :     0.004400  d :     0.015933
      dxz     :     0.004819
      dyz     :     0.001921
      dx2y2   :     0.001988
      dxy     :     0.002806

 17 H s       :     0.928460  s :     0.928460

 18 H s       :     0.922972  s :     0.922972

 19 H s       :     0.686201  s :     0.686201

 20 H s       :     0.702743  s :     0.702743

 21 H s       :     0.682787  s :     0.682787

 22 H s       :     0.692517  s :     0.692517

 23 H s       :     0.702611  s :     0.702611


------------------------
MULLIKEN OVERLAP CHARGES
------------------------
B(  0-C ,  1-C ) :   0.6438 B(  0-C ,  2-H ) :  -0.0614 B(  0-C ,  3-C ) :  -0.0602 
B(  0-C , 11-O ) :  -0.0918 B(  0-C , 16-O ) :   0.6233 B(  0-C , 17-H ) :   0.6493 
B(  0-C , 18-H ) :   0.6466 B(  0-C , 23-H ) :  -0.0967 B(  1-C ,  2-H ) :   0.6084 
B(  1-C ,  3-C ) :   0.3081 B(  1-C ,  4-H ) :  -0.1020 B(  1-C ,  7-C ) :  -0.1045 
B(  1-C ,  9-C ) :  -0.1076 B(  1-C , 11-O ) :   0.5358 B(  1-C , 15-O ) :  -0.0972 
B(  1-C , 16-O ) :  -0.1042 B(  1-C , 17-H ) :  -0.0894 B(  3-C ,  4-H ) :   0.6578 
B(  3-C ,  5-C ) :   0.2563 B(  3-C ,  6-H ) :  -0.1525 B(  3-C ,  7-C ) :   0.1017 
B(  3-C ,  9-C ) :  -0.1264 B(  3-C , 14-O ) :  -0.1358 B(  3-C , 15-O ) :   0.4690 
B(  3-C , 18-H ) :  -0.0525 B(  3-C , 22-H ) :  -0.0918 B(  4-H ,  5-C ) :  -0.0515 
B(  4-H , 16-O ) :   0.0565 B(  5-C ,  6-H ) :   0.7221 B(  5-C ,  7-C ) :   0.3707 
B(  5-C ,  8-H ) :  -0.0955 B(  5-C , 11-O ) :  -0.0582 B(  5-C , 13-O ) :  -0.0741 
B(  5-C , 14-O ) :   0.6049 B(  5-C , 21-H ) :  -0.0928 B(  6-H ,  7-C ) :  -0.0778 
B(  7-C ,  8-H ) :   0.6626 B(  7-C ,  9-C ) :   0.4892 B(  7-C , 10-H ) :  -0.0863 
B(  7-C , 11-O ) :  -0.0651 B(  7-C , 12-O ) :  -0.1181 B(  7-C , 13-O ) :   0.6054 
B(  7-C , 20-H ) :  -0.0966 B(  8-H ,  9-C ) :  -0.0575 B(  9-C , 10-H ) :   0.7217 
B(  9-C , 11-O ) :   0.6795 B(  9-C , 12-O ) :   0.5533 B(  9-C , 13-O ) :  -0.0680 
B( 10-H , 11-O ) :  -0.0816 B( 11-O , 12-O ) :  -0.1377 B( 12-O , 19-H ) :   0.4890 
B( 12-O , 21-H ) :   0.0993 B( 13-O , 20-H ) :   0.5350 B( 14-O , 21-H ) :   0.5483 
B( 15-O , 20-H ) :   0.1068 B( 15-O , 22-H ) :   0.5210 B( 16-O , 18-H ) :  -0.0561 
B( 16-O , 23-H ) :   0.5274 B( 17-H , 18-H ) :  -0.0706 


                     *******************************
                     * LOEWDIN POPULATION ANALYSIS *
                     *******************************

----------------------
LOEWDIN ATOMIC CHARGES
----------------------
   0 C :   -0.143807
   1 C :   -0.070694
   2 H :    0.116851
   3 C :   -0.080506
   4 H :    0.115015
   5 C :   -0.078226
   6 H :    0.107903
   7 C :   -0.083973
   8 H :    0.122495
   9 C :   -0.010168
  10 H :    0.105112
  11 O :   -0.136733
  12 O :   -0.311221
  13 O :   -0.313196
  14 O :   -0.315831
  15 O :   -0.312327
  16 O :   -0.323508
  17 H :    0.093860
  18 H :    0.110943
  19 H :    0.292000
  20 H :    0.269658
  21 H :    0.273402
  22 H :    0.289132
  23 H :    0.283820

-------------------------------
LOEWDIN REDUCED ORBITAL CHARGES
-------------------------------
  0 C s       :     2.925246  s :     2.925246
      pz      :     1.112115  p :     3.074366
      px      :     0.897646
      py      :     1.064604
      dz2     :     0.027980  d :     0.144195
      dxz     :     0.035416
      dyz     :     0.007757
      dx2y2   :     0.042428
      dxy     :     0.030614

  1 C s       :     2.901635  s :     2.901635
      pz      :     1.087183  p :     3.016858
      px      :     0.921152
      py      :     1.008524
      dz2     :     0.024515  d :     0.152201
      dxz     :     0.040956
      dyz     :     0.015272
      dx2y2   :     0.033923
      dxy     :     0.037535

  2 H s       :     0.883149  s :     0.883149

  3 C s       :     2.900253  s :     2.900253
      pz      :     0.903094  p :     3.027282
      px      :     1.089983
      py      :     1.034206
      dz2     :     0.034531  d :     0.152971
      dxz     :     0.044283
      dyz     :     0.031351
      dx2y2   :     0.025818
      dxy     :     0.016988

  4 H s       :     0.884985  s :     0.884985

  5 C s       :     2.892184  s :     2.892184
      pz      :     0.880906  p :     3.023724
      px      :     1.062865
      py      :     1.079953
      dz2     :     0.048351  d :     0.162318
      dxz     :     0.048574
      dyz     :     0.023163
      dx2y2   :     0.025445
      dxy     :     0.016785

  6 H s       :     0.892097  s :     0.892097

  7 C s       :     2.891070  s :     2.891070
      pz      :     0.921672  p :     3.031914
      px      :     1.068440
      py      :     1.041802
      dz2     :     0.037821  d :     0.160990
      dxz     :     0.041904
      dyz     :     0.031453
      dx2y2   :     0.028245
      dxy     :     0.021567

  8 H s       :     0.877505  s :     0.877505

  9 C s       :     2.889611  s :     2.889611
      pz      :     0.877690  p :     2.897242
      px      :     0.941920
      py      :     1.077632
      dz2     :     0.058645  d :     0.223316
      dxz     :     0.064430
      dyz     :     0.034264
      dx2y2   :     0.032019
      dxy     :     0.033958

 10 H s       :     0.894888  s :     0.894888

 11 O s       :     3.465517  s :     3.465517
      pz      :     1.678709  p :     4.640865
      px      :     1.291270
      py      :     1.670885
      dz2     :     0.003451  d :     0.030351
      dxz     :     0.009547
      dyz     :     0.002930
      dx2y2   :     0.006113
      dxy     :     0.008309

 12 O s       :     3.531881  s :     3.531881
      pz      :     1.516441  p :     4.753019
      px      :     1.838884
      py      :     1.397693
      dz2     :     0.010837  d :     0.026321
      dxz     :     0.002546
      dyz     :     0.004029
      dx2y2   :     0.006380
      dxy     :     0.002529

 13 O s       :     3.526565  s :     3.526565
      pz      :     1.333434  p :     4.759270
      px      :     1.591010
      py      :     1.834826
      dz2     :     0.004861  d :     0.027360
      dxz     :     0.012007
      dyz     :     0.003607
      dx2y2   :     0.005242
      dxy     :     0.001643

 14 O s       :     3.521632  s :     3.521632
      pz      :     1.421297  p :     4.766964
      px      :     1.855996
      py      :     1.489671
      dz2     :     0.011393  d :     0.027235
      dxz     :     0.003544
      dyz     :     0.003532
      dx2y2   :     0.007001
      dxy     :     0.001764

 15 O s       :     3.538313  s :     3.538313
      pz      :     1.531229  p :     4.747177
      px      :     1.872270
      py      :     1.343679
      dz2     :     0.009903  d :     0.026836
      dxz     :     0.002874
      dyz     :     0.004840
      dx2y2   :     0.007697
      dxy     :     0.001523

 16 O s       :     3.539123  s :     3.539123
      pz      :     1.559804  p :     4.756676
      px      :     1.381023
      py      :     1.815848
      dz2     :     0.007507  d :     0.027709
      dxz     :     0.008668
      dyz     :     0.002393
      dx2y2   :     0.003938
      dxy     :     0.005203

 17 H s       :     0.906140  s :     0.906140

 18 H s       :     0.889057  s :     0.889057

 19 H s       :     0.708000  s :     0.708000

 20 H s       :     0.730342  s :     0.730342

 21 H s       :     0.726598  s :     0.726598

 22 H s       :     0.710868  s :     0.710868

 23 H s       :     0.716180  s :     0.716180


---------------------------------
LOEWDIN BOND ORDERS (THRESH 0.050000)
---------------------------------
B(  0-C ,  1-C ) :   1.0516 B(  0-C ,  3-C ) :   0.0567 B(  0-C , 11-O ) :   0.0683 
B(  0-C , 16-O ) :   1.2446 B(  0-C , 17-H ) :   0.9048 B(  0-C , 18-H ) :   0.9024 
B(  1-C ,  2-H ) :   0.8699 B(  1-C ,  3-C ) :   1.0307 B(  1-C ,  9-C ) :   0.0618 
B(  1-C , 11-O ) :   1.1344 B(  1-C , 15-O ) :   0.0617 B(  1-C , 16-O ) :   0.0860 
B(  3-C ,  4-H ) :   0.8631 B(  3-C ,  5-C ) :   1.0093 B(  3-C ,  7-C ) :   0.0544 
B(  3-C , 11-O ) :   0.0523 B(  3-C , 14-O ) :   0.0828 B(  3-C , 15-O ) :   1.1858 
B(  5-C ,  6-H ) :   0.8699 B(  5-C ,  7-C ) :   1.0185 B(  5-C ,  9-C ) :   0.0560 
B(  5-C , 13-O ) :   0.0798 B(  5-C , 14-O ) :   1.2402 B(  5-C , 15-O ) :   0.0774 
B(  7-C ,  8-H ) :   0.8717 B(  7-C ,  9-C ) :   1.0126 B(  7-C , 11-O ) :   0.0588 
B(  7-C , 12-O ) :   0.0579 B(  7-C , 13-O ) :   1.2446 B(  7-C , 14-O ) :   0.0729 
B(  9-C , 10-H ) :   0.8830 B(  9-C , 11-O ) :   1.2110 B(  9-C , 12-O ) :   1.2212 
B(  9-C , 13-O ) :   0.0879 B( 11-O , 12-O ) :   0.0942 B( 12-O , 19-H ) :   0.8683 
B( 12-O , 21-H ) :   0.0804 B( 13-O , 20-H ) :   0.8539 B( 14-O , 21-H ) :   0.8497 
B( 15-O , 20-H ) :   0.0765 B( 15-O , 22-H ) :   0.8786 B( 16-O , 23-H ) :   0.8879 


------------------------------------------
LOEWDIN REDUCED ORBITAL POPULATIONS PER MO
-------------------------------------------
THRESHOLD FOR PRINTING IS 0.1%%
                      0         1         2         3         4         5   
                 -18.78842 -18.77883 -18.77083 -18.75744 -18.74494 -18.74460
                   2.00000   2.00000   2.00000   2.00000   2.00000   2.00000
                  --------  --------  --------  --------  --------  --------
11 O  s               0.0      99.9       0.0       0.0       0.0       0.0
12 O  s              99.9       0.0       0.0       0.0       0.0       0.0
13 O  s               0.0       0.0       0.0       0.0       0.3      99.6
14 O  s               0.0       0.0       0.0       0.0      99.6       0.3
15 O  s               0.0       0.0      99.9       0.0       0.0       0.0
16 O  s               0.0       0.0       0.0      99.9       0.0       0.0

                      6         7         8         9        10        11   
                  -9.99339  -9.95189  -9.94635  -9.94311  -9.94274  -9.93780
                   2.00000   2.00000   2.00000   2.00000   2.00000   2.00000
                  --------  --------  --------  --------  --------  --------
 0 C  s               0.0       0.0       0.0       0.0       0.0      99.6
 1 C  s               0.0      99.6       0.0       0.0       0.0       0.0
 1 C  py              0.0       0.0       0.1       0.0       0.0       0.0
 3 C  s               0.0       0.0      99.6       0.0       0.0       0.0
 3 C  py              0.0       0.1       0.0       0.0       0.0       0.0
 5 C  s               0.0       0.0       0.0      99.3       0.3       0.0
 7 C  s               0.0       0.0       0.0       0.3      99.3       0.0
 9 C  s              99.6       0.0       0.0       0.0       0.0       0.0
12 O  pz              0.1       0.0       0.0       0.0       0.0       0.0
14 O  pz              0.0       0.0       0.0       0.1       0.0       0.0
16 O  px              0.0       0.0       0.0       0.0       0.0       0.1

                     12        13        14        15        16        17   
                  -0.99693  -0.95068  -0.93650  -0.92978  -0.92726  -0.91877
                   2.00000   2.00000   2.00000   2.00000   2.00000   2.00000
                  --------  --------  --------  --------  --------  --------
 0 C  s               0.4       0.4       9.0       1.1       0.0       0.1
 0 C  pz              0.2       0.0       0.1       0.2       0.0       0.1
 0 C  px              0.2       0.1       5.3       2.1       0.1       0.5
 0 C  py              0.0       0.1       1.1       0.2       0.0       0.0
 0 C  dz2             0.0       0.0       0.1       0.0       0.0       0.0
 0 C  dx2y2           0.0       0.0       0.3       0.1       0.0       0.0
 0 C  dxy             0.0       0.0       0.2       0.1       0.0       0.0
 1 C  s               4.0       1.1       2.0       1.5       0.1       1.1
 1 C  pz              0.0       0.0       0.3       0.6       0.0       0.1
 1 C  px              2.7       0.0       0.1       2.4       0.2       0.9
 1 C  py              0.7       0.9       0.7       0.8       0.4       0.2
 1 C  dxy             0.2       0.0       0.0       0.2       0.0       0.1
 2 H  s               0.5       0.3       0.3       0.2       0.0       0.1
 3 C  s               1.0       8.6       0.1       0.0       1.0       0.2
 3 C  pz              0.1       4.2       0.1       0.4       2.8       0.3
 3 C  px              0.1       0.3       0.2       0.1       0.2       0.0
 3 C  py              0.3       1.0       0.6       0.3       0.8       0.1
 3 C  dz2             0.0       0.2       0.0       0.0       0.1       0.0
 3 C  dyz             0.0       0.3       0.0       0.0       0.1       0.0
 4 H  s               0.1       1.1       0.0       0.1       0.1       0.0
 5 C  s               0.8       2.2       0.7       3.9       2.6       2.0
 5 C  pz              0.0       0.3       0.2       3.6       1.2       4.8
 5 C  px              0.0       0.3       0.0       0.0       0.5       0.7
 5 C  py              0.3       0.0       0.0       0.2       0.4       0.0
 5 C  dz2             0.0       0.0       0.0       0.3       0.1       0.3
 6 H  s               0.1       0.4       0.1       0.5       0.3       0.2
 7 C  s               2.2       0.9       0.4       0.2       5.5       3.3
 7 C  pz              0.1       0.5       0.0       0.5       2.7       5.3
 7 C  px              0.4       0.1       0.0       0.1       0.0       0.9
 7 C  py              0.9       0.6       0.0       0.1       0.7       0.1
 7 C  dz2             0.0       0.0       0.0       0.0       0.2       0.3
 7 C  dyz             0.0       0.0       0.0       0.0       0.1       0.2
 8 H  s               0.3       0.1       0.1       0.1       0.6       0.3
 9 C  s              15.2       0.6       0.0       0.1       0.0       0.1
 9 C  pz              0.6       1.7       1.3       4.9       2.6       1.3
 9 C  px              3.3       0.0       0.5       1.8       0.0       1.3
 9 C  py              0.3       0.8       0.0       0.0       1.6       0.1
 9 C  dz2             0.1       0.1       0.0       0.1       0.1       0.0
 9 C  dxz             0.1       0.0       0.1       0.2       0.0       0.1
 9 C  dx2y2           0.1       0.0       0.0       0.2       0.0       0.1
10 H  s               1.8       0.1       0.0       0.0       0.0       0.0
11 O  s              24.7       0.2       4.0      17.3       2.0       6.7
11 O  pz              1.4       0.0       0.1       0.3       0.0       0.1
11 O  px              0.2       0.1       0.1       0.0       0.0       0.1
11 O  py              0.5       0.1       0.1       0.4       0.1       0.2
12 O  s              24.0       9.3       3.6      10.1       9.0       5.1
12 O  pz              1.8       0.3       0.1       0.1       0.2       0.1
12 O  py              0.1       0.2       0.0       0.1       0.3       0.1
13 O  s               1.2       4.0       1.0       0.0      23.1      27.8
13 O  pz              0.1       0.0       0.0       0.0       0.3       0.2
13 O  px              0.1       0.3       0.1       0.0       1.0       1.2
13 O  py              0.0       0.0       0.0       0.0       0.1       0.1
14 O  s               0.7       1.9       2.3      22.0      10.3      19.7
14 O  pz              0.1       0.2       0.1       0.8       0.4       0.6
14 O  py              0.0       0.0       0.1       0.5       0.2       0.4
15 O  s               0.8      40.5       2.1       0.0      15.5       0.1
15 O  pz              0.1       2.0       0.1       0.0       0.5       0.0
15 O  py              0.0       0.3       0.0       0.0       0.2       0.0
16 O  s               0.1       1.0      45.4      10.4       0.2       1.6
16 O  pz              0.0       0.0       1.6       0.3       0.0       0.1
16 O  px              0.0       0.0       0.6       0.1       0.0       0.0
16 O  py              0.0       0.0       0.7       0.2       0.0       0.0
17 H  s               0.1       0.0       1.1       0.1       0.0       0.0
18 H  s               0.1       0.0       0.9       0.3       0.0       0.0
19 H  s               4.9       1.9       0.7       1.9       1.9       1.1
20 H  s               0.4       1.6       0.3       0.0       3.9       5.4
21 H  s               0.6       0.2       0.7       5.4       1.7       3.4
22 H  s               0.2       8.3       0.5       0.0       3.2       0.0
23 H  s               0.0       0.2       9.4       2.1       0.0       0.3

                     18        19        20        21        22        23   
                  -0.70835  -0.68853  -0.62529  -0.59252  -0.58632  -0.53048
                   2.00000   2.00000   2.00000   2.00000   2.00000   2.00000
                  --------  --------  --------  --------  --------  --------
 0 C  s               6.1       0.4      15.8       1.2       7.1       0.1
 0 C  pz              1.4       0.1       0.0       0.0       2.7       1.0
 0 C  px              2.8       0.2       1.2       0.0       0.1       0.3
 0 C  py              0.3       0.1       0.1       1.0       0.1       0.0
 1 C  s              19.6       0.6       1.0       0.2       3.9       0.6
 1 C  pz              0.7       0.2       2.5       0.0       5.6       0.0
 1 C  px              0.6       0.1       2.8       0.3       0.3       0.0
 1 C  py              1.1       2.4       1.8       8.7       0.1       1.3
 1 C  dz2             0.0       0.0       0.1       0.0       0.0       0.0
 2 H  s               4.0       0.3       0.2       0.1       3.0       0.2
 3 C  s              10.7       3.7       3.8       7.0       0.8       0.8
 3 C  pz              0.5       1.2       0.4       0.3       3.0       1.0
 3 C  px              0.1       1.7       1.1       3.5       0.5       0.9
 3 C  py              4.1       0.0       0.4       1.0       2.1       0.0
 4 H  s               2.2       0.6       0.7       2.6       0.8       0.3
 5 C  s               1.7      10.6       4.2       6.4       2.7       1.2
 5 C  pz              1.0       3.4       0.4       0.1       0.0       0.3
 5 C  px              1.3       0.3       1.6       4.8       2.6       0.3
 5 C  py              0.0       0.7       1.1       0.6       1.9       0.2
 5 C  dz2             0.0       0.2       0.0       0.0       0.0       0.0
 6 H  s               0.3       2.1       1.5       3.5       1.5       0.6
 7 C  s               0.0      14.0       2.4       3.0       4.4       3.3
 7 C  pz              0.0       2.5       0.1       1.3       0.6       0.9
 7 C  px              0.1       2.0       0.8       0.0       1.1       3.0
 7 C  py              1.2       0.6       3.3       5.4       0.4       0.4
 7 C  dz2             0.0       0.2       0.0       0.0       0.0       0.0
 8 H  s               0.0       2.9       1.1       1.3       2.6       2.0
 9 C  s               4.4       7.3       3.8       5.1       0.4       0.7
 9 C  pz              1.5       0.0       0.2       0.3       2.4       8.9
 9 C  px              0.3       1.0       1.6       0.3       1.8       0.0
 9 C  py              0.1       3.9       0.9       0.5       3.7       0.0
 9 C  dz2             0.0       0.0       0.0       0.0       0.0       0.2
10 H  s               1.2       1.4       1.0       2.4       0.4       0.1
11 O  s               2.0       1.5       1.4       1.1       0.1       0.5
11 O  pz              0.1       0.2       0.3       0.2       0.7       0.5
11 O  px              8.7       3.1       0.1       5.6      10.2       3.1
11 O  py              0.9       0.0       0.0       0.0       2.0       0.2
12 O  s               0.8       1.2       0.6       0.4       0.2       0.0
12 O  pz              0.7       1.4       1.3       2.3       0.2       7.4
12 O  px              0.0       0.3       0.3       0.3       0.3       1.2
12 O  py              0.4       2.4       3.8       2.3       1.3      17.2
12 O  dz2             0.0       0.0       0.0       0.1       0.0       0.2
13 O  s               0.0       5.3       0.2       0.5       0.3       0.4
13 O  pz              0.0       3.1       0.8       2.4       2.7      12.4
13 O  px              0.0       0.2       0.2       0.1       0.4       1.7
13 O  py              0.0       0.2       0.3       0.1       0.2       0.9
14 O  s               0.9       4.4       0.2       0.9       0.1       0.3
14 O  pz              0.3       1.9       1.3       2.5       1.6       2.3
14 O  px              0.0       0.0       0.0       0.2       0.2       0.0
14 O  py              0.1       0.8       1.2       1.7       1.8       1.2
15 O  s               2.7       1.0       1.1       0.4       0.2       0.0
15 O  pz              0.9       0.6       1.1       1.9       0.2       1.3
15 O  px              0.1       0.0       0.0       0.6       0.1       0.6
15 O  py              2.8       0.5       1.5       6.6       0.2       3.0
16 O  s               2.3       0.1       2.4       0.0       0.5       0.0
16 O  pz              0.2       0.0       1.2       0.1       2.1       0.7
16 O  px              1.4       0.1       6.9       0.3       6.1       1.1
16 O  py              0.0       0.0       0.3       0.1       0.3       0.0
17 H  s               1.1       0.2       4.2       0.9       2.0       0.0
18 H  s               1.4       0.1       4.9       0.2       3.5       0.3
19 H  s               0.5       1.6       1.8       1.4       0.2       7.0
20 H  s               0.0       2.3       0.4       0.7       0.9       4.3
21 H  s               0.3       1.7       0.9       1.3       1.2       0.8
22 H  s               1.8       0.5       1.0       2.7       0.0       1.2
23 H  s               1.0       0.0       3.0       0.1       2.7       0.5

                     24        25        26        27        28        29   
                  -0.51180  -0.48652  -0.47686  -0.46705  -0.44777  -0.43852
                   2.00000   2.00000   2.00000   2.00000   2.00000   2.00000
                  --------  --------  --------  --------  --------  --------
 0 C  s               0.1       0.3       0.1       1.5       0.3       0.3
 0 C  pz              5.6       0.8       2.1       2.9       0.5       1.9
 0 C  px              0.3       3.5       0.2       4.9       0.0       2.0
 0 C  py              0.0       1.3       0.1      11.9       6.4       1.7
 0 C  dx2y2           0.0       0.0       0.0       0.2       0.0       0.0
 0 C  dxy             0.0       0.1       0.0       0.2       0.0       0.0
 1 C  s               2.5       0.3       1.3       0.3       0.4       0.4
 1 C  pz              0.5       7.9       0.1       1.9       1.0       2.2
 1 C  px              6.4       0.0       2.0       0.9       2.7       4.2
 1 C  py              0.2       0.4       0.7       2.5       3.5       0.2
 1 C  dyz             0.0       0.0       0.1       0.2       0.0       0.0
 1 C  dxy             0.0       0.0       0.3       0.1       0.0       0.0
 2 H  s               3.7       0.9       1.9       0.2       0.3       3.0
 3 C  s               0.1       0.5       2.0       0.1       0.6       0.1
 3 C  pz              0.5      12.9       1.8       1.2       1.4       0.7
 3 C  px              3.4       0.5       1.9       0.5       3.6       0.4
 3 C  py              0.1       0.5       5.9       1.9       3.4       0.9
 3 C  dz2             0.0       0.5       0.0       0.0       0.0       0.2
 4 H  s               0.6       2.6       5.0       0.2       0.1       0.1
 5 C  s               0.2       0.3       0.4       0.0       0.0       0.8
 5 C  pz              5.2       0.7       0.1       1.8       1.0      11.4
 5 C  px              0.1       2.6       2.1       0.3       7.9       1.1
 5 C  py              5.2       2.2       2.2       0.2       0.0       1.3
 5 C  dz2             0.1       0.1       0.0       0.0       0.0       0.3
 6 H  s               1.1       1.0       0.1       0.3       0.1       2.9
 7 C  pz              0.4       0.6       0.4       0.0       1.4       0.1
 7 C  px              5.4       0.0       9.8       0.0       0.1       0.8
 7 C  py              0.1       0.2       0.8       2.1       8.8       4.0
 7 C  dyz             0.0       0.0       0.2       0.0       0.0       0.0
 7 C  dxy             0.0       0.0       0.0       0.0       0.0       0.2
 8 H  s               0.3       0.1       1.2       0.0       0.4       0.1
 9 C  s               1.7       0.1       0.7       0.0       0.6       0.1
 9 C  pz              2.0       0.4       5.9       0.1       1.1       0.2
 9 C  px              4.8       1.2       0.2       1.4      14.7       0.7
 9 C  py              5.1       1.0       0.7       1.4       1.4       5.1
 9 C  dz2             0.0       0.1       0.2       0.0       0.0       0.0
10 H  s               6.0       0.4       1.4       0.1       4.3       1.8
11 O  s               0.1       0.4       1.9       0.1       0.0       0.4
11 O  pz              0.3       2.0       0.0       2.3       4.7       2.2
11 O  px              0.1       0.7       4.2       0.5       6.8       0.0
11 O  py              1.8       0.2       0.8       2.9       1.1       3.0
12 O  s               0.5       0.0       0.3       0.2       0.0       0.0
12 O  pz              1.5       1.1       2.1       0.7       1.7       0.3
12 O  px              0.8       1.2       0.4       0.6       2.4       0.9
12 O  py              2.9       0.4       8.8       0.3       1.1       0.1
13 O  s               0.2       0.0       1.3       0.0       0.3       0.2
13 O  pz              1.1       0.8       6.2       0.8       0.5       0.0
13 O  px              1.6       0.1       5.9       0.0       0.3       0.7
13 O  py              0.3       0.2       0.0       0.3       2.0       1.3
14 O  s               0.4       0.2       0.0       0.0       0.1       0.1
14 O  pz              3.3       0.5       0.3       1.9       0.5      10.9
14 O  px              0.1       0.6       0.4       0.1       1.4       0.4
14 O  py              9.1       2.5       0.0       1.5       0.3      10.6
14 O  dz2             0.1       0.0       0.0       0.0       0.0       0.1
15 O  s               0.0       0.5       0.5       0.0       0.6       1.3
15 O  pz              0.3       2.2       3.2       2.9       1.5       0.3
15 O  px              0.5       0.1       0.9       0.0       0.9       0.9
15 O  py              1.7      23.7       0.4       3.6       0.6       3.2
16 O  s               0.3       0.0       0.3       1.3       0.0       0.0
16 O  pz              2.3       2.3       1.6       9.8       0.0       0.1
16 O  px              0.8       3.6       0.4      12.5       1.0       3.7
16 O  py              0.1       0.9       0.0       0.7       1.1       0.0
17 H  s               0.0       0.6       0.1       8.0       3.1       1.0
18 H  s               1.4       0.0       0.2       0.1       0.2       1.2
19 H  s               0.2       0.4       3.2       0.1       0.4       0.2
20 H  s               0.8       0.4       3.3       0.2       0.1       0.1
21 H  s               4.0       0.7       0.0       1.0       0.2       5.6
22 H  s               0.6       7.3       0.0       1.5       0.0       0.8
23 H  s               0.7       1.6       0.5       6.3       0.2       0.8

                     30        31        32        33        34        35   
                  -0.41914  -0.40556  -0.38522  -0.37612  -0.36548  -0.36129
                   2.00000   2.00000   2.00000   2.00000   2.00000   2.00000
                  --------  --------  --------  --------  --------  --------
 0 C  s               0.0       0.0       0.1       0.2       0.1       0.0
 0 C  pz              0.4       5.9       1.6       7.9       4.6       1.3
 0 C  px              0.2       7.1       6.5       0.2       0.4       3.2
 0 C  py              0.7       2.2       4.4       4.3       6.7       2.0
 0 C  dz2             0.0       0.0       0.2       0.0       0.0       0.2
 0 C  dxz             0.0       0.0       0.0       0.2       0.0       0.0
 0 C  dx2y2           0.0       0.0       0.0       0.1       0.0       0.0
 1 C  s               0.8       0.0       0.2       0.1       0.1       0.4
 1 C  pz              0.1       3.1       0.5       5.1       4.2       0.6
 1 C  px              2.0       3.7       0.2       0.1       1.4       2.6
 1 C  py              0.3       0.1       0.0       6.4       1.9       4.2
 1 C  dz2             0.0       0.0       0.1       0.1       0.0       0.1
 1 C  dxz             0.0       0.0       0.0       0.1       0.1       0.0
 2 H  s               0.0       2.7       0.0       2.4       0.7       1.1
 3 C  s               0.5       0.0       0.7       0.1       0.1       0.4
 3 C  pz              0.6       0.0       1.0       0.7       0.1       0.0
 3 C  px             11.0       0.0       0.6       0.0       7.8       1.7
 3 C  py              5.0       1.2       0.6       4.8       0.1       4.1
 3 C  dz2             0.0       0.0       0.0       0.0       0.2       0.1
 3 C  dyz             0.0       0.0       0.0       0.2       0.1       0.1
 3 C  dx2y2           0.0       0.0       0.0       0.0       0.0       0.1
 4 H  s               7.8       0.0       0.0       0.0       3.3       1.2
 5 C  s               0.1       0.0       0.1       0.3       0.2       0.2
 5 C  pz              1.2       0.0       0.1       0.0       0.1       0.3
 5 C  px              1.6       1.3       1.7       0.0       4.5       0.3
 5 C  py              0.5       0.2      19.2       0.3       1.4       5.8
 5 C  dxz             0.0       0.0       0.0       0.0       0.0       0.1
 5 C  dx2y2           0.0       0.0       0.2       0.0       0.0       0.0
 5 C  dxy             0.2       0.0       0.0       0.0       0.0       0.1
 6 H  s               0.2       0.0      11.0       0.0       1.2       3.0
 7 C  s               1.0       0.1       0.1       0.5       0.2       0.5
 7 C  pz             12.4       7.3       1.1       0.1       0.0       3.4
 7 C  px              0.3       2.6       0.0       0.0       1.7       9.7
 7 C  py              0.9       1.2       1.3       2.4       0.2       0.2
 7 C  dxz             0.2       0.1       0.0       0.1       0.0       0.2
 7 C  dx2y2           0.0       0.0       0.2       0.0       0.1       0.0
 7 C  dxy             0.0       0.1       0.0       0.0       0.0       0.0
 8 H  s               4.9       4.6       0.5       0.2       0.4       6.8
 9 C  s               0.3       0.1       0.1       0.3       0.4       0.0
 9 C  pz              0.3       0.0       1.0       0.4       0.6       0.3
 9 C  px              0.0       4.7       0.1       0.0       0.5       0.3
 9 C  py              2.8       6.7       3.5       1.5       0.1       0.0
 9 C  dz2             0.0       0.1       0.0       0.4       0.0       0.0
 9 C  dxz             0.1       0.0       0.0       0.1       0.0       0.1
 9 C  dyz             0.2       0.0       0.0       0.0       0.2       0.0
 9 C  dx2y2           0.0       0.0       0.0       0.0       0.0       0.2
10 H  s               0.8       4.6       0.0       0.2       0.2       0.0
11 O  s               1.8       0.1       0.0       0.7       1.1       0.3
11 O  pz              1.9       0.0       0.1      11.3       0.9       1.4
11 O  px              0.4       2.8       0.7       3.7       0.1       1.9
11 O  py              1.6       1.0       2.0       0.3       5.6       6.3
12 O  s               0.5       1.7       1.9       2.2       2.0       0.1
12 O  pz              6.9       2.1       8.9       3.6      10.3       1.2
12 O  px              0.0       1.0       0.0       0.9       1.0       0.3
12 O  py              0.3       3.6       3.6       6.9       4.0       0.0
13 O  s               0.0       0.0       0.3       0.2       0.3       0.6
13 O  pz             13.9       4.4       0.0       1.2       0.0       3.5
13 O  px              0.6       0.1       0.7       0.9       2.5       6.0
13 O  py              0.4       2.1       0.7       0.3       0.1       1.0
13 O  dxz             0.1       0.1       0.0       0.0       0.0       0.1
14 O  s               0.9       0.2       0.3       1.0       0.8       0.3
14 O  pz              0.8       0.1       4.5       2.1       4.9       4.6
14 O  px              1.1       0.4       0.2       0.0       0.7       0.0
14 O  py              0.3       1.0       2.5       0.8       0.9       0.6
15 O  s               0.3       0.2       0.0       0.2       0.9       0.1
15 O  pz              1.3       0.3       0.5       7.4       0.0       0.5
15 O  px              3.0       0.2       0.0       0.0       3.4       2.9
15 O  py              0.3       0.3       0.2       0.2       3.5       0.2
16 O  s               0.3       0.9       0.1       0.0       0.2       0.5
16 O  pz              0.5       0.9       0.0       0.3       3.2       0.8
16 O  px              0.0       4.4       1.7       4.5       2.2       0.9
16 O  py              0.1       3.2       4.8       0.8       1.2       5.8
17 H  s               0.7       1.2       2.1       2.3       2.8       1.2
18 H  s               0.1       5.0       4.6       4.1       0.3       2.5
19 H  s               0.1       0.4       0.4       1.7       0.7       0.0
20 H  s               3.2       1.2       0.0       0.4       0.1       0.3
21 H  s               0.1       0.1       0.8       0.3       0.1       0.2
22 H  s               0.0       0.0       0.1       0.3       1.0       0.4
23 H  s               0.0       0.3       0.4       0.6       0.0       0.0

                     36        37        38        39        40        41   
                  -0.33870  -0.32887  -0.31517  -0.30071  -0.28214  -0.27383
                   2.00000   2.00000   2.00000   2.00000   2.00000   2.00000
                  --------  --------  --------  --------  --------  --------
 0 C  s               0.2       0.0       0.3       0.4       0.1       0.0
 0 C  pz              2.3       0.0       0.6       3.2       0.2       0.4
 0 C  px              0.6       0.0       0.2       0.3       0.6       0.0
 0 C  py              0.0       0.0       0.4       3.4       0.0       0.1
 0 C  dz2             0.2       0.0       0.0       0.0       0.0       0.0
 0 C  dxz             0.0       0.0       0.1       0.9       0.0       0.0
 1 C  s               0.3       0.7       0.0       0.9       0.1       0.0
 1 C  pz              8.2       0.2       0.0       0.7       0.0       2.2
[...]
 3 C  dz2             0.0       1.3       4.1       2.0       0.8       0.0
 3 C  dxz             0.0       0.0       0.1       0.2       0.3       0.0
 3 C  dyz             0.1       0.6       2.0       1.3       1.4       0.0
 3 C  dx2y2           0.0       0.0       0.1       0.0       0.0       0.1
 3 C  dxy             0.0       0.0       0.0       0.0       0.2       0.0
 5 C  s               0.1       0.0       1.0       0.1       1.3       0.0
 5 C  pz              0.1       0.0       1.0       0.1       2.4       0.0
 5 C  dz2             0.4       0.0       4.9       0.3       5.7       0.0
 5 C  dxz             0.0       0.2       0.0       0.8       0.3       0.1
 5 C  dyz             0.0       0.0       0.1       0.0       0.9       0.0
 6 H  s               0.0       0.0       0.0       0.0       0.1       0.0
 7 C  s               0.2       0.2       0.4       1.4       0.5       0.0
 7 C  pz              0.1       0.1       0.3       1.7       0.9       0.0
 7 C  px              0.0       0.1       0.0       0.2       0.2       0.0
 7 C  py              0.0       0.0       0.1       0.3       0.1       0.1
 7 C  dz2             0.0       0.0       1.0       4.4       1.4       0.0
 7 C  dxz             0.2       0.1       1.1       1.2       0.2       0.0
 7 C  dyz             0.4       1.3       0.1       0.7       1.8       0.1
 7 C  dx2y2           0.0       0.1       0.0       0.1       0.1       0.0
 9 C  s               0.8       0.5       0.1       0.6       0.0       1.7
 9 C  pz              0.5       2.1       0.0       0.6       0.0       0.6
 9 C  px              0.1       0.1       0.0       0.1       0.0       2.0
 9 C  py              0.1       0.1       0.0       0.2       0.0       0.1
 9 C  dz2             1.6       3.2       0.0       3.2       0.1       0.2
 9 C  dxz             0.0       1.2       0.0       0.0       0.2       3.4
 9 C  dyz             1.6       3.7       0.1       0.2       0.2       0.0
 9 C  dx2y2           0.0       0.3       0.0       0.0       0.0       2.6
11 O  s               0.0       0.8       0.2       0.0       0.0       0.0
11 O  pz              0.0       0.1       0.0       0.0       0.0       0.2
11 O  px              0.2       0.1       0.0       0.0       0.0       6.2
11 O  py              0.1       0.0       0.0       0.0       0.0       0.4
11 O  dz2             0.6       0.1       0.6       0.2       0.2       2.9
11 O  dxz             0.0       2.6       0.0       0.0       0.0      34.1
11 O  dyz             0.0       0.1       0.0       0.0       0.0       0.3
11 O  dx2y2           0.2       3.2       0.0       0.5       0.9       2.6
11 O  dxy             5.4       0.8       0.1       0.2       1.0      23.1
12 O  s               1.0       1.7       0.0       1.3       0.0       0.0
12 O  pz              0.8       1.6       0.1       0.6       0.0       0.0
12 O  py              0.3       0.7       0.0       0.5       0.0       0.0
12 O  dz2            10.1      26.5       0.4       6.3       0.1       0.1
12 O  dxz             0.1       0.2       0.0       0.3       0.1       0.1
12 O  dyz             3.8       7.0       0.1       6.1       0.2       0.0
12 O  dx2y2           0.0       0.0       0.0       0.1       0.1       0.1
13 O  s               0.0       0.1       0.4       2.8       1.4       0.0
13 O  pz              0.1       0.2       0.7       2.0       1.1       0.0
13 O  py              0.0       0.0       0.1       0.3       0.0       0.0
13 O  dz2             1.8       3.6       4.9      13.4       8.4       0.0
13 O  dxz             0.2       0.9       1.3       8.2       5.5       0.0
13 O  dyz             0.1       0.0       3.4       9.5       1.7       0.2
13 O  dx2y2           0.0       0.0       0.3       0.3       0.1       0.1
13 O  dxy             0.0       0.0       0.3       1.1       0.2       0.2
14 O  s               0.0       0.0       0.9       0.1       3.3       0.0
14 O  pz              0.1       0.0       1.3       0.2       2.5       0.0
14 O  py              0.1       0.0       0.4       0.1       0.3       0.0
14 O  dz2             1.9       0.0      19.9       3.1      33.9       0.1
14 O  dxz             0.1       0.3       1.8       0.5       1.5       0.0
14 O  dyz             0.3       0.0       1.7       0.3       0.5       0.0
14 O  dx2y2           0.0       0.0       0.1       0.1       0.2       0.0
14 O  dxy             0.0       0.0       0.3       0.1       0.0       0.0
15 O  s               0.0       0.7       2.0       1.6       1.2       0.1
15 O  pz              0.0       0.4       1.2       0.6       0.7       0.0
15 O  py              0.0       0.3       1.0       0.5       0.4       0.0
15 O  dz2             0.2       4.8      13.0       7.3       7.1       0.1
15 O  dxz             0.0       0.1       1.1       0.0       0.2       0.0
15 O  dyz             0.0       4.8      13.4       6.7       4.3       0.2
15 O  dx2y2           0.0       0.1       0.4       0.3       0.1       0.1
16 O  s               2.6       0.9       0.4       0.1       0.0       0.5
16 O  pz              0.1       0.0       0.0       0.0       0.0       0.0
16 O  px              2.5       0.9       0.3       0.1       0.0       0.3
16 O  py              0.3       0.1       0.0       0.0       0.0       0.0
16 O  dz2            13.1       4.2       1.3       0.2       0.0       0.6
16 O  dxz             0.7       0.6       0.0       0.0       0.0       0.6
16 O  dx2y2          13.1       4.8       1.6       0.5       0.0       2.1
16 O  dxy            18.2       4.8       2.1       0.3       0.0       0.7
19 H  s               0.1       0.5       0.0       0.1       0.0       0.0
20 H  s               0.0       0.1       0.1       0.4       0.2       0.0
21 H  s               0.0       0.0       0.3       0.1       0.4       0.0
22 H  s               0.0       0.1       0.3       0.1       0.1       0.0
23 H  s               0.4       0.2       0.0       0.0       0.0       0.0



                      *****************************
                      * MAYER POPULATION ANALYSIS *
                      *****************************

  NA   - Mulliken gross atomic population
  ZA   - Total nuclear charge
  QA   - Mulliken gross atomic charge
  VA   - Mayer's total valence
  BVA  - Mayer's bonded valence
  FA   - Mayer's free valence

  ATOM       NA         ZA         QA         VA         BVA        FA
  0 C      5.9670     6.0000     0.0330     3.9598     3.9598    -0.0000
  1 C      5.9730     6.0000     0.0270     4.0117     4.0117     0.0000
  2 H      0.9280     1.0000     0.0720     0.9872     0.9872     0.0000
  3 C      5.9763     6.0000     0.0237     3.9064     3.9064     0.0000
  4 H      0.9122     1.0000     0.0878     0.9957     0.9957     0.0000
  5 C      5.9594     6.0000     0.0406     4.0646     4.0646     0.0000
  6 H      0.9356     1.0000     0.0644     0.9730     0.9730     0.0000
  7 C      5.9679     6.0000     0.0321     4.0130     4.0130    -0.0000
  8 H      0.9114     1.0000     0.0886     0.9643     0.9643     0.0000
  9 C      5.8279     6.0000     0.1721     4.1355     4.1355     0.0000
 10 H      0.9214     1.0000     0.0786     0.9709     0.9709     0.0000
 11 O      8.3063     8.0000    -0.3063     2.1831     2.1831     0.0000
 12 O      8.4131     8.0000    -0.4131     2.0496     2.0496     0.0000
 13 O      8.4247     8.0000    -0.4247     2.0119     2.0119    -0.0000
 14 O      8.4166     8.0000    -0.4166     2.0370     2.0370    -0.0000
 15 O      8.4195     8.0000    -0.4195     2.0293     2.0293    -0.0000
 16 O      8.4216     8.0000    -0.4216     2.0242     2.0242    -0.0000
 17 H      0.9285     1.0000     0.0715     0.9603     0.9603    -0.0000
 18 H      0.9230     1.0000     0.0770     1.0153     1.0153     0.0000
 19 H      0.6862     1.0000     0.3138     0.8890     0.8890     0.0000
 20 H      0.7027     1.0000     0.2973     0.9402     0.9402     0.0000
 21 H      0.6828     1.0000     0.3172     0.9207     0.9207    -0.0000
 22 H      0.6925     1.0000     0.3075     0.8849     0.8849    -0.0000
 23 H      0.7026     1.0000     0.2974     0.8844     0.8844    -0.0000

  Mayer bond orders larger than 0.100000
B(  0-C ,  1-C ) :   1.0371 B(  0-C , 16-O ) :   1.0543 B(  0-C , 17-H ) :   0.9124 
B(  0-C , 18-H ) :   0.9013 B(  1-C ,  2-H ) :   0.8937 B(  1-C ,  3-C ) :   0.9961 
B(  1-C , 11-O ) :   0.9903 B(  3-C ,  4-H ) :   0.8827 B(  3-C ,  5-C ) :   0.9577 
B(  3-C , 15-O ) :   1.0090 B(  5-C ,  6-H ) :   0.9044 B(  5-C ,  7-C ) :   0.9840 
B(  5-C , 14-O ) :   1.0920 B(  7-C ,  8-H ) :   0.8925 B(  7-C ,  9-C ) :   0.9918 
B(  7-C , 13-O ) :   1.0659 B(  9-C , 10-H ) :   0.9050 B(  9-C , 11-O ) :   1.0703 
B(  9-C , 12-O ) :   1.0610 B( 12-O , 19-H ) :   0.8299 B( 13-O , 20-H ) :   0.8101 
B( 14-O , 21-H ) :   0.7988 B( 15-O , 22-H ) :   0.8402 B( 16-O , 23-H ) :   0.8500 


-------
TIMINGS
-------

Total SCF time: 0 days 0 hours 0 min 6 sec 

Total time                  ....       6.223 sec
Sum of individual times     ....       6.139 sec  ( 98.7%)

SCF preparation             ....       0.083 sec  (  1.3%)
Fock matrix formation       ....       5.853 sec  ( 94.1%)
  Startup                   ....       0.007 sec  (  0.1% of F)
  Split-RI-J                ....       3.078 sec  ( 52.6% of F)
  XC integration            ....       2.695 sec  ( 46.0% of F)
    Basis function eval.    ....       1.116 sec  ( 41.4% of XC)
    Density eval.           ....       0.624 sec  ( 23.1% of XC)
    XC-Functional eval.     ....       0.161 sec  (  6.0% of XC)
    XC-Potential eval.      ....       0.632 sec  ( 23.5% of XC)
Diagonalization             ....       0.000 sec  (  0.0%)
Density matrix formation    ....       0.027 sec  (  0.4%)
Total Energy calculation    ....       0.002 sec  (  0.0%)
Population analysis         ....       0.062 sec  (  1.0%)
Orbital Transformation      ....       0.016 sec  (  0.3%)
Orbital Orthonormalization  ....       0.000 sec  (  0.0%)
DIIS solution               ....       0.076 sec  (  1.2%)
  MO trafo                  ....       0.000 sec  (  0.0 % of DIIS)
  Orb grad                  ....       0.000 sec  (  0.0 % of DIIS)
  Energy W gradient         ....       0.000 sec  (  0.0 % of DIIS)
  DIIS error                ....       0.006 sec  (  7.9 % of DIIS)
  DIIS work                 ....       0.061 sec  ( 80.1 % of DIIS)
  Form Q                    ....       0.000 sec  (  0.0 % of DIIS)
  Form QpQm                 ....       0.000 sec  (  0.0 % of DIIS)
  Exp/Cayley                ....       0.000 sec  (  0.0 % of DIIS)
  Orb update                ....       0.000 sec  (  0.0 % of DIIS)
  Wake-sleep                ....       0.001 sec  (  1.5 % of DIIS)
SOSCF solution              ....       0.020 sec  (  0.3%)
  MO trafo                  ....       0.012 sec  ( 61.9 % of SOSCF)
  Orb grad                  ....       0.000 sec  (  0.9 % of SOSCF)
  Rot update                ....       0.002 sec  (  7.6 % of SOSCF)
  Step                      ....       0.006 sec  ( 29.2 % of SOSCF)
Finished LeanSCF after   6.2 sec

Maximum memory used throughout the entire LEANSCF-calculation: 19.1 MB


-------------------------------------------------------------------------------
                          DFT DISPERSION CORRECTION                            
                                                                               
                                DFTD4 V3.4.0                                   
-------------------------------------------------------------------------------
The PBE functional is recognized
Active option DFTDOPT                   ...         5   

-------------------------   ----------------
Dispersion correction           -0.025987991
-------------------------   ----------------

------------------   -----------------
gCP correction             0.159634801
------------------   -----------------

-------------------------   --------------------
FINAL SINGLE POINT ENERGY      -685.699247401586
-------------------------   --------------------


------------------------------------------------------------------------------
                              ORCA PROPERTY CALCULATIONS
------------------------------------------------------------------------------

GBWName                                 ... sp.gbw
Number of atoms                         ...     24
Number of basis functions               ...    192
Max core memory                         ...   1024 MB

Electric properties:
Dipole moment                           ... YES
Quadrupole moment                       ...  NO
Static polarizability (Dipole/Dipole)   ...  NO
Static polarizability (Dipole/Quad.)    ...  NO
Static polarizability (Quad./Quad.)     ...  NO
Static polarizability (Velocity)        ...  NO

Atomic electric properties:
Dipole moment                           ...  NO
Quadrupole moment                       ...  NO
Static polarizability                   ...  NO

Choice of electric origin               ... Center of mass
Position of electric origin             ...    -0.000003    -0.000001    -0.000001

General magnetic properties:
Magnetizability                         ...  NO

EPR properties:
g-Tensor (aka g-matrix)                 ...  NO
Zero-Field splitting spin-orbit         ...  NO
Zero-field splitting spin-spin          ...  NO
Hyperfine couplings                     ...  NO (   0 nuclei)
Quadrupole couplings                    ...  NO (   0 nuclei)
Contact density                         ...  NO (   0 nuclei)

NMR properties:
Chemical shifts                         ...  NO (   0 nuclei)
Spin-rotation constants                 ...  NO (   0 nuclei)
Spin-spin couplings                     ...  NO (   0 nuclei,    0 pairs)

Choice of magnetic origin               ... GIAO
Position of magnetic origin             ...     0.000000     0.000000     0.000000

Properties with geometric perturbations:
SCF Hessian                             ...  NO
IR spectrum                             ...  NO
VCD spectrum                            ...  NO
X-ray spectroscopy properties:
SCF XES/XAS/RIXS spectra                ...  NO


-------------
DIPOLE MOMENT
-------------

Method             : SCF
Type of density    : Electron Density
Multiplicity       :   1
Irrep              :   0
Energy             :  -685.8328942111231754 Eh
Relativity type    : 
Basis              : AO
                                X                 Y                 Z
Electronic contribution:      1.532631453       0.097933677       1.121020409
Nuclear contribution   :     -1.963422594      -0.734171782      -0.777674557
                        -----------------------------------------
Total Dipole Moment    :     -0.430791141      -0.636238105       0.343345852
                        -----------------------------------------
Magnitude (a.u.)       :      0.841585592
Magnitude (Debye)      :      2.139140574



--------------------
Rotational spectrum 
--------------------
 
Rotational constants in cm-1:             0.040793             0.028550             0.024715 
Rotational constants in MHz :          1222.953654           855.894141           740.930181 

Dipole components along the rotational axes: 
x,y,z [a.u.] :    -0.488022     0.169257     0.664419 
x,y,z [Debye]:    -1.240454     0.430218     1.688819 

 

Dipole moment calculation done in   0.0 sec 

Maximum memory used throughout the entire PROP-calculation: 12.8 MB

--------------------------------
SUGGESTED CITATIONS FOR THIS RUN
--------------------------------

Below you find a list of papers that are relevant to this ORCA run
We neither can nor want to force you to cite these papers, but we appreciate if you do
You receive ORCA, which is the product of decades of hard work by many enthusiastic individuals, for free
The only thing we kindly ask in return is that you cite our papers,
We deeply appreciate it, if you show your appreciation for ORCA by not just citing the generic ORCA reference.

Please note that relegating all ORCA citations to the supporting information does *not* help us.
SI sections are not indexed - citations you put there will not count into any citation statistics
But we need these citations in order to attract the funding resources that allow us to do what we are doing

Therefore, if you are a happy ORCA user, please consider citing a few of the papers listed below in the main body of your paper

In addition to the list printed below, the program has created the file sp.bibtex that contains the list in bibtex format
You can import this file easily into all common literature databanks and citation aid programs


List of essential papers. We consider these as the minimum necessary citations

  1. Neese,F.
     Software update: the ORCA program system, version 5.0
     WIRES Comput. Molec. Sci., 2022 12(1)e1606
     doi.org/10.1002/wcms.1606

List of papers to cite with high priority. The work reported in these papers was absolutely
necessary for this run to complete.
Our perspective: the developers of density functionals and basis sets usually get cited in chemistry papers
Good! But without the algorithms to do something with them, the functionals or basis sets would not do anything.
Hence, in our opinion, the algorithm design and method developments papers are equally worthy of getting cited

  1. Neese,F.
     An improvement of the resolution of the identity approximation for the formation of the Coulomb matrix
     J. Comp. Chem., 2003 24(14)1740-1747
     doi.org/10.1002/jcc.10318
  2. Neese,F.
     The SHARK Integral Generation and Digestion System
     J. Comp. Chem., 2022  1-16
     doi.org/10.1002/jcc.26942
  3. Caldeweyher,E.; Bannwarth,C.; Grimme,S.
     Extension of the D3 dispersion coefficient model
     J. Chem. Phys., 2017 147 034112
     doi.org/10.1063/1.4993215
  4. Caldeweyher,E.; Ehlert,S.; Hansen,A.; Neugebauer,H.; Spicher,S.; Bannwarth,C.; Grimme,S.
     A generally applicable atomic-charge dependent London dispersion correction
     J. Chem. Phys., 2019 150 154122
     doi.org/10.1063/1.5090222
  5. Caldeweyher,E.; Mewes,J.; Ehlert,S.; Grimme,S.
     Extension and evaluation of the D4 London-dispersion model for periodic systems
     Phys. Chem. Chem. Phys., 2020 22(16)8499-8512
     doi.org/10.1039/D0CP00502A
  6. Wittmann,L.; Gordiy,I.; Friede,M.; Helmich-Paris,B.; Grimme,S.; Hansen,A.; Bursch,M.
     Extension of the D3 and D4 London Dispersion Corrections to the full Actinides Series
     Phys. Chem. Chem. Phys., 2024 26(32)21379-21394
     doi.org/https://doi.org/10.1039/D4CP01514B 

List of suggested additional citations. These are papers that are important in the 'surrounding' of 
of this run, or papers that preceded the highly important papers. If you like your results we are grateful for a citation.

  1. Neese,F.
     The ORCA program system
     WIRES Comput. Molec. Sci., 2012 2(1)73-78
     doi.org/10.1002/wcms.81
  2. Neese,F.
     Software update: the ORCA program system, version 4.0
     WIRES Comput. Molec. Sci., 2018 8(1)1-6
     doi.org/10.1002/wcms.1327
  3. Neese,F.; Wennmohs,F.; Becker,U.; Riplinger,C.
     The ORCA quantum chemistry program package
     J. Chem. Phys., 2020 152 Art. No. L224108
     doi.org/10.1063/5.0004608

List of optional additional citations

  1. Neese,F.
     Approximate second-order SCF convergence for spin unrestricted wavefunctions
     Chem. Phys. Lett., 2000 325(1-3)93-98
     doi.org/10.1016/s0009-2614(00)00662-x

Timings for individual modules:

Sum of individual times          ...        7.741 sec (=   0.129 min)
Startup calculation              ...        0.668 sec (=   0.011 min)   8.6 %
SCF iterations                   ...        7.004 sec (=   0.117 min)  90.5 %
Property calculations            ...        0.069 sec (=   0.001 min)   0.9 %
                             ****ORCA TERMINATED NORMALLY****
TOTAL RUN TIME: 0 days 0 hours 0 minutes 8 seconds 21 msec
