13
 energy: -24.182904427192 gnorm: 0.016839336351 xtb: 6.7.1 (edcfbbe)
C           -0.73258922030087       -1.20941665340781       -0.00002245020769
C            0.65977282220295       -1.21313788365965       -0.00000818540058
C            1.32957229356861       -0.00249955023531        0.00001437877130
C            0.65608599793853        1.20863319990195        0.00003196248391
C           -0.73324269375695        1.20766478377341        0.00001536138458
C           -1.42924544910972       -0.00095536971050       -0.00001819107854
O           -2.79671418697499        0.06496619074561       -0.00003962230970
F            2.68459430626559       -0.00096450612062        0.00002317175773
H           -1.27306613180740       -2.15266752740534       -0.00003369033975
H            1.21974631074640       -2.14150860616359       -0.00001108941663
H            1.21691542106173        2.13661329465469        0.00005626077312
H           -1.29044021702939        2.13792655880082        0.00002620853914
H           -3.15736492358593       -0.82827520886808       -0.00012428430386
13
 energy: -24.183299944074 gnorm: 0.006489971264 xtb: 6.7.1 (edcfbbe)
C           -0.73180106546198       -1.20346409593458       -0.00002616546240
C            0.65299138761894       -1.20901665429057       -0.00000719956437
C            1.32478353474209       -0.00193595534918        0.00001905028129
C            0.65398907833448        1.20806038381660        0.00003124682875
C           -0.72787906215168        1.20686830824229        0.00001113902718
C           -1.42506601787831        0.00139085088994       -0.00002033186247
O           -2.78705524430752        0.05777564160060       -0.00004042821107
F            2.67799443624987       -0.00338207783515        0.00003256604436
H           -1.27188009891343       -2.14163119290188       -0.00004719357643
H            1.20711854555891       -2.13527210345049       -0.00001338176011
H            1.21197126945778        2.13200882137853        0.00005512838673
H           -1.28351183527301        2.13159077308031        0.00002024134202
H           -3.14763059875760       -0.83661397694086       -0.00010484082043
13
 energy: -24.183330729412 gnorm: 0.002484143057 xtb: 6.7.1 (edcfbbe)
C           -0.73155774793019       -1.20134635736806       -0.00003078022589
C            0.65171627362858       -1.20799281260446       -0.00000896816452
C            1.32484865646239       -0.00193148387162        0.00002105867893
C            0.65387143805649        1.20803893672446        0.00003106990079
C           -0.72632115440732        1.20722883958385        0.00000877646438
C           -1.42541342822760        0.00280015955826       -0.00002290464010
O           -2.78442245952125        0.05452898861873       -0.00004239209370
F            2.67721407682540       -0.00460411645389        0.00004108438577
H           -1.27248363526396       -2.13765480162876       -0.00005444164619
H            1.20419255285603       -2.13376175945668       -0.00001450909487
H            1.21108573812413        2.13079564007495        0.00005527678463
H           -1.28239351418448        2.13008620972105        0.00001566650101
H           -3.14631246719967       -0.83980872059227       -0.00008910619722
13
 energy: -24.183334734812 gnorm: 0.000800356683 xtb: 6.7.1 (edcfbbe)
C           -0.73131581516224       -1.20086155571134       -0.00003264909042
C            0.65193209939964       -1.20794038820723       -0.00000932149399
C            1.32554666126962       -0.00200704619488        0.00002228318896
C            0.65401199898261        1.20792880054536        0.00003104958204
C           -0.72609251909359        1.20741660823626        0.00000749684034
C           -1.42621509985132        0.00327360174353       -0.00002436692094
O           -2.78404609042678        0.05359306872483       -0.00004499958798
F            2.67758008252049       -0.00483581320011        0.00004478630012
H           -1.27292713564500       -2.13681218012363       -0.00005801181534
H            1.20420655838568       -2.13381711442993       -0.00001548163790
H            1.21113084871231        2.13070084078414        0.00005569226700
H           -1.28262471080573        2.13008284985745        0.00001364212653
H           -3.14716254906713       -0.84034294971889       -0.00008028910539
13
 energy: -24.183335303202 gnorm: 0.000374660934 xtb: 6.7.1 (edcfbbe)
C           -0.73097406546304       -1.20079133828597       -0.00003429095877
C            0.65236983670972       -1.20807021843021       -0.00000990736664
C            1.32618294657398       -0.00205598914170        0.00002277668738
C            0.65409690180393        1.20770463750695        0.00003129083295
C           -0.72614951723503        1.20739143632966        0.00000679097264
C           -1.42685833858567        0.00336428890032       -0.00002589458471
O           -2.78407481780505        0.05334657638295       -0.00004839789439
F            2.67803281412304       -0.00464757787720        0.00004711580173
H           -1.27313623223533       -2.13675667742896       -0.00005996345385
H            1.20469893164471       -2.13418627626455       -0.00001584742019
H            1.21119162886442        2.13080983895626        0.00005661272500
H           -1.28290008866238        2.13031904253664        0.00001235907435
H           -3.14845567051475       -0.84004902087862       -0.00007281376246
13
 energy: -24.183335406917 gnorm: 0.000033984219 xtb: 6.7.1 (edcfbbe)
C           -0.73098261081903       -1.20087288266537       -0.00003398701888
C            0.65230704780303       -1.20806304055071       -0.00000969187448
C            1.32603860435137       -0.00202836999686        0.00002267220452
C            0.65404998896946        1.20769570547099        0.00003129098994
C           -0.72618733052005        1.20731198045756        0.00000687617652
C           -1.42666458255405        0.00324018864608       -0.00002587112890
O           -2.78409496514369        0.05351651461205       -0.00004868169593
F            2.67794602013771       -0.00455560738853        0.00004642747035
H           -1.27301472053907       -2.13688060715307       -0.00005956748764
H            1.20462765341205       -2.13415196679241       -0.00001572915313
H            1.21111119412661        2.13079884386800        0.00005674664336
H           -1.28276487417395        2.13028021255786        0.00001275820592
H           -3.14834709583184       -0.83991224876001       -0.00007341267862
13
 energy: -24.183335408845 gnorm: 0.000011879257 xtb: 6.7.1 (edcfbbe)
C           -0.73096901634390       -1.20086833505344       -0.00003423211437
C            0.65230657573367       -1.20805800570390       -0.00000979593398
C            1.32604811546963       -0.00202402893982        0.00002268406933
C            0.65404613820767        1.20768588340539        0.00003135595594
C           -0.72619173817583        1.20730044437668        0.00000683891449
C           -1.42665833832113        0.00323054684087       -0.00002609895644
O           -2.78407381199620        0.05350086772226       -0.00004921249428
F            2.67795105411266       -0.00454388872209        0.00004664374010
H           -1.27300498757992       -2.13686105961971       -0.00005978529039
H            1.20460608565341       -2.13414510686271       -0.00001567820409
H            1.21107721312717        2.13079107475235        0.00005690463242
H           -1.28272290528503        2.13027514657925        0.00001261868992
H           -3.14839005538365       -0.83990481646957       -0.00007241235562
