
                                 *****************
                                 * O   R   C   A *
                                 *****************

                                            #,                                       
                                            ###                                      
                                            ####                                     
                                            #####                                    
                                            ######                                   
                                           ########,                                 
                                     ,,################,,,,,                         
                               ,,#################################,,                 
                          ,,##########################################,,             
                       ,#########################################, ''#####,          
                    ,#############################################,,   '####,        
                  ,##################################################,,,,####,       
                ,###########''''           ''''###############################       
              ,#####''   ,,,,##########,,,,          '''####'''          '####       
            ,##' ,,,,###########################,,,                        '##       
           ' ,,###''''                  '''############,,,                           
         ,,##''                                '''############,,,,        ,,,,,,###''
      ,#''                                            '''#######################'''  
     '                                                          ''''####''''         
             ,#######,   #######,   ,#######,      ##                                
            ,#'     '#,  ##    ##  ,#'     '#,    #''#        ,####,   ,####,        
            ##       ##  ##   ,#'  ##            #'  '#       #'       #'  '#        
            ##       ##  #######   ##           ,######,      #####,   #    #        
            '#,     ,#'  ##    ##  '#,     ,#' ,#      #,     #,   #   #,  ,#        
             '#######'   ##     ##  '#######'  #'      '#     '####' # '####'        



                #########################################################
                #                        -***-                          #
                #          Department of theory and spectroscopy        #
                #                                                       #
                #                      Frank Neese                      #
                #                                                       #
                #     Directorship, Architecture, Infrastructure        #
                #                    SHARK, DRIVERS                     #
                #        Core code/Algorithms in most modules           #
                #                                                       #
                #        Max Planck Institute fuer Kohlenforschung      #
                #                Kaiser Wilhelm Platz 1                 #
                #                 D-45470 Muelheim/Ruhr                 #
                #                      Germany                          #
                #                                                       #
                #                  All rights reserved                  #
                #                        -***-                          #
                #########################################################


                         Program Version 6.0.1  -  RELEASE   -


 With contributions from (in alphabetic order):
[Max-Planck-Institut fuer Kohlenforschung]                               
  Daniel Aravena         : Magnetic Suceptibility                        
  Michael Atanasov       : Ab Initio Ligand Field Theory (pilot matlab implementation)
  Alexander A. Auer      : GIAO ZORA, VPT2 properties, NMR spectrum      
  Ute Becker             : All parallelization in ORCA, NUMFREQ, NUMCALC 
  Giovanni Bistoni       : ED, misc. LED, open-shell LED, HFLD           
  Martin Brehm           : Molecular dynamics                            
  Dmytro Bykov           : pre 5.0 version of the SCF Hessian            
  Marcos Casanova-Páez   : Triplet and SCS-CIS(D). UHF-(DLPNO)-IP/EA/STEOM-CCSD. UHF-CVS-IP/STEOM-CCSD   
  Vijay G. Chilkuri      : MRCI spin determinant printing, contributions to CSF-ICE 
  Pauline Colinet        : FMM embedding                                 
  Dipayan Datta          : RHF DLPNO-CCSD density                        
  Achintya Kumar Dutta   : EOM-CC, STEOM-CC                              
  Nicolas Foglia         : Exact transition moments, OPA infrastructure, MCD improvements    
  Dmitry Ganyushin       : Spin-Orbit,Spin-Spin,Magnetic field MRCI      
  Miquel Garcia-Rates    : C-PCM and meta-GGA Hessian, CCSD/C-PCM, Gaussian charge scheme 
  Tiago L. C. Gouveia    : GS-ROHF, GS-ROCIS                             
  Yang Guo               : DLPNO-NEVPT2, F12-NEVPT2, CIM, IAO-localization        
  Andreas Hansen         : Spin unrestricted coupled pair/coupled cluster methods 
  Ingolf Harden          : AUTO-CI MPn and infrastructure                
  Benjamin Helmich-Paris : MC-RPA, TRAH-(SCF,CASSCF), AVAS, COSX integrals, SCF dyn. polar. 
  Lee Huntington         : MR-EOM, pCC                                   
  Robert Izsak           : Overlap fitted RIJCOSX, COSX-SCS-MP3, EOM     
  Riya Kayal             : Wick's Theorem for AUTO-CI, AUTO-CI UHF-CCSDT 
  Emily Kempfer          : AUTO-CI, RHF CISDT and CCSDT                  
  Christian Kollmar      : KDIIS, OOCD, Brueckner-CCSD(T), CCSD density, CASPT2, CASPT2-K, improved NEVPT2 
  Axel Koslowski         : Symmetry handling                             
  Simone Kossmann        : meta-GGA functionals, TD-DFT gradient, OOMP2, (MP2 Hessian; deprecated post 5.0) 
  Lucas Lang             : DCDCAS                                        
  Marvin Lechner         : AUTO-CI (C++ implementation), FIC-MRCC        
  Spencer Leger          : CASSCF response                               
  Dagmar Lenk            : GEPOL surface, SMD, ORCA-2-JSON               
  Dimitrios Liakos       : Extrapolation schemes; Compound Job, initial MDCI parallelization 
  Dimitrios Manganas     : Further ROCIS development; embedding schemes. LFT, Crystal Embedding 
  Dimitrios Pantazis     : SARC Basis sets                               
  Anastasios Papadopoulos: AUTO-CI, single reference methods and gradients 
  Taras Petrenko         : pre 6.0 DFT Hessian and TD-DFT gradient, (ASA, deprecated), ECA, 1-Electron XAS/XES, NRVS 
  Peter Pinski           : DLPNO-MP2, DLPNO-MP2 Gradient                 
  Christoph Reimann      : Effective Core Potentials                     
  Marius Retegan         : Local ZFS, SOC                                
  Christoph Riplinger    : Optimizer, TS searches, QM/MM, DLPNO-CCSD(T), (RO)-DLPNO pert. Triples 
  Michael Roemelt        : Original ROCIS implementation                 
  Masaaki Saitow         : Open-shell DLPNO-CCSD energy and density      
  Barbara Sandhoefer     : DKH picture change effects                    
  Kantharuban Sivalingam : CASSCF convergence/infrastructure, NEVPT2 and variants, FIC-MRCI 
  Bernardo de Souza      : ESD, SOC TD-DFT                               
  Georgi L. Stoychev     : AutoAux, RI-MP2 NMR, DLPNO-MP2 response, X2C  
  Van Anh Tran           : RI-MP2 g-tensors                              
  Willem Van den Heuvel  : Paramagnetic NMR                              
  Zikuan Wang            : NOTCH, Electric field optimization            
  Frank Wennmohs         : Technical directorship and infrastructure     
  Hang Xu                : AUTO-CI-Response properties                   
                                                                         
[FACCTs GmbH]                                                            
  Markus Bursch, Miquel Garcia-Rates, Christoph Riplinger, Bernardo de Souza, Georgi L. Stoychev 
                                                                 
  APM, Basis sets (HGBS, AHGBS, def-TZVP (Ac-Lr), def2-XVPD (La-Lu)), CI-OPT, improved COSX, DLPNO-Multilevel,           
  DOCKER, DRACO, updates on ESD, GOAT, IRC, LR-CPCM, MBIS, meta-GGA TD-DFT gradient, ML-optimized integration grids, 
  MM, NACMEs, nearIR, NEB, NEB-TS, NL-DFT gradient (VV10), 2- and 3-layer-ONIOM, interface openCOSMO-RS, QMMM,   
  Crystal-QMMM, SF, symmetry and pop. for TD-DFT, r2SCAN hybrids, SOLVATOR                                   
                                                                         
[Other institutions]                                                     
  V. Asgeirsson          : NEB                                           
  Christoph Bannwarth    : sTDA-DFT, sTD-DFT, PBEh-3c, B97-3c, D3        
  Sebastian Ehlert       : rSCAN, r2SCAN, r2SCAN-3c, D4, dhf basis sets  
  Marvin Friede          : D4 for Fr, Ra, Ac-Lr                          
  Lars Goerigk           : TD-DFT with DH, B97 family of functionals     
  Stefan Grimme          : VdW corrections, initial TS optimization, DFT functionals, gCP, sTDA/sTD-DF 
  Waldemar Hujo          : DFT-NL                                        
  H. Jonsson             : NEB                                           
  Holger Kruse           : gCP                                           
  Marcel Mueller         : wB97X-3c, vDZP basis set                      
  Hagen Neugebauer       : wr2SCAN                                       
  Tobias Risthaus        : range-separated hybrid DFT                    
  Lukas Wittmann         : regularized MP2, r2SCAN double-hybrids, wr2SCAN        
                                                                         
We gratefully acknowledge several colleagues who have allowed us to      
interface, adapt or use parts of their codes:                            
  Ed Valeev, F. Pavosevic, A. Kumar             : LibInt (2-el integral package), F12 methods 
  Garnet Chan, S. Sharma, J. Yang, R. Olivares  : DMRG                   
  Ulf Ekstrom                                   : XCFun DFT Library      
  Mihaly Kallay                                 : mrcc  (arbitrary order and MRCC methods)
  Frank Weinhold                                : gennbo (NPA and NBO analysis)           
  Simon Mueller                                 : openCOSMO-RS                            
  Christopher J. Cramer and Donald G. Truhlar   : smd solvation model                     
  S Lehtola, MJT Oliveira, MAL Marques          : LibXC Library                           
  Liviu Ungur et al                             : ANISO software                          


 Your calculation uses the libint2 library for the computation of 2-el integrals
 For citations please refer to: http://libint.valeyev.net

 Your ORCA version has been built with support for libXC version: 6.2.2
 For citations please refer to: https://libxc.gitlab.io

 This ORCA versions uses:
   CBLAS   interface :  Fast vector & matrix operations
   LAPACKE interface :  Fast linear algebra routines
   SCALAPACK package :  Parallel linear algebra routines
   Shared memory     :  Shared parallel matrices
   BLAS/LAPACK       :  OpenBLAS 0.3.27  USE64BITINT DYNAMIC_ARCH NO_AFFINITY Zen SINGLE_THREADED
        Core in use  :  Zen
   Copyright (c) 2011-2014, The OpenBLAS Project


Your calculation utilizes the geometrical counterpoise correction gCP
Please cite in your paper:
H.Kruse, S. Grimme J.Chem.Phys., 136, (2012), 154101 
   

Your calculation utilizes the atom-pairwise dispersion correction
based on EEQ partial charges (D4)


================================================================================

----- Orbital basis set information -----
Your calculation utilizes the basis: def2-SV(P)
   F. Weigend and R. Ahlrichs, Phys. Chem. Chem. Phys. 7, 3297 (2005).

----- AuxJ basis set information -----
Your calculation utilizes the auxiliary basis: def2/J
   F. Weigend, Phys. Chem. Chem. Phys. 8, 1057 (2006).

================================================================================
                                        WARNINGS
                       Please study these warnings very carefully!
================================================================================


================================================================================
                                       INPUT FILE
================================================================================
NAME = sp.inp
|  1> ! pbe def2-sv(p) def2/J RI DEFGRID1 loosescf d4 GCP(DFT/SV(P)) printgap
|  2> %output
|  3>     printlevel normal
|  4> end
|  5> * xyz 0 1
|  6> C -1.7082026434 -1.0433547943 -0.7130254206
|  7> C -1.0542246424 -0.5102968761 0.5779044141
|  8> H -1.7611172693 -0.6568775614 1.4114107539
|  9> C -0.740660488 0.9888333823 0.4671990933
| 10> H -1.6302374404 1.4892531417 0.0476912479
| 11> C 0.4683368353 1.2545524185 -0.4513600729
| 12> H 0.7799396119 2.2983200189 -0.2735044442
| 13> C 1.6525800621 0.3653980191 -0.0355452075
| 14> H 2.3854983335 0.3647938197 -0.8475717453
| 15> C 1.2408222579 -1.1043980444 0.1936834652
| 16> H 2.0239686763 -1.5680713702 0.8172540229
| 17> O 0.0781617565 -1.2609678514 0.97272383
| 18> O 1.1446464127 -1.7410637735 -1.0409851032
| 19> O 2.2843835228 0.880273417 1.1016794115
| 20> O 0.1890909126 1.0477698577 -1.8067787586
| 21> O -0.4119785195 1.5466877151 1.7240899829
| 22> O -2.9377845239 -0.4080447019 -0.9693098932
| 23> H -1.8335032928 -2.1296859895 -0.6158402986
| 24> H -1.0649450701 -0.8350130935 -1.5691579374
| 25> H 0.9289301506 -2.6707147095 -0.9008162437
| 26> H 1.5966596154 1.0864950968 1.7531493299
| 27> H -0.5817918785 1.5705644128 -2.0581419481
| 28> H -1.0776238767 1.2920007855 2.3732940503
| 29> H -3.581996241 -0.6802977597 -0.3058641566
| 30> *
| 31> 
| 32>                          ****END OF INPUT****
================================================================================

                       ****************************
                       * Single Point Calculation *
                       ****************************

---------------------------------
CARTESIAN COORDINATES (ANGSTROEM)
---------------------------------
  C     -1.708203   -1.043355   -0.713025
  C     -1.054225   -0.510297    0.577904
  H     -1.761117   -0.656878    1.411411
  C     -0.740660    0.988833    0.467199
  H     -1.630237    1.489253    0.047691
  C      0.468337    1.254552   -0.451360
  H      0.779940    2.298320   -0.273504
  C      1.652580    0.365398   -0.035545
  H      2.385498    0.364794   -0.847572
  C      1.240822   -1.104398    0.193683
  H      2.023969   -1.568071    0.817254
  O      0.078162   -1.260968    0.972724
  O      1.144646   -1.741064   -1.040985
  O      2.284384    0.880273    1.101679
  O      0.189091    1.047770   -1.806779
  O     -0.411979    1.546688    1.724090
  O     -2.937785   -0.408045   -0.969310
  H     -1.833503   -2.129686   -0.615840
  H     -1.064945   -0.835013   -1.569158
  H      0.928930   -2.670715   -0.900816
  H      1.596660    1.086495    1.753149
  H     -0.581792    1.570564   -2.058142
  H     -1.077624    1.292001    2.373294
  H     -3.581996   -0.680298   -0.305864

----------------------------
CARTESIAN COORDINATES (A.U.)
----------------------------
  NO LB      ZA    FRAG     MASS         X           Y           Z
   0 C     6.0000    0    12.011   -3.228035   -1.971655   -1.347423
   1 C     6.0000    0    12.011   -1.992196   -0.964321    1.092081
   2 H     1.0000    0     1.008   -3.328029   -1.241319    2.667180
   3 C     6.0000    0    12.011   -1.399645    1.868624    0.882878
   4 H     1.0000    0     1.008   -3.080702    2.814281    0.090123
   5 C     6.0000    0    12.011    0.885028    2.370760   -0.852947
   6 H     1.0000    0     1.008    1.473872    4.343195   -0.516848
   7 C     6.0000    0    12.011    3.122924    0.690502   -0.067171
   8 H     1.0000    0     1.008    4.507939    0.689360   -1.601678
   9 C     6.0000    0    12.011    2.344814   -2.087010    0.366009
  10 H     1.0000    0     1.008    3.824747   -2.963225    1.544386
  11 O     8.0000    0    15.999    0.147704   -2.382884    1.838182
  12 O     8.0000    0    15.999    2.163068   -3.290134   -1.967177
  13 O     8.0000    0    15.999    4.316859    1.663476    2.081872
  14 O     8.0000    0    15.999    0.357330    1.979998   -3.414317
  15 O     8.0000    0    15.999   -0.778527    2.922816    3.258058
  16 O     8.0000    0    15.999   -5.551608   -0.771093   -1.831730
  17 H     1.0000    0     1.008   -3.464819   -4.024523   -1.163770
  18 H     1.0000    0     1.008   -2.012455   -1.577946   -2.965279
  19 H     1.0000    0     1.008    1.755424   -5.046919   -1.702296
  20 H     1.0000    0     1.008    3.017249    2.053178    3.312972
  21 H     1.0000    0     1.008   -1.099427    2.967937   -3.889325
  22 H     1.0000    0     1.008   -2.036414    2.441528    4.484876
  23 H     1.0000    0     1.008   -6.768992   -1.285576   -0.577999

--------------------------------
INTERNAL COORDINATES (ANGSTROEM)
--------------------------------
 C      0   0   0     0.000000000000     0.00000000     0.00000000
 C      1   0   0     1.542186048461     0.00000000     0.00000000
 H      2   1   0     1.102685767458   108.35718570     0.00000000
 C      2   1   3     1.535568194066   111.32720972   240.91911586
 H      4   2   1     1.103518881665   107.78889580    46.15393983
 C      4   2   1     1.541438313964   111.80295811   286.22917687
 H      6   4   2     1.103711791497   106.76391243   194.11850654
 C      6   4   2     1.538157849013   110.06712699   309.44356359
 H      8   6   4     1.093872321480   108.39078680   164.65399965
 C      8   6   4     1.543499511496   112.65746303    46.73659920
 H     10   8   6     1.103245895592   107.14469452   199.98542123
 O     10   8   6     1.408260429028   114.09628648   313.42696714
 O     10   8   6     1.392479629153   108.79170809    79.93627261
 O      8   6   4     1.399125484856   110.77331777   282.39022869
 O      6   4   2     1.399248772142   113.28102949    72.11025149
 O      4   2   1     1.413862794404   111.62798392   167.39166424
 O      1   2   3     1.407541205527   111.52119329    57.22940074
 H      1   2   3     1.097843643850   108.44078134   294.35049238
 H      1   2   3     1.090939712460   109.92923294   175.26314276
 H     13  10   8     0.964588864602   109.10235290   177.30808897
 H     14   8   6     0.969486775882   107.70616669    48.05804696
 H     15   6   4     0.964757937253   109.37602017    54.01464830
 H     16   4   2     0.964061769183   109.50530879   310.62412038
 H     17   1   2     0.963997255879   109.32914699   291.13455183

---------------------------
INTERNAL COORDINATES (A.U.)
---------------------------
 C      0   0   0     0.000000000000     0.00000000     0.00000000
 C      1   0   0     2.914309279145     0.00000000     0.00000000
 H      2   1   0     2.083774112269   108.35718570     0.00000000
 C      2   1   3     2.901803346746   111.32720972   240.91911586
 H      4   2   1     2.085348469958   107.78889580    46.15393983
 C      4   2   1     2.912896265725   111.80295811   286.22917687
 H      6   4   2     2.085713016709   106.76391243   194.11850654
 C      6   4   2     2.906697085377   110.06712699   309.44356359
 H      8   6   4     2.067119113074   108.39078680   164.65399965
 C      8   6   4     2.916791364568   112.65746303    46.73659920
 H     10   8   6     2.084832601042   107.14469452   199.98542123
 O     10   8   6     2.661226536102   114.09628648   313.42696714
 O     10   8   6     2.631405146163   108.79170809    79.93627261
 O      8   6   4     2.643963993369   110.77331777   282.39022869
 O      6   4   2     2.644196972574   113.28102949    72.11025149
 O      4   2   1     2.671813472364   111.62798392   167.39166424
 O      1   2   3     2.659867400655   111.52119329    57.22940074
 H      1   2   3     2.074623824744   108.44078134   294.35049238
 H      1   2   3     2.061577285168   109.92923294   175.26314276
 H     13  10   8     1.822808785927   109.10235290   177.30808897
 H     14   8   6     1.832064496874   107.70616669    48.05804696
 H     15   6   4     1.823128286934   109.37602017    54.01464830
 H     16   4   2     1.821812719939   109.50530879   310.62412038
 H     17   1   2     1.821690807464   109.32914699   291.13455183

---------------------
BASIS SET INFORMATION
---------------------
There are 3 groups of distinct atoms

 Group   1 Type C   : 7s4p1d contracted to 3s2p1d pattern {511/31/1}
 Group   2 Type H   : 4s contracted to 2s pattern {31}
 Group   3 Type O   : 7s4p1d contracted to 3s2p1d pattern {511/31/1}

Atom   0C    basis set group =>   1
Atom   1C    basis set group =>   1
Atom   2H    basis set group =>   2
Atom   3C    basis set group =>   1
Atom   4H    basis set group =>   2
Atom   5C    basis set group =>   1
Atom   6H    basis set group =>   2
Atom   7C    basis set group =>   1
Atom   8H    basis set group =>   2
Atom   9C    basis set group =>   1
Atom  10H    basis set group =>   2
Atom  11O    basis set group =>   3
Atom  12O    basis set group =>   3
Atom  13O    basis set group =>   3
Atom  14O    basis set group =>   3
Atom  15O    basis set group =>   3
Atom  16O    basis set group =>   3
Atom  17H    basis set group =>   2
Atom  18H    basis set group =>   2
Atom  19H    basis set group =>   2
Atom  20H    basis set group =>   2
Atom  21H    basis set group =>   2
Atom  22H    basis set group =>   2
Atom  23H    basis set group =>   2
---------------------------------
AUXILIARY/J BASIS SET INFORMATION
---------------------------------
There are 3 groups of distinct atoms

 Group   1 Type C   : 12s5p4d2f1g contracted to 6s4p3d1f1g pattern {711111/2111/211/2/1}
 Group   2 Type H   : 5s2p1d contracted to 3s1p1d pattern {311/2/1}
 Group   3 Type O   : 12s5p4d2f1g contracted to 6s4p3d1f1g pattern {711111/2111/211/2/1}

Atom   0C    basis set group =>   1
Atom   1C    basis set group =>   1
Atom   2H    basis set group =>   2
Atom   3C    basis set group =>   1
Atom   4H    basis set group =>   2
Atom   5C    basis set group =>   1
Atom   6H    basis set group =>   2
Atom   7C    basis set group =>   1
Atom   8H    basis set group =>   2
Atom   9C    basis set group =>   1
Atom  10H    basis set group =>   2
Atom  11O    basis set group =>   3
Atom  12O    basis set group =>   3
Atom  13O    basis set group =>   3
Atom  14O    basis set group =>   3
Atom  15O    basis set group =>   3
Atom  16O    basis set group =>   3
Atom  17H    basis set group =>   2
Atom  18H    basis set group =>   2
Atom  19H    basis set group =>   2
Atom  20H    basis set group =>   2
Atom  21H    basis set group =>   2
Atom  22H    basis set group =>   2
Atom  23H    basis set group =>   2
------------------------------------------------------------------------------
                             ORCA STARTUP CALCULATIONS
                           -- RI-GTO INTEGRALS CHOSEN --
------------------------------------------------------------------------------
------------------------------------------------------------------------------
                   ___                                                        
                  /   \      - P O W E R E D   B Y -                         
                 /     \                                                     
                 |  |  |   _    _      __       _____    __    __             
                 |  |  |  | |  | |    /  \     |  _  \  |  |  /  |          
                  \  \/   | |  | |   /    \    | | | |  |  | /  /          
                 / \  \   | |__| |  /  /\  \   | |_| |  |  |/  /          
                |  |  |   |  __  | /  /__\  \  |    /   |      \           
                |  |  |   | |  | | |   __   |  |    \   |  |\   \          
                \     /   | |  | | |  |  |  |  | |\  \  |  | \   \       
                 \___/    |_|  |_| |__|  |__|  |_| \__\ |__|  \__/        
                                                                              
                      - O R C A' S   B I G   F R I E N D -                    
                                      &                                       
                       - I N T E G R A L  F E E D E R -                       
                                                                              
 v1 FN, 2020, v2 2021, v3 2022-2024                                           
------------------------------------------------------------------------------


----------------------
SHARK INTEGRAL PACKAGE
----------------------

Number of atoms                             ...     24
Number of basis functions                   ...    192
Number of shells                            ...     96
Maximum angular momentum                    ...      2
Integral batch strategy                     ... SHARK/LIBINT Hybrid
RI-J (if used) integral strategy            ... SPLIT-RIJ (Revised 2003 algorithm where possible)
Printlevel                                  ...      1
Contraction scheme used                     ... SEGMENTED contraction
Prescreening option                         ... SCHWARTZ
   Thresh                                   ... 1.000e-09
   Tcut                                     ... 1.000e-10
   Tpresel                                  ... 1.000e-10 
Coulomb Range Separation                    ... NOT USED
Exchange Range Separation                   ... NOT USED
Multipole approximations                    ... NOT USED
Finite Nucleus Model                        ... NOT USED
CABS basis                                  ... NOT available
Auxiliary Coulomb fitting basis             ... AVAILABLE
   # of basis functions in Aux-J            ...    720
   # of shells in Aux-J                     ...    240
   Maximum angular momentum in Aux-J        ...      4
Auxiliary J/K fitting basis                 ... NOT available
Auxiliary Correlation fitting basis         ... NOT available
Auxiliary 'external' fitting basis          ... NOT available

Checking pre-screening integrals            ... done (  0.0 sec) Dimension = 96
Check shell pair data                       ... done (  0.0 sec)
Shell pair information
Shell pair cut-off parameter TPreSel        ...   1.0e-10
Total number of shell pairs                 ...      4656
Shell pairs after pre-screening             ...      4307
Total number of primitive shell pairs       ...     18720
Primitive shell pairs kept                  ...     11633
          la=0 lb=0:   1665 shell pairs
          la=1 lb=0:   1362 shell pairs
          la=1 lb=1:    292 shell pairs
          la=2 lb=0:    642 shell pairs
          la=2 lb=1:    275 shell pairs
          la=2 lb=2:     71 shell pairs

Calculating one electron integrals          ... done (  0.0 sec)
Calculating RI/J V-Matrix + Cholesky decomp.... done (  0.0 sec)
Calculating Nuclear repulsion               ... done (  0.0 sec) ENN=    861.695716908910 Eh

Diagonalization of the overlap matrix:
Smallest eigenvalue                        ... 7.806e-04
Time for diagonalization                   ...    0.003 sec
Threshold for overlap eigenvalues          ... 1.000e-07
Number of eigenvalues below threshold      ... 0
Time for construction of square roots      ...    0.004 sec
Total time needed                          ...    0.008 sec

-------------------
DFT GRID GENERATION
-------------------

General Integration Accuracy     IntAcc      ... 4.159
Radial Grid Type                 RadialGrid  ... OptM3 with GC (2021)
Angular Grid (max. ang.)         AngularGrid ... 3 (Lebedev-194)
Angular grid pruning method      GridPruning ... 4 (adaptive)
Weight generation scheme         WeightScheme... mBecke (2022)
Basis function cutoff            BFCut       ... 1.0000e-10
Integration weight cutoff        WCut        ... 1.0000e-14
Partially contracted basis set               ... off
Rotationally invariant grid construction     ... off
Angular grids for H and He will be reduced by one unit

Total number of grid points                  ...    55572
Total number of batches                      ...      882
Average number of points per batch           ...       63
Average number of grid points per atom       ...     2316
Initializing property integral containers    ... done (  0.0 sec)

SHARK setup successfully completed in   0.7 seconds

Maximum memory used throughout the entire STARTUP-calculation: 29.0 MB
-------------------------------------------------------------------------------
                                 ORCA GUESS
                   Start orbitals & Density for SCF / CASSCF
-------------------------------------------------------------------------------

------------
SCF SETTINGS
------------
Hamiltonian:
 Density Functional     Method          .... DFT(GTOs)
 Exchange Functional    Exchange        .... PBE
   PBE kappa parameter   XKappa         ....  0.804000
   PBE mue parameter    XMuePBE         ....  0.219520
 Correlation Functional Correlation     .... PBE
   PBE beta parameter  CBetaPBE         ....  0.066725
 LDA part of GGA corr.  LDAOpt          .... PW91-LDA
 Gradients option       PostSCFGGA      .... off
   NL short-range parameter             ....  6.400000
 RI-approximation to the Coulomb term is turned on
   Number of AuxJ basis functions       .... 720


General Settings:
 Integral files         IntName         .... sp
 Hartree-Fock type      HFTyp           .... RHF
 Total Charge           Charge          ....    0
 Multiplicity           Mult            ....    1
 Number of Electrons    NEL             ....   96
 Basis Dimension        Dim             ....  192
 Nuclear Repulsion      ENuc            ....    861.6957169089 Eh

Convergence Acceleration:
 AO-DIIS                CNVDIIS         .... on
   Start iteration      DIISMaxIt       ....    12
   Startup error        DIISStart       ....  0.200000
   # of expansion vecs  DIISMaxEq       ....     5
   Bias factor          DIISBfac        ....   1.050
   Max. coefficient     DIISMaxC        ....  10.000
 MO-DIIS                CNVKDIIS        .... off
 Trust-Rad. Augm. Hess. CNVTRAH         .... auto
   Auto Start mean grad. ratio tolernc. ....  1.125000
   Auto Start start iteration           ....    50
   Auto Start num. interpolation iter.  ....    10
   Max. Number of Micro iterations      ....    24
   Max. Number of Macro iterations      .... Maxiter - #DIIS iter
   Number of Davidson start vectors     ....     2
   Converg. threshold    (grad. norm)   ....   1.000e-04
   Grad. Scal. Fac. for Micro threshold ....   0.100
   Minimum threshold for Micro iter.    ....   1.000e-02
   NR start threshold (gradient norm)   ....   1.000e-04
   Initial trust radius                 ....   0.400
   Minimum AH scaling param. (alpha)    ....   1.000
   Maximum AH scaling param. (alpha)    .... 1000.000
   Quad. conv. algorithm                .... NR
   White noise on init. David. guess    .... on
   Maximum white noise                  ....   0.010
   Pseudo random numbers                .... off
   Inactive MOs                         .... canonical
   Orbital update algorithm             .... Taylor
   Preconditioner                       .... Diag
   Full preconditioner red. dimension   ....   250
 SOSCF                  CNVSOSCF        .... on
   Start iteration      SOSCFMaxIt      ....   150
   Startup grad/error   SOSCFStart      ....  0.003300
   Hessian update       SOSCFHessUp     .... L-BFGS
 Level Shifting         CNVShift        .... on
   Level shift para.    LevelShift      ....    0.2500
   Turn off err/grad.   ShiftErr        ....    0.0010
 Zerner damping         CNVZerner       .... off
 Static damping         CNVDamp         .... on
   Fraction old density DampFac         ....    0.7000
   Max. Damping (<1)    DampMax         ....    0.9800
   Min. Damping (>=0)   DampMin         ....    0.0000
   Turn off err/grad.   DampErr         ....    0.1000

SCF Procedure:
 Maximum # iterations   MaxIter         ....   125
 SCF integral mode      SCFMode         .... Direct
   Integral package                     .... SHARK and LIBINT hybrid scheme
 Reset frequency        DirectResetFreq ....    20
 Integral Threshold     Thresh          ....  1.000e-09 Eh
 Primitive CutOff       TCut            ....  1.000e-10 Eh

Convergence Tolerance:
 Convergence Check Mode ConvCheckMode   .... Total+1el-Energy
 Convergence forced     ConvForced      .... 0
 Energy Change          TolE            ....  1.000e-05 Eh
 1-El. energy change                    ....  1.000e-02 Eh
 Orbital Gradient       TolG            ....  1.000e-04
 Orbital Rotation angle TolX            ....  1.000e-04
 DIIS Error             TolErr          ....  5.000e-04

------------------------------
INITIAL GUESS: MODEL POTENTIAL
------------------------------
Loading Hartree-Fock densities                     ... done
Calculating cut-offs                               ... done
Initializing the effective Hamiltonian             ... done
Setting up the integral package (SHARK)            ... done
Starting the Coulomb interaction                   ... done (   0.2 sec)
Making the grid                                    ... done (   0.2 sec)
Mapping shells                                     ... done
Starting the XC term evaluation                    ... done (   0.2 sec)
  promolecular density results
     # of electrons  =     95.991762721
     EX              =    -83.240816501
     EC              =     -3.273698541
     EX+EC           =    -86.514515042
Transforming the Hamiltonian                       ... done (   0.0 sec)
Diagonalizing the Hamiltonian                      ... done (   0.0 sec)
Back transforming the eigenvectors                 ... done (   0.0 sec)
Now organizing SCF variables                       ... done
                      ------------------
                      INITIAL GUESS DONE (   0.7 sec)
                      ------------------
             **** ENERGY FILE WAS UPDATED (sp.en.tmp) ****
Finished Guess after   0.8 sec
Maximum memory used throughout the entire GUESS-calculation: 22.8 MB

-------------------------------------------------------------------------------------------
                                      ORCA LEAN-SCF
                              memory conserving SCF solver
-------------------------------------------------------------------------------------------

----------------------------------------D-I-I-S--------------------------------------------
Iteration    Energy (Eh)           Delta-E    RMSDP     MaxDP     DIISErr   Damp  Time(sec)
-------------------------------------------------------------------------------------------
               ***  Starting incremental Fock matrix formation  ***
    1    -685.5203658693749276     0.00e+00  4.43e-03  1.07e-01  2.29e-01  0.700   0.8
    2    -685.6709699849202480    -1.51e-01  2.82e-03  7.01e-02  9.14e-02  0.700   0.8
                               ***Turning on AO-DIIS***
    3    -685.7187336325612250    -4.78e-02  1.02e-03  1.79e-02  2.07e-02  0.700   0.8
    4    -685.7503838047955469    -3.17e-02  1.42e-03  2.38e-02  1.04e-02  0.000   0.8
    5    -685.8236119816276641    -7.32e-02  4.19e-04  1.08e-02  5.06e-03  0.000   0.7
                              *** Initializing SOSCF ***
---------------------------------------S-O-S-C-F--------------------------------------
Iteration    Energy (Eh)           Delta-E    RMSDP     MaxDP     MaxGrad    Time(sec)
--------------------------------------------------------------------------------------
    6    -685.8239399165884151    -3.28e-04  1.34e-04  2.30e-03  1.32e-03     0.8
               *** Restarting incremental Fock matrix formation ***
    7    -685.8239714840187844    -3.16e-05  8.71e-05  1.66e-03  2.32e-04     0.8
    8    -685.8239735412666960    -2.06e-06  3.42e-05  6.17e-04  1.56e-04     0.7
                 **** Energy Check signals convergence ****

               *****************************************************
               *                     SUCCESS                       *
               *           SCF CONVERGED AFTER   8 CYCLES          *
               *****************************************************

             **** ENERGY FILE WAS UPDATED (sp.en.tmp) ****

----------------
TOTAL SCF ENERGY
----------------

Total Energy       :       -685.82397354126670 Eh          -18662.21909 eV

Components:
Nuclear Repulsion  :        861.69571690891007 Eh           23447.93253 eV
Electronic Energy  :      -1547.51969045017677 Eh          -42110.15162 eV
One Electron Energy:      -2652.68755235988692 Eh          -72183.29803 eV
Two Electron Energy:       1105.16786190971015 Eh           30073.14641 eV

Virial components:
Potential Energy   :      -1366.95070659062094 Eh          -37196.61977 eV
Kinetic Energy     :        681.12673304935436 Eh           18534.40068 eV
Virial Ratio       :          2.00689627974354

DFT components:
N(Alpha)           :       48.000005763612 electrons
N(Beta)            :       48.000005763612 electrons
N(Total)           :       96.000011527224 electrons
E(X)               :      -84.607588604226 Eh       
E(C)               :       -3.284966847483 Eh       
E(XC)              :      -87.892555451709 Eh       

---------------
SCF CONVERGENCE
---------------

  Last Energy change         ...    2.0572e-06  Tolerance :   1.0000e-05
  Last MAX-Density change    ...    6.1659e-04  Tolerance :   1.0000e-03
  Last RMS-Density change    ...    3.4154e-05  Tolerance :   1.0000e-04
  Last DIIS Error            ...    1.3181e-03  Tolerance :   5.0000e-04
  Last Orbital Gradient      ...    1.5566e-04  Tolerance :   1.0000e-04
  Last Orbital Rotation      ...    2.5976e-04  Tolerance :   1.0000e-04


----------------
ORBITAL ENERGIES
----------------

  NO   OCC          E(Eh)            E(eV) 
   0   2.0000     -18.774640      -510.8839 
   1   2.0000     -18.769424      -510.7420 
   2   2.0000     -18.758226      -510.4373 
   3   2.0000     -18.757163      -510.4083 
   4   2.0000     -18.755635      -510.3668 
   5   2.0000     -18.734089      -509.7805 
   6   2.0000      -9.976666      -271.4789 
   7   2.0000      -9.950518      -270.7674 
   8   2.0000      -9.950467      -270.7660 
   9   2.0000      -9.943661      -270.5808 
  10   2.0000      -9.931993      -270.2633 
  11   2.0000      -9.928803      -270.1765 
  12   2.0000      -0.980972       -26.6936 
  13   2.0000      -0.950992       -25.8778 
  14   2.0000      -0.935808       -25.4646 
  15   2.0000      -0.933915       -25.4131 
  16   2.0000      -0.914447       -24.8834 
  17   2.0000      -0.909897       -24.7596 
  18   2.0000      -0.704690       -19.1756 
  19   2.0000      -0.683840       -18.6082 
  20   2.0000      -0.621372       -16.9084 
  21   2.0000      -0.588516       -16.0143 
  22   2.0000      -0.576146       -15.6777 
  23   2.0000      -0.517665       -14.0864 
  24   2.0000      -0.503925       -13.7125 
  25   2.0000      -0.483746       -13.1634 
  26   2.0000      -0.467939       -12.7333 
  27   2.0000      -0.462980       -12.5983 
  28   2.0000      -0.453593       -12.3429 
  29   2.0000      -0.431348       -11.7376 
  30   2.0000      -0.408221       -11.1083 
  31   2.0000      -0.399084       -10.8596 
  32   2.0000      -0.385861       -10.4998 
  33   2.0000      -0.373144       -10.1538 
  34   2.0000      -0.362757        -9.8711 
  35   2.0000      -0.352038        -9.5795 
  36   2.0000      -0.336703        -9.1622 
  37   2.0000      -0.321176        -8.7396 
  38   2.0000      -0.307071        -8.3558 
  39   2.0000      -0.291835        -7.9412 
  40   2.0000      -0.282383        -7.6840 
  41   2.0000      -0.262230        -7.1356 
  42   2.0000      -0.253522        -6.8987 
  43   2.0000      -0.242626        -6.6022 
  44   2.0000      -0.232155        -6.3173 
  45   2.0000      -0.219808        -5.9813 
  46   2.0000      -0.214576        -5.8389 
  47   2.0000      -0.204308        -5.5595 
  48   0.0000       0.006135         0.1669 
  49   0.0000       0.011745         0.3196 
  50   0.0000       0.026612         0.7242 
  51   0.0000       0.036297         0.9877 
  52   0.0000       0.067529         1.8376 
  53   0.0000       0.077324         2.1041 
  54   0.0000       0.091808         2.4982 
  55   0.0000       0.095277         2.5926 
  56   0.0000       0.111108         3.0234 
  57   0.0000       0.115431         3.1410 
  58   0.0000       0.119104         3.2410 
*Only the first 10 virtual orbitals were printed.

                    ********************************
                    * MULLIKEN POPULATION ANALYSIS *
                    ********************************

-----------------------
MULLIKEN ATOMIC CHARGES
-----------------------
   0 C :   -0.013910
   1 C :    0.008558
   2 H :    0.041550
   3 C :    0.034492
   4 H :    0.063115
   5 C :    0.026300
   6 H :    0.081658
   7 C :    0.071334
   8 H :    0.089306
   9 C :    0.176480
  10 H :    0.066952
  11 O :   -0.311297
  12 O :   -0.382748
  13 O :   -0.427577
  14 O :   -0.386637
  15 O :   -0.420563
  16 O :   -0.429875
  17 H :    0.069879
  18 H :    0.136555
  19 H :    0.298285
  20 H :    0.298678
  21 H :    0.307479
  22 H :    0.306855
  23 H :    0.295130
Sum of atomic charges:   -0.0000000

--------------------------------
MULLIKEN REDUCED ORBITAL CHARGES
--------------------------------
  0 C s       :     3.056480  s :     3.056480
      pz      :     1.085973  p :     2.895526
      px      :     0.828434
      py      :     0.981119
      dz2     :     0.011073  d :     0.061904
      dxz     :     0.016790
      dyz     :     0.004095
      dx2y2   :     0.017216
      dxy     :     0.012730

  1 C s       :     3.063347  s :     3.063347
      pz      :     1.039355  p :     2.861193
      px      :     0.863236
      py      :     0.958602
      dz2     :     0.010860  d :     0.066903
      dxz     :     0.018077
      dyz     :     0.007110
      dx2y2   :     0.015121
      dxy     :     0.015734

  2 H s       :     0.958450  s :     0.958450

  3 C s       :     3.054417  s :     3.054417
      pz      :     0.812646  p :     2.844567
      px      :     1.058217
      py      :     0.973704
      dz2     :     0.015219  d :     0.066524
      dxz     :     0.015417
      dyz     :     0.016032
      dx2y2   :     0.010497
      dxy     :     0.009360

  4 H s       :     0.936885  s :     0.936885

  5 C s       :     3.062665  s :     3.062665
      pz      :     0.754502  p :     2.842615
      px      :     1.026075
      py      :     1.062038
      dz2     :     0.020564  d :     0.068420
      dxz     :     0.016868
      dyz     :     0.013265
      dx2y2   :     0.009920
      dxy     :     0.007804

  6 H s       :     0.918342  s :     0.918342

  7 C s       :     3.039909  s :     3.039909
      pz      :     0.866497  p :     2.820851
      px      :     0.993354
      py      :     0.961001
      dz2     :     0.014758  d :     0.067905
      dxz     :     0.017856
      dyz     :     0.012191
      dx2y2   :     0.011817
      dxy     :     0.011282

  8 H s       :     0.910694  s :     0.910694

  9 C s       :     3.001266  s :     3.001266
      pz      :     0.810251  p :     2.722587
      px      :     0.874610
      py      :     1.037726
      dz2     :     0.021509  d :     0.099667
      dxz     :     0.029982
      dyz     :     0.019070
      dx2y2   :     0.014818
      dxy     :     0.014288

 10 H s       :     0.933048  s :     0.933048

 11 O s       :     3.746465  s :     3.746465
      pz      :     1.656730  p :     4.549540
      px      :     1.221349
      py      :     1.671461
      dz2     :     0.002185  d :     0.015291
      dxz     :     0.004661
      dyz     :     0.002257
      dx2y2   :     0.002623
      dxy     :     0.003565

 12 O s       :     3.776754  s :     3.776754
      pz      :     1.479631  p :     4.590398
      px      :     1.837921
      py      :     1.272846
      dz2     :     0.005613  d :     0.015596
      dxz     :     0.002081
      dyz     :     0.003010
      dx2y2   :     0.003788
      dxy     :     0.001104

 13 O s       :     3.783543  s :     3.783543
      pz      :     1.286170  p :     4.628300
      px      :     1.550090
      py      :     1.792040
      dz2     :     0.001371  d :     0.015734
      dxz     :     0.007637
      dyz     :     0.001381
      dx2y2   :     0.003068
      dxy     :     0.002278

 14 O s       :     3.781740  s :     3.781740
      pz      :     1.362608  p :     4.589085
      px      :     1.521230
      py      :     1.705247
      dz2     :     0.005207  d :     0.015812
      dxz     :     0.001908
      dyz     :     0.002701
      dx2y2   :     0.001214
      dxy     :     0.004782

 15 O s       :     3.783635  s :     3.783635
      pz      :     1.232804  p :     4.621908
      px      :     1.587673
      py      :     1.801431
      dz2     :     0.001393  d :     0.015021
      dxz     :     0.006061
      dyz     :     0.003058
      dx2y2   :     0.002158
      dxy     :     0.002351

 16 O s       :     3.790578  s :     3.790578
      pz      :     1.624395  p :     4.623579
      px      :     1.258143
      py      :     1.741041
      dz2     :     0.002005  d :     0.015718
      dxz     :     0.005983
      dyz     :     0.002588
      dx2y2   :     0.001795
      dxy     :     0.003347

 17 H s       :     0.930121  s :     0.930121

 18 H s       :     0.863445  s :     0.863445

 19 H s       :     0.701715  s :     0.701715

 20 H s       :     0.701322  s :     0.701322

 21 H s       :     0.692521  s :     0.692521

 22 H s       :     0.693145  s :     0.693145

 23 H s       :     0.704870  s :     0.704870


------------------------
MULLIKEN OVERLAP CHARGES
------------------------
B(  0-C ,  1-C ) :   0.5508 B(  0-C ,  2-H ) :  -0.0633 B(  0-C ,  3-C ) :  -0.1054 
B(  0-C , 11-O ) :  -0.0913 B(  0-C , 16-O ) :   0.5772 B(  0-C , 17-H ) :   0.6417 
B(  0-C , 18-H ) :   0.6815 B(  0-C , 23-H ) :  -0.0858 B(  1-C ,  2-H ) :   0.6247 
B(  1-C ,  3-C ) :   0.5164 B(  1-C ,  4-H ) :  -0.1085 B(  1-C ,  7-C ) :  -0.0900 
B(  1-C ,  9-C ) :  -0.1031 B(  1-C , 11-O ) :   0.5635 B(  1-C , 15-O ) :  -0.0570 
B(  1-C , 16-O ) :  -0.1139 B(  1-C , 17-H ) :  -0.0819 B(  2-H ,  3-C ) :  -0.0773 
B(  3-C ,  4-H ) :   0.6713 B(  3-C ,  5-C ) :   0.3981 B(  3-C ,  6-H ) :  -0.1492 
B(  3-C ,  9-C ) :  -0.1149 B(  3-C , 11-O ) :  -0.0618 B(  3-C , 14-O ) :  -0.0787 
B(  3-C , 15-O ) :   0.5067 B(  3-C , 22-H ) :  -0.0725 B(  4-H ,  5-C ) :  -0.0908 
B(  4-H , 16-O ) :   0.0620 B(  5-C ,  6-H ) :   0.7590 B(  5-C ,  7-C ) :   0.3464 
B(  5-C ,  8-H ) :  -0.0515 B(  5-C , 11-O ) :  -0.0542 B(  5-C , 14-O ) :   0.5979 
B(  5-C , 15-O ) :  -0.1094 B(  5-C , 21-H ) :  -0.0669 B(  6-H ,  7-C ) :  -0.1172 
B(  7-C ,  8-H ) :   0.6039 B(  7-C ,  9-C ) :   0.4500 B(  7-C , 10-H ) :  -0.0974 
B(  7-C , 11-O ) :  -0.0660 B(  7-C , 12-O ) :  -0.1154 B(  7-C , 13-O ) :   0.5814 
B(  7-C , 14-O ) :  -0.1092 B(  7-C , 20-H ) :  -0.1027 B(  9-C , 10-H ) :   0.7096 
B(  9-C , 11-O ) :   0.6589 B(  9-C , 12-O ) :   0.6255 B(  9-C , 13-O ) :  -0.0779 
B( 10-H , 11-O ) :  -0.0846 B( 11-O , 12-O ) :  -0.1375 B( 12-O , 19-H ) :   0.4819 
B( 13-O , 20-H ) :   0.5454 B( 14-O , 18-H ) :   0.0744 B( 14-O , 21-H ) :   0.5058 
B( 15-O , 20-H ) :   0.0992 B( 15-O , 22-H ) :   0.5181 B( 16-O , 23-H ) :   0.5187 
B( 17-H , 18-H ) :  -0.0591 


                     *******************************
                     * LOEWDIN POPULATION ANALYSIS *
                     *******************************

----------------------
LOEWDIN ATOMIC CHARGES
----------------------
   0 C :   -0.158643
   1 C :   -0.078599
   2 H :    0.098189
   3 C :   -0.081994
   4 H :    0.100802
   5 C :   -0.070865
   6 H :    0.107051
   7 C :   -0.068579
   8 H :    0.127652
   9 C :   -0.008340
  10 H :    0.099286
  11 O :   -0.146227
  12 O :   -0.300764
  13 O :   -0.314783
  14 O :   -0.296305
  15 O :   -0.309741
  16 O :   -0.332901
  17 H :    0.094817
  18 H :    0.125693
  19 H :    0.282759
  20 H :    0.271286
  21 H :    0.289316
  22 H :    0.288571
  23 H :    0.282316

-------------------------------
LOEWDIN REDUCED ORBITAL CHARGES
-------------------------------
  0 C s       :     2.928633  s :     2.928633
      pz      :     1.112789  p :     3.087938
      px      :     0.920298
      py      :     1.054851
      dz2     :     0.026087  d :     0.142072
      dxz     :     0.039652
      dyz     :     0.009022
      dx2y2   :     0.038210
      dxy     :     0.029101

  1 C s       :     2.902167  s :     2.902167
      pz      :     1.075732  p :     3.019542
      px      :     0.923696
      py      :     1.020114
      dz2     :     0.026223  d :     0.156889
      dxz     :     0.043476
      dyz     :     0.015649
      dx2y2   :     0.036683
      dxy     :     0.034859

  2 H s       :     0.901811  s :     0.901811

  3 C s       :     2.896740  s :     2.896740
      pz      :     0.896321  p :     3.029733
      px      :     1.089008
      py      :     1.044404
      dz2     :     0.034731  d :     0.155521
      dxz     :     0.038831
      dyz     :     0.033996
      dx2y2   :     0.027684
      dxy     :     0.020278

  4 H s       :     0.899198  s :     0.899198

  5 C s       :     2.891141  s :     2.891141
      pz      :     0.871987  p :     3.019577
      px      :     1.057365
      py      :     1.090225
      dz2     :     0.047343  d :     0.160147
      dxz     :     0.040959
      dyz     :     0.028101
      dx2y2   :     0.023318
      dxy     :     0.020426

  6 H s       :     0.892949  s :     0.892949

  7 C s       :     2.890934  s :     2.890934
      pz      :     0.956323  p :     3.020320
      px      :     1.034788
      py      :     1.029209
      dz2     :     0.033497  d :     0.157324
      dxz     :     0.041590
      dyz     :     0.025901
      dx2y2   :     0.027827
      dxy     :     0.028509

  8 H s       :     0.872348  s :     0.872348

  9 C s       :     2.889009  s :     2.889009
      pz      :     0.907914  p :     2.895559
      px      :     0.935777
      py      :     1.051868
      dz2     :     0.048636  d :     0.223771
      dxz     :     0.068611
      dyz     :     0.041255
      dx2y2   :     0.035570
      dxy     :     0.029699

 10 H s       :     0.900714  s :     0.900714

 11 O s       :     3.468412  s :     3.468412
      pz      :     1.673896  p :     4.647805
      px      :     1.287505
      py      :     1.686404
      dz2     :     0.003469  d :     0.030010
      dxz     :     0.009868
      dyz     :     0.002940
      dx2y2   :     0.006001
      dxy     :     0.007731

 12 O s       :     3.537902  s :     3.537902
      pz      :     1.555630  p :     4.735052
      px      :     1.838472
      py      :     1.340950
      dz2     :     0.009988  d :     0.027810
      dxz     :     0.002735
      dyz     :     0.006290
      dx2y2   :     0.006749
      dxy     :     0.002049

 13 O s       :     3.526151  s :     3.526151
      pz      :     1.359039  p :     4.761307
      px      :     1.605977
      py      :     1.796290
      dz2     :     0.003173  d :     0.027325
      dxz     :     0.013785
      dyz     :     0.003132
      dx2y2   :     0.003969
      dxy     :     0.003267

 14 O s       :     3.531760  s :     3.531760
      pz      :     1.425971  p :     4.736730
      px      :     1.569866
      py      :     1.740893
      dz2     :     0.010196  d :     0.027814
      dxz     :     0.003859
      dyz     :     0.004445
      dx2y2   :     0.001789
      dxy     :     0.007525

 15 O s       :     3.529982  s :     3.529982
      pz      :     1.308394  p :     4.753082
      px      :     1.636967
      py      :     1.807722
      dz2     :     0.003869  d :     0.026677
      dxz     :     0.010959
      dyz     :     0.005933
      dx2y2   :     0.002917
      dxy     :     0.002999

 16 O s       :     3.541435  s :     3.541435
      pz      :     1.663399  p :     4.764067
      px      :     1.322906
      py      :     1.777762
      dz2     :     0.003223  d :     0.027398
      dxz     :     0.010779
      dyz     :     0.003270
      dx2y2   :     0.003684
      dxy     :     0.006442

 17 H s       :     0.905183  s :     0.905183

 18 H s       :     0.874307  s :     0.874307

 19 H s       :     0.717241  s :     0.717241

 20 H s       :     0.728714  s :     0.728714

 21 H s       :     0.710684  s :     0.710684

 22 H s       :     0.711429  s :     0.711429

 23 H s       :     0.717684  s :     0.717684


---------------------------------
LOEWDIN BOND ORDERS (THRESH 0.050000)
---------------------------------
B(  0-C ,  1-C ) :   1.0473 B(  0-C ,  3-C ) :   0.0561 B(  0-C , 11-O ) :   0.0681 
B(  0-C , 16-O ) :   1.2311 B(  0-C , 17-H ) :   0.9053 B(  0-C , 18-H ) :   0.8914 
B(  1-C ,  2-H ) :   0.8722 B(  1-C ,  3-C ) :   1.0301 B(  1-C ,  9-C ) :   0.0610 
B(  1-C , 11-O ) :   1.1533 B(  1-C , 15-O ) :   0.0734 B(  1-C , 16-O ) :   0.0868 
B(  3-C ,  4-H ) :   0.8627 B(  3-C ,  5-C ) :   1.0166 B(  3-C ,  7-C ) :   0.0521 
B(  3-C , 11-O ) :   0.0575 B(  3-C , 14-O ) :   0.0752 B(  3-C , 15-O ) :   1.1915 
B(  5-C ,  6-H ) :   0.8662 B(  5-C ,  7-C ) :   1.0177 B(  5-C ,  9-C ) :   0.0517 
B(  5-C , 13-O ) :   0.0777 B(  5-C , 14-O ) :   1.2287 B(  5-C , 15-O ) :   0.0620 
B(  7-C ,  8-H ) :   0.8691 B(  7-C ,  9-C ) :   1.0120 B(  7-C , 11-O ) :   0.0551 
B(  7-C , 12-O ) :   0.0614 B(  7-C , 13-O ) :   1.2404 B(  7-C , 14-O ) :   0.0590 
B(  9-C , 10-H ) :   0.8802 B(  9-C , 11-O ) :   1.1850 B(  9-C , 12-O ) :   1.2643 
B(  9-C , 13-O ) :   0.0873 B( 11-O , 12-O ) :   0.0945 B( 12-O , 19-H ) :   0.8747 
B( 13-O , 20-H ) :   0.8565 B( 14-O , 21-H ) :   0.8762 B( 15-O , 20-H ) :   0.0766 
B( 15-O , 22-H ) :   0.8776 B( 16-O , 23-H ) :   0.8904 

------------------------------------------
LOEWDIN REDUCED ORBITAL POPULATIONS PER MO
-------------------------------------------
THRESHOLD FOR PRINTING IS 0.1%%
                      0         1         2         3         4         5   
                 -18.77464 -18.76942 -18.75823 -18.75716 -18.75564 -18.73409
                   2.00000   2.00000   2.00000   2.00000   2.00000   2.00000
                  --------  --------  --------  --------  --------  --------
11 O  s               0.0      99.9       0.0       0.0       0.0       0.0
12 O  s               0.0       0.0       0.0       0.0      99.9       0.0
13 O  s               0.0       0.0       0.0       0.0       0.0      99.9
14 O  s               0.0       0.0       0.0      99.9       0.0       0.0
15 O  s              99.9       0.0       0.0       0.0       0.0       0.0
16 O  s               0.0       0.0      99.9       0.0       0.0       0.0

                      6         7         8         9        10        11   
                  -9.97667  -9.95052  -9.95047  -9.94366  -9.93199  -9.92880
                   2.00000   2.00000   2.00000   2.00000   2.00000   2.00000
                  --------  --------  --------  --------  --------  --------
 0 C  s               0.0       0.0       0.0       0.0       0.0      99.6
 1 C  s               0.0      14.0      85.6       0.0       0.0       0.0
 3 C  s               0.0      85.7      13.9       0.0       0.0       0.0
 5 C  s               0.0       0.0       0.0      99.6       0.0       0.0
 7 C  s               0.0       0.0       0.0       0.0      99.6       0.0
 9 C  s              99.6       0.0       0.0       0.0       0.0       0.0
14 O  pz              0.0       0.0       0.0       0.1       0.0       0.0

                     12        13        14        15        16        17   
                  -0.98097  -0.95099  -0.93581  -0.93392  -0.91445  -0.90990
                   2.00000   2.00000   2.00000   2.00000   2.00000   2.00000
                  --------  --------  --------  --------  --------  --------
 0 C  s               0.7       0.0       0.2       9.6       0.0       0.0
 0 C  pz              0.3       0.0       0.0       0.1       0.0       0.4
 0 C  px              0.1       0.0       0.2       6.7       0.0       0.5
 0 C  py              0.1       0.1       0.1       1.6       0.0       0.0
 0 C  dz2             0.0       0.0       0.0       0.2       0.0       0.0
 0 C  dx2y2           0.0       0.0       0.0       0.2       0.0       0.0
 0 C  dxy             0.0       0.0       0.0       0.4       0.0       0.0
 1 C  s               5.7       0.1       0.1       0.9       0.0       3.8
 1 C  pz              0.1       0.0       0.2       0.6       0.0       0.4
 1 C  px              3.2       0.1       0.1       0.5       0.0       2.5
 1 C  py              0.5       1.7       0.0       0.1       0.0       1.1
 1 C  dxy             0.2       0.0       0.0       0.0       0.0       0.2
 2 H  s               0.7       0.0       0.0       0.2       0.0       0.5
 3 C  s               2.4       8.1       0.3       0.0       0.2       0.0
 3 C  pz              0.4       4.1       3.9       0.0       0.1       0.2
 3 C  px              0.2       0.5       0.1       0.1       0.0       0.0
 3 C  py              0.3       1.1       0.1       0.2       0.0       0.9
 3 C  dz2             0.0       0.4       0.1       0.0       0.0       0.0
 3 C  dyz             0.0       0.2       0.1       0.0       0.0       0.0
 4 H  s               0.3       1.0       0.0       0.0       0.0       0.0
 5 C  s               1.2       2.7       7.4       0.4       0.0       0.0
 5 C  pz              0.1       0.1       8.3       0.2       1.2       0.0
 5 C  px              0.0       0.6       0.2       0.0       1.4       0.1
 5 C  py              0.3       0.0       0.2       0.0       0.1       0.0
 5 C  dz2             0.0       0.1       0.5       0.0       0.1       0.0
 5 C  dxz             0.0       0.0       0.2       0.0       0.0       0.0
 6 H  s               0.2       0.5       0.8       0.1       0.0       0.0
 7 C  s               2.2       0.2       0.9       0.3       8.5       0.4
 7 C  pz              0.2       0.0       0.1       0.0       6.9       0.0
 7 C  px              0.4       0.0       0.2       0.0       1.6       0.1
 7 C  py              0.6       0.9       0.3       0.0       1.3       0.0
 7 C  dz2             0.0       0.0       0.0       0.0       0.3       0.0
 7 C  dxz             0.0       0.0       0.0       0.0       0.3       0.0
 7 C  dyz             0.0       0.0       0.0       0.0       0.2       0.0
 8 H  s               0.4       0.0       0.2       0.1       0.8       0.1
 9 C  s              13.3       2.2       0.0       0.2       0.0       0.5
 9 C  pz              0.1       0.4       0.0       0.2       0.5      10.0
 9 C  px              3.3       0.3       0.1       0.0       0.3       2.5
 9 C  py              0.4       0.7       0.1       0.0       1.8       1.0
 9 C  dz2             0.0       0.0       0.0       0.0       0.0       0.3
 9 C  dxz             0.2       0.0       0.0       0.0       0.0       0.3
 9 C  dyz             0.1       0.1       0.0       0.0       0.0       0.4
 9 C  dx2y2           0.1       0.0       0.0       0.0       0.0       0.3
10 H  s               1.6       0.2       0.0       0.0       0.0       0.1
11 O  s              28.3       2.2       0.6       0.1       0.0      23.5
11 O  pz              1.5       0.2       0.0       0.0       0.0       0.3
11 O  px              0.1       0.1       0.0       0.1       0.0       0.3
11 O  py              0.5       0.0       0.0       0.0       0.0       0.7
12 O  s              15.2       7.0       0.0       0.9       2.3      34.3
12 O  pz              1.6       0.5       0.0       0.0       0.1       1.0
12 O  py              0.0       0.0       0.0       0.0       0.1       0.5
13 O  s               1.4       0.8       0.7       0.6      52.1       1.3
13 O  pz              0.0       0.0       0.0       0.0       0.2       0.0
13 O  px              0.1       0.1       0.0       0.0       2.9       0.1
13 O  py              0.0       0.0       0.0       0.0       0.1       0.0
14 O  s               1.2       5.3      47.2       1.7       2.6       0.1
14 O  pz              0.1       0.2       1.3       0.1       0.0       0.0
14 O  px              0.0       0.1       0.6       0.0       0.1       0.0
14 O  py              0.0       0.1       0.9       0.0       0.1       0.0
15 O  s               4.0      42.3       9.3       0.1       1.6       1.8
15 O  pz              0.1       0.2       0.0       0.0       0.0       0.0
15 O  px              0.1       1.3       0.3       0.0       0.1       0.1
15 O  py              0.1       0.8       0.2       0.0       0.0       0.0
16 O  s               0.4       0.2       1.5      55.7       0.1       1.4
16 O  pz              0.0       0.0       0.0       1.8       0.0       0.0
16 O  px              0.0       0.0       0.0       0.2       0.0       0.0
16 O  py              0.0       0.0       0.0       1.3       0.0       0.0
17 H  s               0.1       0.0       0.0       1.1       0.0       0.0
18 H  s               0.3       0.0       0.2       0.9       0.0       0.0
19 H  s               3.2       1.5       0.0       0.2       0.5       6.9
20 H  s               0.5       0.6       0.1       0.1      10.0       0.3
21 H  s               0.2       1.1       9.5       0.3       0.5       0.0
22 H  s               0.8       8.6       1.9       0.0       0.4       0.3
23 H  s               0.1       0.0       0.3      11.6       0.0       0.3

                     18        19        20        21        22        23   
                  -0.70469  -0.68384  -0.62137  -0.58852  -0.57615  -0.51766
                   2.00000   2.00000   2.00000   2.00000   2.00000   2.00000
                  --------  --------  --------  --------  --------  --------
 0 C  s               4.5       2.8      14.2       0.9       8.8       0.3
 0 C  pz              1.6       0.7       0.0       0.4       2.7       1.1
 0 C  px              1.6       0.7       0.9       0.0       0.1       0.2
 0 C  py              0.2       0.0       0.1       0.3       0.9       0.2
 1 C  s              14.5       5.5       1.1       0.6       4.9       0.7
 1 C  pz              1.0       0.0       2.7       2.5       4.2       0.2
 1 C  px              0.5       0.5       2.3       0.6       0.1       0.3
 1 C  py              2.2       1.1       1.4       4.5       2.5       0.3
 1 C  dz2             0.0       0.0       0.1       0.0       0.0       0.0
 1 C  dxy             0.1       0.0       0.0       0.1       0.0       0.0
 2 H  s               2.8       1.8       0.3       0.7       3.6       0.4
 3 C  s              14.2       0.8       4.5       6.8       0.8       0.3
 3 C  pz              2.0       0.7       0.3       0.3       0.8       1.4
 3 C  px              0.0       2.4       0.7       1.2       3.4       0.2
 3 C  py              2.4       1.1       1.0       0.2       3.7       1.9
 3 C  dz2             0.1       0.0       0.0       0.0       0.0       0.0
 4 H  s               2.8       0.1       1.1       3.5       0.4       0.1
 5 C  s               5.9       9.0       1.8       2.9       5.2       1.4
 5 C  pz              2.7       1.5       1.1       0.7       0.1       2.7
 5 C  px              0.7       1.1       2.3       7.4       0.0       0.2
 5 C  py              0.3       0.7       1.1       0.1       1.1       0.3
 6 H  s               1.0       1.7       0.8       0.9       2.6       0.0
 7 C  s               0.7      11.7       4.9       3.7       1.4       4.4
 7 C  pz              0.3       1.3       0.4       2.6       0.0       0.4
 7 C  px              0.9       2.6       0.4       0.0       1.5       4.3
 7 C  py              0.7       0.7       3.0       3.5       3.9       0.4
 7 C  dz2             0.0       0.1       0.0       0.0       0.0       0.0
 8 H  s               0.1       2.4       1.9       2.0       0.9       2.4
 9 C  s               1.5       8.1       4.0       6.0       1.2       1.3
 9 C  pz              1.5       0.1       0.3       1.8       1.1       1.4
 9 C  px              0.4       0.3       1.5       0.1       2.9       0.2
 9 C  py              0.5       3.0       1.8       1.0       1.4       0.6
10 H  s               0.5       1.6       1.0       2.9       0.4       0.1
11 O  s               3.1       0.1       1.7       0.5       1.0       0.8
11 O  pz              0.0       0.1       0.3       0.6       0.2       0.7
11 O  px              4.6       6.5       0.1      12.3       2.0       0.2
11 O  py              0.7       0.0       0.0       0.4       1.4       0.0
12 O  s               0.3       1.7       0.8       0.8       0.0       0.1
12 O  pz              0.2       0.8       0.7       1.8       0.3       2.5
12 O  px              0.0       0.1       0.2       0.0       0.7       0.2
12 O  py              0.1       2.5       3.6       1.2       2.4       7.6
13 O  s               0.3       5.0       0.6       0.4       0.0       0.6
13 O  pz              0.1       2.3       1.7       2.3       1.0      16.4
13 O  px              0.0       0.1       0.1       0.0       0.2       0.4
13 O  py              0.0       0.4       0.7       0.0       0.8       2.3
13 O  dxz             0.0       0.1       0.0       0.0       0.0       0.2
14 O  s               2.5       2.1       0.2       0.1       0.6       0.1
14 O  pz              1.1       2.1       0.3       2.2       2.9       8.1
14 O  px              0.3       1.3       0.0       3.6       1.1       4.3
14 O  py              0.2       0.2       0.1       0.2       0.1       0.9
14 O  dz2             0.0       0.0       0.0       0.0       0.0       0.1
15 O  s               3.7       0.1       0.8       0.5       0.6       0.0
15 O  pz              3.9       0.8       5.2       5.5       0.0       8.4
15 O  px              0.3       0.1       0.6       0.1       0.6       0.3
15 O  py              0.2       0.0       0.0       0.0       0.5       0.0
16 O  s               1.8       0.7       2.0       0.2       0.4       0.0
16 O  pz              0.0       0.0       0.3       0.2       1.2       0.5
16 O  px              1.3       0.7       7.1       1.8       7.6       1.2
16 O  py              0.0       0.0       0.3       0.0       0.5       0.1
17 H  s               0.8       0.7       3.7       0.1       3.3       0.3
18 H  s               0.9       0.7       4.0       0.6       3.7       0.3
19 H  s               0.1       1.5       1.6       0.9       0.9       2.9
20 H  s               0.1       1.9       0.9       0.6       0.6       5.4
21 H  s               1.1       1.7       0.0       1.7       1.3       3.8
22 H  s               2.1       0.3       2.1       1.7       0.0       2.3
23 H  s               0.8       0.4       2.7       0.7       2.6       0.5

                     24        25        26        27        28        29   
                  -0.50392  -0.48375  -0.46794  -0.46298  -0.45359  -0.43135
                   2.00000   2.00000   2.00000   2.00000   2.00000   2.00000
                  --------  --------  --------  --------  --------  --------
 0 C  s               0.2       0.4       0.6       0.0       0.3       0.1
 0 C  pz              0.1       7.4       3.7       0.1       0.1       1.5
 0 C  px              0.0       0.1       4.8       2.0       1.7       0.0
 0 C  py              2.0       4.3       3.9       0.0       2.6       2.8
 0 C  dxy             0.0       0.0       0.3       0.0       0.1       0.0
 1 C  s               0.1       0.6       0.2       0.7       0.6       0.3
 1 C  pz              0.2       0.4       5.7       4.6       1.7       0.4
 1 C  px              1.9       9.2       0.1       1.8       0.5       4.0
 1 C  py              5.0       4.8       0.1       0.5       0.0       1.8
 1 C  dyz             0.0       0.0       0.1       0.0       0.1       0.1
 1 C  dxy             0.0       0.0       0.2       0.1       0.0       0.0
 2 H  s               0.2       4.0       0.3       3.4       1.8       0.7
 3 C  s               0.4       0.0       0.2       0.6       0.9       0.1
 3 C  pz              2.2       0.1       0.3       8.8       2.3       4.4
 3 C  px              7.0       0.5       3.0       2.2       2.3       0.9
 3 C  py              1.9       5.3       1.6       2.5       0.6       1.2
 3 C  dxz             0.1       0.0       0.0       0.0       0.1       0.1
 3 C  dyz             0.1       0.0       0.0       0.0       0.2       0.0
 4 H  s               2.2       0.3       1.5       5.4       0.8       0.3
 5 C  s               0.1       0.9       0.0       0.1       2.5       0.1
 5 C  pz              1.8       0.3       3.1       0.6       7.6       0.3
 5 C  px              0.0       0.1       0.0       2.2       0.1      11.7
 5 C  py              0.1       9.0       1.4       1.5       5.9       0.1
 5 C  dz2             0.0       0.0       0.0       0.2       0.3       0.0
 5 C  dyz             0.0       0.0       0.1       0.0       0.1       0.0
 6 H  s               0.1       4.0       0.2       0.5       6.7       0.5
 7 C  s               0.1       0.2       0.2       0.0       0.0       0.1
 7 C  pz              0.2       0.0       1.2       0.1       1.2       1.9
 7 C  px              0.8       2.6       3.6       2.8       2.3       0.3
 7 C  py              0.7       0.4       0.0       0.9       0.2       9.8
 7 C  dyz             0.0       0.0       0.0       0.1       0.0       0.0
 8 H  s               0.1       0.0       0.8       0.3       1.1       0.4
 9 C  s               0.0       1.0       0.0       0.7       0.5       0.4
 9 C  pz              9.4       0.9       1.6       5.2       0.2       0.9
 9 C  px              0.1       2.6       1.0       2.7       1.4      13.6
 9 C  py              0.6       5.9       1.5       0.2       0.1       2.0
 9 C  dz2             0.1       0.0       0.1       0.0       0.0       0.1
10 H  s               0.9       3.9       0.0       3.4       1.1       4.2
11 O  s               0.1       0.1       1.9       0.3       0.1       0.0
11 O  pz              0.1       0.3       2.8       2.6       0.9       3.5
11 O  px              7.9       0.0       2.4       1.2       0.1       6.9
11 O  py              0.5       5.2       0.3       0.5       0.2       1.6
12 O  s               0.1       0.4       0.1       0.1       0.0       0.0
12 O  pz              1.2       2.1       0.8       0.6       0.3       1.4
12 O  px              0.5       0.5       1.4       0.2       0.7       1.9
12 O  py             14.7       0.0       3.9       6.2       0.0       1.8
13 O  s               0.0       0.0       0.7       0.6       0.9       0.0
13 O  pz              2.6       0.7       0.0       4.4       0.1       0.7
13 O  px              0.3       0.4       1.3       1.4       1.7       0.2
13 O  py              0.6       0.0       0.0       0.0       0.1       3.0
14 O  s               0.1       0.1       0.0       1.1       1.4       0.4
14 O  pz              2.5       0.6       2.6       0.2       3.9       5.2
14 O  px              1.0       0.5       2.7       3.4       8.1       0.4
14 O  py              0.1       1.4       0.0       0.7       6.0       0.1
15 O  s               0.6       0.0       0.2       0.1       0.0       0.0
15 O  pz              9.3       1.8       1.4       5.6      10.2       1.6
15 O  px              5.6       0.0       0.9       3.8       0.2       0.0
15 O  py              0.1       0.7       0.0       1.8       0.0       0.5
15 O  dxz             0.0       0.0       0.0       0.0       0.1       0.0
16 O  s               0.0       1.1       1.0       0.0       0.1       0.0
16 O  pz              0.0       3.6       5.3       0.1       0.5       0.4
16 O  px              0.3       3.5      16.4       2.0       4.4       0.8
16 O  py              0.3       0.4       0.1       0.4       0.1       0.4
17 H  s               0.8       2.6       2.5       0.0       1.6       1.5
18 H  s               0.1       1.1       0.1       0.3       0.7       0.4
19 H  s               4.6       0.1       1.5       1.9       0.0       0.6
20 H  s               1.3       0.3       0.1       1.6       0.2       0.0
21 H  s               0.9       0.1       1.3       0.9       4.8       0.4
22 H  s               4.0       0.3       0.1       2.5       2.1       0.4
23 H  s               0.1       1.7       6.2       0.5       1.4       0.1

                     30        31        32        33        34        35   
                  -0.40822  -0.39908  -0.38586  -0.37314  -0.36276  -0.35204
                   2.00000   2.00000   2.00000   2.00000   2.00000   2.00000
                  --------  --------  --------  --------  --------  --------
 0 C  s               0.0       0.3       0.3       0.1       0.1       0.2
 0 C  pz              0.1       5.8       6.9       0.2       3.0       1.6
 0 C  px              2.8       1.1      10.3       1.7       5.0       1.9
 0 C  py              6.4      13.5       0.2       0.3       0.6       0.3
 0 C  dz2             0.0       0.1       0.0       0.0       0.2       0.1
 0 C  dxz             0.0       0.0       0.1       0.0       0.1       0.2
 1 C  s               1.2       0.2       0.1       0.4       0.1       0.1
 1 C  pz              3.2       5.7       0.3       0.4       2.0       1.6
 1 C  px              1.2       1.8       2.1       0.5       2.5       4.7
 1 C  py              0.1       5.3       0.8       0.2       2.2       1.4
 1 C  dz2             0.0       0.0       0.0       0.0       0.1       0.2
 1 C  dxz             0.0       0.0       0.0       0.0       0.1       0.1
 1 C  dyz             0.0       0.0       0.0       0.1       0.0       0.0
 1 C  dx2y2           0.0       0.1       0.1       0.1       0.0       0.0
 1 C  dxy             0.0       0.1       0.0       0.0       0.0       0.1
 2 H  s               0.7       0.1       1.0       0.2       3.5       3.9
 3 C  s               0.5       0.5       0.1       0.6       0.3       0.1
 3 C  pz              0.2       1.5       0.3       3.6       0.1       0.3
 3 C  px              8.4       0.3       0.7       2.1       1.2       1.4
 3 C  py              3.9       5.4       0.9       0.1       3.2       0.5
 3 C  dxz             0.0       0.1       0.0       0.0       0.0       0.0
 3 C  dyz             0.1       0.2       0.0       0.0       0.0       0.0
 3 C  dx2y2           0.1       0.0       0.0       0.2       0.1       0.0
 3 C  dxy             0.1       0.0       0.0       0.0       0.0       0.2
 4 H  s               7.9       1.3       0.1       0.0       1.1       1.1
 5 C  s               0.1       0.3       0.1       0.0       0.0       0.0
 5 C  pz              0.3       0.0       0.3       3.3       0.3       0.0
 5 C  px              1.5       0.0       4.4       1.3       0.8       2.1
 5 C  py              0.1       0.2       0.6      19.2       1.0       0.5
 5 C  dz2             0.2       0.0       0.1       0.0       0.0       0.0
 5 C  dx2y2           0.0       0.0       0.0       0.4       0.0       0.0
 5 C  dxy             0.2       0.0       0.0       0.0       0.0       0.0
 6 H  s               0.0       0.3       1.2       8.8       0.2       0.1
 7 C  s               1.6       0.7       0.2       0.2       0.1       0.2
 7 C  pz              3.6       2.0       8.3       1.6      10.3       0.6
 7 C  px              3.1       0.1       0.7       0.1       7.4       2.3
 7 C  py              0.9       2.3       1.0       4.0       0.6       0.2
 7 C  dxz             0.2       0.1       0.2       0.0       0.3       0.0
 7 C  dx2y2           0.0       0.0       0.0       0.2       0.0       0.0
 7 C  dxy             0.0       0.0       0.2       0.1       0.0       0.0
 8 H  s               1.1       1.7       4.3       0.7       9.7       1.2
 9 C  s               0.1       0.0       0.1       0.4       0.1       0.4
 9 C  pz              0.1       0.2       0.5       0.2       0.1       0.3
 9 C  px              0.5       0.3       4.9       0.4       0.1       0.8
 9 C  py              5.7       1.9       3.8       7.8       0.0       0.9
 9 C  dz2             0.0       0.1       0.0       0.0       0.0       0.5
 9 C  dxz             0.1       0.0       0.0       0.0       0.1       0.2
 9 C  dyz             0.1       0.1       0.1       0.0       0.0       0.1
10 H  s               1.7       0.0       4.5       0.3       0.0       1.0
11 O  s               0.8       0.1       0.1       1.2       0.0       1.3
11 O  pz              2.0       0.4       0.9       3.4       0.9      10.2
11 O  px              0.3       0.6       0.6       0.3       0.3       8.2
11 O  py              0.0       0.9       0.4      10.4       1.6       0.8
12 O  s               0.4       0.0       0.6       0.4       0.1       4.1
12 O  pz              3.9       1.7       0.5       3.5       0.0      14.9
12 O  px              0.1       0.0       1.1       0.8       0.5       0.0
12 O  py              0.0       1.7       1.1       0.0       0.7       7.1
13 O  s               0.4       0.2       0.1       0.0       0.8       0.2
13 O  pz              9.1       3.4       4.0       0.4       3.0       0.0
13 O  px              2.2       0.2       0.0       0.0       7.9       2.2
13 O  py              1.3       0.0       3.8       1.4       1.5       0.0
14 O  s               0.0       0.0       0.0       0.2       0.6       0.4
14 O  pz              2.3       0.0       3.1       0.5       0.1       1.0
14 O  px              0.3       0.0       0.0       2.6       0.2       1.4
14 O  py              0.1       0.3       0.0       8.9       4.0       0.1
15 O  s               1.4       2.8       0.2       0.2       0.1       0.6
15 O  pz              0.1       0.3       0.0       1.4       0.5       0.6
15 O  px              5.5       3.9       0.1       1.5       1.6       6.9
15 O  py              0.1       9.9       0.6       0.1       0.7       0.0
16 O  s               0.5       0.1       0.6       0.2       0.8       0.1
16 O  pz              0.1       1.0       2.4       0.2       2.9       0.0
16 O  px              0.0       1.1       6.2       0.3       1.9       1.3
16 O  py              2.2       6.3       2.9       0.9       5.5       0.5
17 H  s               3.8       7.1       0.1       0.3       0.6       0.1
18 H  s               0.3       0.4       7.7       0.5       5.0       4.1
19 H  s               0.1       0.7       0.2       0.0       0.1       1.4
20 H  s               2.8       1.5       1.5       0.0       0.5       0.2
21 H  s               0.7       0.0       0.3       0.1       0.3       0.0
22 H  s               0.6       1.0       0.0       0.1       0.0       0.2
23 H  s               0.0       0.1       0.5       0.0       0.1       0.5

                     36        37        38        39        40        41   
                  -0.33670  -0.32118  -0.30707  -0.29184  -0.28238  -0.26223
                   2.00000   2.00000   2.00000   2.00000   2.00000   2.00000
                  --------  --------  --------  --------  --------  --------
 0 C  s               0.4       0.1       0.1       0.2       0.0       0.4
 0 C  pz              1.8       1.4       0.0       6.6       0.0       0.4
 0 C  px              0.2       0.6       0.1       0.4       0.1       0.3
 0 C  py              0.7       2.5       0.0       4.8       0.1       0.4
 0 C  dxz             0.0       0.0       0.0       0.7       0.0       0.0
[...]
 3 C  dx2y2           0.1       0.1       0.0       0.0       0.0       0.1
 3 C  dxy             0.1       0.0       0.0       0.1       0.2       0.0
 5 C  s               0.1       1.0       0.2       0.6       0.5       0.0
 5 C  pz              0.1       0.8       0.3       1.1       1.5       0.0
 5 C  dz2             0.5       4.6       0.7       1.8       3.2       0.2
 5 C  dxz             0.0       0.0       0.7       1.0       0.2       0.1
 5 C  dyz             0.0       0.1       0.0       0.2       0.8       0.0
 7 C  s               0.0       0.2       1.1       0.2       1.1       0.0
 7 C  pz              0.0       0.1       0.6       0.2       1.7       0.2
 7 C  px              0.0       0.0       0.3       0.0       0.6       0.0
 7 C  py              0.0       0.0       0.1       0.1       0.4       0.1
 7 C  dz2             0.0       0.1       0.4       0.6       1.9       0.1
 7 C  dxz             0.1       0.9       2.0       0.4       2.1       0.1
 7 C  dyz             0.0       0.0       1.7       0.0       2.5       0.0
 7 C  dx2y2           0.0       0.1       0.0       0.3       0.0       0.0
 7 C  dxy             0.0       0.0       0.5       0.0       0.6       0.1
 8 H  s               0.0       0.0       0.0       0.0       0.1       0.0
 9 C  s               0.1       0.1       0.9       1.3       0.4       1.3
 9 C  pz              0.0       0.1       1.5       1.2       0.2       0.8
 9 C  px              0.0       0.1       0.0       0.1       0.1       1.7
 9 C  py              0.0       0.0       0.3       0.3       0.2       0.0
 9 C  dz2             0.0       0.0       1.4       2.2       1.7       0.4
 9 C  dxz             0.0       0.3       0.2       0.1       0.3       3.2
 9 C  dyz             0.2       0.0       4.4       2.8       0.2       0.0
 9 C  dx2y2           0.0       0.1       0.4       0.0       0.1       2.4
11 O  s               0.1       0.2       0.1       0.0       0.0       0.0
11 O  pz              0.0       0.0       0.1       0.0       0.0       0.2
11 O  px              0.1       0.2       0.0       0.1       0.1       6.0
11 O  py              0.1       0.0       0.0       0.0       0.0       0.4
11 O  dz2             1.4       0.0       0.0       0.0       0.1       3.4
11 O  dxz             0.0       1.0       0.8       0.0       0.6      36.4
11 O  dyz             0.0       0.0       0.0       0.0       0.0       0.7
11 O  dx2y2           0.1       0.5       0.7       0.3       1.2       1.4
11 O  dxy             2.2       0.8       0.6       2.5       0.4      20.3
12 O  s               0.1       0.0       1.5       2.2       0.8       0.1
12 O  pz              0.0       0.0       1.2       1.0       0.2       0.1
12 O  py              0.0       0.0       0.9       1.0       0.5       0.0
12 O  dz2             0.5       0.1      18.4      10.2       1.3       0.3
12 O  dxz             0.0       0.0       0.1       0.0       0.3       0.0
12 O  dyz             0.5       0.1      12.6      14.1       5.1       0.2
12 O  dx2y2           0.0       0.0       0.1       0.3       0.6       0.2
13 O  s               0.0       0.1       0.9       0.4       3.5       0.2
13 O  pz              0.0       0.2       1.4       0.2       2.0       0.0
13 O  px              0.0       0.0       0.0       0.0       0.3       0.0
13 O  py              0.0       0.1       0.2       0.1       0.3       0.0
13 O  dz2             0.0       0.7       6.8       0.1       5.7       0.1
13 O  dxz             0.0       0.8      12.1       1.4      16.9       0.2
13 O  dyz             0.3       1.5       3.7       2.2       7.1       0.4
13 O  dx2y2           0.0       0.2       0.0       0.2       0.6       0.0
13 O  dxy             0.1       0.6       1.6       1.3       2.6       0.4
14 O  s               0.2       0.9       0.4       1.6       2.2       0.0
14 O  pz              0.1       1.1       0.4       1.1       1.4       0.0
14 O  px              0.0       0.4       0.0       0.1       0.3       0.0
14 O  dz2             1.3      16.2       5.4      14.3      15.9       0.2
14 O  dxz             0.4       3.0       0.0       0.3       2.3       0.3
14 O  dyz             0.1       2.4       0.9       0.6       0.2       0.0
14 O  dxy             0.0       0.7       0.0       0.1       0.0       0.0
15 O  s               1.1       1.6       0.4       2.1       0.4       0.1
15 O  pz              1.0       1.8       0.3       1.3       0.3       0.0
15 O  py              0.1       0.2       0.0       0.1       0.0       0.0
15 O  dz2             4.7       9.0       2.1       8.5       1.9       0.0
15 O  dxz             2.5       5.7       0.5       1.2       0.0       0.1
15 O  dyz             6.0      10.6       2.1       7.1       0.9       0.3
15 O  dx2y2           0.3       0.4       0.1       0.3       0.0       0.1
15 O  dxy             0.4       0.6       0.0       0.2       0.0       0.1
16 O  s               2.8       1.0       0.2       0.0       0.1       0.4
16 O  px              2.7       1.0       0.1       0.0       0.0       0.3
16 O  py              0.4       0.1       0.0       0.0       0.0       0.0
16 O  dz2            10.7       3.2       0.4       0.0       0.1       0.2
16 O  dxz             4.3       1.8       0.3       0.0       0.1       0.9
16 O  dyz             0.6       0.1       0.0       0.0       0.0       0.1
16 O  dx2y2           8.6       2.8       0.5       0.0       0.1       1.3
16 O  dxy            24.7       6.1       0.7       0.0       0.3       0.6
19 H  s               0.0       0.0       0.4       0.3       0.1       0.0
20 H  s               0.0       0.1       0.4       0.1       0.3       0.0
21 H  s               0.0       0.3       0.1       0.2       0.2       0.0
22 H  s               0.2       0.3       0.1       0.1       0.0       0.0
23 H  s               0.5       0.2       0.0       0.0       0.0       0.0



                      *****************************
                      * MAYER POPULATION ANALYSIS *
                      *****************************

  NA   - Mulliken gross atomic population
  ZA   - Total nuclear charge
  QA   - Mulliken gross atomic charge
  VA   - Mayer's total valence
  BVA  - Mayer's bonded valence
  FA   - Mayer's free valence

  ATOM       NA         ZA         QA         VA         BVA        FA
  0 C      6.0139     6.0000    -0.0139     3.9419     3.9419    -0.0000
  1 C      5.9914     6.0000     0.0086     4.0862     4.0862    -0.0000
  2 H      0.9584     1.0000     0.0416     0.9729     0.9729    -0.0000
  3 C      5.9655     6.0000     0.0345     3.9457     3.9457     0.0000
  4 H      0.9369     1.0000     0.0631     0.9991     0.9991     0.0000
  5 C      5.9737     6.0000     0.0263     4.0595     4.0595    -0.0000
  6 H      0.9183     1.0000     0.0817     0.9719     0.9719     0.0000
  7 C      5.9287     6.0000     0.0713     3.9760     3.9760     0.0000
  8 H      0.9107     1.0000     0.0893     0.9772     0.9772     0.0000
  9 C      5.8235     6.0000     0.1765     4.1378     4.1378     0.0000
 10 H      0.9330     1.0000     0.0670     0.9774     0.9774     0.0000
 11 O      8.3113     8.0000    -0.3113     2.1690     2.1690     0.0000
 12 O      8.3827     8.0000    -0.3827     2.0504     2.0504    -0.0000
 13 O      8.4276     8.0000    -0.4276     2.0144     2.0144    -0.0000
 14 O      8.3866     8.0000    -0.3866     2.0528     2.0528    -0.0000
 15 O      8.4206     8.0000    -0.4206     2.0294     2.0294    -0.0000
 16 O      8.4299     8.0000    -0.4299     2.0084     2.0084    -0.0000
 17 H      0.9301     1.0000     0.0699     0.9604     0.9604    -0.0000
 18 H      0.8634     1.0000     0.1366     1.0155     1.0155    -0.0000
 19 H      0.7017     1.0000     0.2983     0.8960     0.8960    -0.0000
 20 H      0.7013     1.0000     0.2987     0.9328     0.9328    -0.0000
 21 H      0.6925     1.0000     0.3075     0.8814     0.8814    -0.0000
 22 H      0.6931     1.0000     0.3069     0.8837     0.8837     0.0000
 23 H      0.7049     1.0000     0.2951     0.8834     0.8834    -0.0000

  Mayer bond orders larger than 0.100000
B(  0-C ,  1-C ) :   1.0359 B(  0-C , 16-O ) :   1.0346 B(  0-C , 17-H ) :   0.9147 
B(  0-C , 18-H ) :   0.8851 B(  1-C ,  2-H ) :   0.8941 B(  1-C ,  3-C ) :   0.9957 
B(  1-C , 11-O ) :   1.0234 B(  3-C ,  4-H ) :   0.8856 B(  3-C ,  5-C ) :   0.9813 
B(  3-C , 15-O ) :   1.0088 B(  5-C ,  6-H ) :   0.9041 B(  5-C ,  7-C ) :   0.9967 
B(  5-C , 14-O ) :   1.0892 B(  7-C ,  8-H ) :   0.8837 B(  7-C ,  9-C ) :   0.9846 
B(  7-C , 13-O ) :   1.0617 B(  9-C , 10-H ) :   0.9022 B(  9-C , 11-O ) :   1.0351 
B(  9-C , 12-O ) :   1.1234 B( 12-O , 19-H ) :   0.8386 B( 13-O , 20-H ) :   0.8166 
B( 14-O , 21-H ) :   0.8359 B( 15-O , 22-H ) :   0.8415 B( 16-O , 23-H ) :   0.8527 


-------
TIMINGS
-------

Total SCF time: 0 days 0 hours 0 min 6 sec 

Total time                  ....       6.341 sec
Sum of individual times     ....       6.306 sec  ( 99.5%)

SCF preparation             ....       0.076 sec  (  1.2%)
Fock matrix formation       ....       5.954 sec  ( 93.9%)
  Startup                   ....       0.008 sec  (  0.1% of F)
  Split-RI-J                ....       3.147 sec  ( 52.9% of F)
  XC integration            ....       2.717 sec  ( 45.6% of F)
    XC Preparation          ....       0.000 sec  (  0.0% of XC)
    Basis function eval.    ....       1.111 sec  ( 40.9% of XC)
    Density eval.           ....       0.623 sec  ( 22.9% of XC)
    XC-Functional eval.     ....       0.162 sec  (  6.0% of XC)
    XC-Potential eval.      ....       0.634 sec  ( 23.3% of XC)
Diagonalization             ....       0.000 sec  (  0.0%)
Density matrix formation    ....       0.092 sec  (  1.4%)
Total Energy calculation    ....       0.002 sec  (  0.0%)
Population analysis         ....       0.063 sec  (  1.0%)
Orbital Transformation      ....       0.017 sec  (  0.3%)
Orbital Orthonormalization  ....       0.000 sec  (  0.0%)
DIIS solution               ....       0.080 sec  (  1.3%)
  MO trafo                  ....       0.000 sec  (  0.0 % of DIIS)
  Orb grad                  ....       0.000 sec  (  0.0 % of DIIS)
  Energy W gradient         ....       0.000 sec  (  0.0 % of DIIS)
  DIIS error                ....       0.006 sec  (  7.8 % of DIIS)
  DIIS work                 ....       0.064 sec  ( 80.1 % of DIIS)
  Form Q                    ....       0.000 sec  (  0.0 % of DIIS)
  Form QpQm                 ....       0.000 sec  (  0.0 % of DIIS)
  Exp/Cayley                ....       0.000 sec  (  0.0 % of DIIS)
  Orb update                ....       0.000 sec  (  0.0 % of DIIS)
  Wake-sleep                ....       0.001 sec  (  1.5 % of DIIS)
SOSCF solution              ....       0.022 sec  (  0.3%)
  MO trafo                  ....       0.013 sec  ( 59.3 % of SOSCF)
  Orb grad                  ....       0.000 sec  (  0.9 % of SOSCF)
  Rot update                ....       0.002 sec  (  7.3 % of SOSCF)
  Step                      ....       0.007 sec  ( 32.3 % of SOSCF)
Finished LeanSCF after   6.4 sec

Maximum memory used throughout the entire LEANSCF-calculation: 19.2 MB


-------------------------------------------------------------------------------
                          DFT DISPERSION CORRECTION                            
                                                                               
                                DFTD4 V3.4.0                                   
-------------------------------------------------------------------------------
The PBE functional is recognized
Active option DFTDOPT                   ...         5   

-------------------------   ----------------
Dispersion correction           -0.026014681
-------------------------   ----------------

------------------   -----------------
gCP correction             0.157796246
------------------   -----------------

-------------------------   --------------------
FINAL SINGLE POINT ENERGY      -685.692191976995
-------------------------   --------------------


------------------------------------------------------------------------------
                              ORCA PROPERTY CALCULATIONS
------------------------------------------------------------------------------

GBWName                                 ... sp.gbw
Number of atoms                         ...     24
Number of basis functions               ...    192
Max core memory                         ...   1024 MB

Electric properties:
Dipole moment                           ... YES
Quadrupole moment                       ...  NO
Static polarizability (Dipole/Dipole)   ...  NO
Static polarizability (Dipole/Quad.)    ...  NO
Static polarizability (Quad./Quad.)     ...  NO
Static polarizability (Velocity)        ...  NO

Atomic electric properties:
Dipole moment                           ...  NO
Quadrupole moment                       ...  NO
Static polarizability                   ...  NO

Choice of electric origin               ... Center of mass
Position of electric origin             ...    -0.000005    -0.000001    -0.000000

General magnetic properties:
Magnetizability                         ...  NO

EPR properties:
g-Tensor (aka g-matrix)                 ...  NO
Zero-Field splitting spin-orbit         ...  NO
Zero-field splitting spin-spin          ...  NO
Hyperfine couplings                     ...  NO (   0 nuclei)
Quadrupole couplings                    ...  NO (   0 nuclei)
Contact density                         ...  NO (   0 nuclei)

NMR properties:
Chemical shifts                         ...  NO (   0 nuclei)
Spin-rotation constants                 ...  NO (   0 nuclei)
Spin-spin couplings                     ...  NO (   0 nuclei,    0 pairs)

Choice of magnetic origin               ... GIAO
Position of magnetic origin             ...     0.000000     0.000000     0.000000

Properties with geometric perturbations:
SCF Hessian                             ...  NO
IR spectrum                             ...  NO
VCD spectrum                            ...  NO
X-ray spectroscopy properties:
SCF XES/XAS/RIXS spectra                ...  NO


-------------
DIPOLE MOMENT
-------------

Method             : SCF
Type of density    : Electron Density
Multiplicity       :   1
Irrep              :   0
Energy             :  -685.8239735412666960 Eh
Relativity type    : 
Basis              : AO
                                X                 Y                 Z
Electronic contribution:      2.026182850       0.060992344       0.823851197
Nuclear contribution   :     -3.575128819      -0.411117645      -0.157979190
                        -----------------------------------------
Total Dipole Moment    :     -1.548945970      -0.350125301       0.665872007
                        -----------------------------------------
Magnitude (a.u.)       :      1.721977605
Magnitude (Debye)      :      4.376919233



--------------------
Rotational spectrum 
--------------------
 
Rotational constants in cm-1:             0.040659             0.028939             0.025201 
Rotational constants in MHz :          1218.928650           867.564724           755.493871 

Dipole components along the rotational axes: 
x,y,z [a.u.] :    -1.325476    -0.543297     0.955587 
x,y,z [Debye]:    -3.369093    -1.380952     2.428910 

 

Dipole moment calculation done in   0.0 sec 

Maximum memory used throughout the entire PROP-calculation: 12.8 MB

--------------------------------
SUGGESTED CITATIONS FOR THIS RUN
--------------------------------

Below you find a list of papers that are relevant to this ORCA run
We neither can nor want to force you to cite these papers, but we appreciate if you do
You receive ORCA, which is the product of decades of hard work by many enthusiastic individuals, for free
The only thing we kindly ask in return is that you cite our papers,
We deeply appreciate it, if you show your appreciation for ORCA by not just citing the generic ORCA reference.

Please note that relegating all ORCA citations to the supporting information does *not* help us.
SI sections are not indexed - citations you put there will not count into any citation statistics
But we need these citations in order to attract the funding resources that allow us to do what we are doing

Therefore, if you are a happy ORCA user, please consider citing a few of the papers listed below in the main body of your paper

In addition to the list printed below, the program has created the file sp.bibtex that contains the list in bibtex format
You can import this file easily into all common literature databanks and citation aid programs


List of essential papers. We consider these as the minimum necessary citations

  1. Neese,F.
     Software update: the ORCA program system, version 5.0
     WIRES Comput. Molec. Sci., 2022 12(1)e1606
     doi.org/10.1002/wcms.1606

List of papers to cite with high priority. The work reported in these papers was absolutely
necessary for this run to complete.
Our perspective: the developers of density functionals and basis sets usually get cited in chemistry papers
Good! But without the algorithms to do something with them, the functionals or basis sets would not do anything.
Hence, in our opinion, the algorithm design and method developments papers are equally worthy of getting cited

  1. Neese,F.
     An improvement of the resolution of the identity approximation for the formation of the Coulomb matrix
     J. Comp. Chem., 2003 24(14)1740-1747
     doi.org/10.1002/jcc.10318
  2. Neese,F.
     The SHARK Integral Generation and Digestion System
     J. Comp. Chem., 2022  1-16
     doi.org/10.1002/jcc.26942
  3. Caldeweyher,E.; Bannwarth,C.; Grimme,S.
     Extension of the D3 dispersion coefficient model
     J. Chem. Phys., 2017 147 034112
     doi.org/10.1063/1.4993215
  4. Caldeweyher,E.; Ehlert,S.; Hansen,A.; Neugebauer,H.; Spicher,S.; Bannwarth,C.; Grimme,S.
     A generally applicable atomic-charge dependent London dispersion correction
     J. Chem. Phys., 2019 150 154122
     doi.org/10.1063/1.5090222
  5. Caldeweyher,E.; Mewes,J.; Ehlert,S.; Grimme,S.
     Extension and evaluation of the D4 London-dispersion model for periodic systems
     Phys. Chem. Chem. Phys., 2020 22(16)8499-8512
     doi.org/10.1039/D0CP00502A
  6. Wittmann,L.; Gordiy,I.; Friede,M.; Helmich-Paris,B.; Grimme,S.; Hansen,A.; Bursch,M.
     Extension of the D3 and D4 London Dispersion Corrections to the full Actinides Series
     Phys. Chem. Chem. Phys., 2024 26(32)21379-21394
     doi.org/https://doi.org/10.1039/D4CP01514B 

List of suggested additional citations. These are papers that are important in the 'surrounding' of 
of this run, or papers that preceded the highly important papers. If you like your results we are grateful for a citation.

  1. Neese,F.
     The ORCA program system
     WIRES Comput. Molec. Sci., 2012 2(1)73-78
     doi.org/10.1002/wcms.81
  2. Neese,F.
     Software update: the ORCA program system, version 4.0
     WIRES Comput. Molec. Sci., 2018 8(1)1-6
     doi.org/10.1002/wcms.1327
  3. Neese,F.; Wennmohs,F.; Becker,U.; Riplinger,C.
     The ORCA quantum chemistry program package
     J. Chem. Phys., 2020 152 Art. No. L224108
     doi.org/10.1063/5.0004608

List of optional additional citations

  1. Neese,F.
     Approximate second-order SCF convergence for spin unrestricted wavefunctions
     Chem. Phys. Lett., 2000 325(1-3)93-98
     doi.org/10.1016/s0009-2614(00)00662-x

Timings for individual modules:

Sum of individual times          ...        7.927 sec (=   0.132 min)
Startup calculation              ...        0.695 sec (=   0.012 min)   8.8 %
SCF iterations                   ...        7.166 sec (=   0.119 min)  90.4 %
Property calculations            ...        0.067 sec (=   0.001 min)   0.8 %
                             ****ORCA TERMINATED NORMALLY****
TOTAL RUN TIME: 0 days 0 hours 0 minutes 8 seconds 358 msec
