
                                 *****************
                                 * O   R   C   A *
                                 *****************

                                            #,                                       
                                            ###                                      
                                            ####                                     
                                            #####                                    
                                            ######                                   
                                           ########,                                 
                                     ,,################,,,,,                         
                               ,,#################################,,                 
                          ,,##########################################,,             
                       ,#########################################, ''#####,          
                    ,#############################################,,   '####,        
                  ,##################################################,,,,####,       
                ,###########''''           ''''###############################       
              ,#####''   ,,,,##########,,,,          '''####'''          '####       
            ,##' ,,,,###########################,,,                        '##       
           ' ,,###''''                  '''############,,,                           
         ,,##''                                '''############,,,,        ,,,,,,###''
      ,#''                                            '''#######################'''  
     '                                                          ''''####''''         
             ,#######,   #######,   ,#######,      ##                                
            ,#'     '#,  ##    ##  ,#'     '#,    #''#        ,####,   ,####,        
            ##       ##  ##   ,#'  ##            #'  '#       #'       #'  '#        
            ##       ##  #######   ##           ,######,      #####,   #    #        
            '#,     ,#'  ##    ##  '#,     ,#' ,#      #,     #,   #   #,  ,#        
             '#######'   ##     ##  '#######'  #'      '#     '####' # '####'        



                #########################################################
                #                        -***-                          #
                #          Department of theory and spectroscopy        #
                #                                                       #
                #                      Frank Neese                      #
                #                                                       #
                #     Directorship, Architecture, Infrastructure        #
                #                    SHARK, DRIVERS                     #
                #        Core code/Algorithms in most modules           #
                #                                                       #
                #        Max Planck Institute fuer Kohlenforschung      #
                #                Kaiser Wilhelm Platz 1                 #
                #                 D-45470 Muelheim/Ruhr                 #
                #                      Germany                          #
                #                                                       #
                #                  All rights reserved                  #
                #                        -***-                          #
                #########################################################


                         Program Version 6.0.0  -   RELEASE  -


 With contributions from (in alphabetic order):
   Daniel Aravena         : Magnetic Suceptibility
   Michael Atanasov       : Ab Initio Ligand Field Theory (pilot matlab implementation)
   Alexander A. Auer      : GIAO ZORA, VPT2 properties, NMR spectrum
   Ute Becker             : All parallelization in ORCA, NUMFREQ, NUMCALC
   Giovanni Bistoni       : ED, misc. LED, open-shell LED, HFLD
   Martin Brehm           : Molecular dynamics
   Dmytro Bykov           : pre 5.0 version of the SCF Hessian
   Marcos Casanova-Páez   : Triplet and SCS-CIS(D). UHF-(DLPNO)-IP/EA/STEOM-CCSD. UHF-CVS-IP/STEOM-CCSD
   Vijay G. Chilkuri      : MRCI spin determinant printing, contributions to CSF-ICE
   Pauline Colinet        : FMM embedding
   Dipayan Datta          : RHF DLPNO-CCSD density
   Achintya Kumar Dutta   : EOM-CC, STEOM-CC
   Nicolas Foglia         : Exact transition moments, OPA infrastructure, MCD improvements
   Dmitry Ganyushin       : Spin-Orbit,Spin-Spin,Magnetic field MRCI
   Miquel Garcia          : C-PCM and meta-GGA Hessian, CCSD/C-PCM, Gaussian charge scheme
   Tiago L. C. Gouveia    : GS-ROHF, GS-ROCIS
   Yang Guo               : DLPNO-NEVPT2, F12-NEVPT2, CIM, IAO-localization
   Andreas Hansen         : Spin unrestricted coupled pair/coupled cluster methods
   Ingolf Harden          : AUTO-CI MPn and infrastructure 
   Benjamin Helmich-Paris : MC-RPA, TRAH-(SCF,CASSCF), AVAS, COSX integrals, SCF dyn. polar.
   Lee Huntington         : MR-EOM, pCC
   Robert Izsak           : Overlap fitted RIJCOSX, COSX-SCS-MP3, EOM
   Riya Kayal             : Wick's Theorem for AUTO-CI, AUTO-CI UHF-CCSDT
   Emily Kempfer          : AUTO-CI, RHF CISDT and CCSDT
   Christian Kollmar      : KDIIS, OOCD, Brueckner-CCSD(T), CCSD density, CASPT2, CASPT2-K, improved NEVPT2
   Axel Koslowski         : Symmetry handling
   Simone Kossmann        : Meta GGA functionals, TD-DFT gradient, OOMP2, (MP2 Hessian; deprecated post 5.0)
   Lucas Lang             : DCDCAS
   Marvin Lechner         : AUTO-CI (C++ implementation), FIC-MRCC
   Spencer Leger          : CASSCF response
   Dagmar Lenk            : GEPOL surface, SMD, ORCA-2-JSON
   Dimitrios Liakos       : Extrapolation schemes; Compound Job, initial MDCI parallelization
   Dimitrios Manganas     : Further ROCIS development; embedding schemes. LFT, Crystal Embedding
   Dimitrios Pantazis     : SARC Basis sets
   Anastasios Papadopoulos: AUTO-CI, single reference methods and gradients
   Taras Petrenko         : pre 6.0 DFT Hessian and TD-DFT gradient, (ASA, deprecated), ECA, 1-Electron XAS/XES, NRVS
   Peter Pinski           : DLPNO-MP2, DLPNO-MP2 Gradient
   Christoph Reimann      : Effective Core Potentials
   Marius Retegan         : Local ZFS, SOC
   Christoph Riplinger    : Optimizer, TS searches, QM/MM, DLPNO-CCSD(T), (RO)-DLPNO pert. Triples
   Michael Roemelt        : Original ROCIS implementation
   Masaaki Saitow         : Open-shell DLPNO-CCSD energy and density
   Barbara Sandhoefer     : DKH picture change effects
   Kantharuban Sivalingam : CASSCF convergence/infrastructure, NEVPT2 and variants, FIC-MRCI
   Bernardo de Souza      : ESD, SOC TD-DFT
   Georgi Stoychev        : AutoAux, RI-MP2 NMR, DLPNO-MP2 response, X2C
   Van Anh Tran           : RI-MP2 g-tensors
   Willem Van den Heuvel  : Paramagnetic NMR
   Zikuan Wang            : NOTCH, Electric field optimization 
   Frank Wennmohs         : Technical directorship and infrastructure
   Hang Xu                : AUTO-CI-Response properties 


 We gratefully acknowledge several colleagues who have allowed us to
 interface, adapt or use parts of their codes:
   Stefan Grimme, W. Hujo, H. Kruse, P. Pracht,  : VdW corrections, initial TS optimization,
                  C. Bannwarth, S. Ehlert,         DFT functionals, gCP, sTDA/sTD-DF
                  L. Wittmann, M. Mueller
   Ed Valeev, F. Pavosevic, A. Kumar             : LibInt (2-el integral package), F12 methods
   Garnet Chan, S. Sharma, J. Yang, R. Olivares  : DMRG
   Ulf Ekstrom                                   : XCFun DFT Library
   Mihaly Kallay                                 : mrcc  (arbitrary order and MRCC methods)
   Frank Weinhold                                : gennbo (NPA and NBO analysis)
   Simon Mueller                                 : openCOSMO-RS
   Christopher J. Cramer and Donald G. Truhlar   : smd solvation model
   Lars Goerigk                                  : TD-DFT with DH, B97 family of functionals
   V. Asgeirsson, H. Jonsson                     : NEB implementation
   FAccTs GmbH                                   : IRC, NEB, NEB-TS, DLPNO-Multilevel, CI-OPT
                                                   MM, QMMM, 2- and 3-layer-ONIOM, Crystal-QMMM,
                                                   LR-CPCM, SF, NACMEs, symmetry and pop. for TD-DFT,
                                                   nearIR, NL-DFT gradient (VV10), updates on ESD,
                                                   ML-optimized integration grids, MBIS, APM,
                                                   GOAT, DOCKER, SOLVATOR, interface openCOSMO-RS
   S Lehtola, MJT Oliveira, MAL Marques          : LibXC Library
   Liviu Ungur et al                             : ANISO software


 Your calculation uses the libint2 library for the computation of 2-el integrals
 For citations please refer to: http://libint.valeyev.net

 Your ORCA version has been built with support for libXC version: 6.2.2
 For citations please refer to: https://libxc.gitlab.io

 This ORCA versions uses:
   CBLAS   interface :  Fast vector & matrix operations
   LAPACKE interface :  Fast linear algebra routines
   SCALAPACK package :  Parallel linear algebra routines
   Shared memory     :  Shared parallel matrices
   BLAS/LAPACK       :  OpenBLAS 0.3.27  USE64BITINT DYNAMIC_ARCH NO_AFFINITY SkylakeX SINGLE_THREADED
        Core in use  :  SkylakeX
   Copyright (c) 2011-2014, The OpenBLAS Project




***************************************
The coordinates will be read from file: censo.xyz
***************************************


XCFun DFT library Copyright 2009-2010 Ulf Ekstrom and contributors.
See http://admol.org/xcfun for more information.
This is free software; see the source code for copying conditions.
There is ABSOLUTELY NO WARRANTY; not even for MERCHANTABILITY or FITNESS FOR A PARTICULAR PURPOSE.
For details see the documentation.
Scientific users of this library should cite U. Ekstrom, L. Visscher, R. Bast, A. J. Thorvaldsen and K. Ruud;
J.Chem.Theor.Comp. 2010, DOI: 10.1021/ct100117s
XCFun Version 0.99 

Warning: RI is on but no J-basis has been assigned. Assigning Def2/J (nothing to worry about!)
================================================================================

----- Orbital basis set information -----
Your calculation utilizes the basis: def2-TZVP
   F. Weigend and R. Ahlrichs, Phys. Chem. Chem. Phys. 7, 3297 (2005).

----- AuxJ basis set information -----
Your calculation utilizes the auxiliary basis: def2/J
   F. Weigend, Phys. Chem. Chem. Phys. 8, 1057 (2006).

================================================================================
                                        WARNINGS
                       Please study these warnings very carefully!
================================================================================

WARNING: Functional chosen is sensitive to the integration grid.
         DEFGRID3 seems to be a minimum grid for robust results!

================================================================================
                                       INPUT FILE
================================================================================
NAME = censo.inp
|  1> ! M062X DEF2-TZVP FREQ
|  2> * xyzfile 0 1 censo.xyz
|  3> 
|  4>                          ****END OF INPUT****
================================================================================

                       ****************************
                       * Single Point Calculation *
                       ****************************

---------------------------------
CARTESIAN COORDINATES (ANGSTROEM)
---------------------------------
  C      0.977984    2.103046   -0.383637
  C      0.348287    0.856372    0.203111
  H      0.113113    0.989117    1.260993
  C     -0.878612    0.463935   -0.580427
  Cl    -1.780503   -0.935053    0.171523
  Cl     1.581441   -0.522924    0.165524
  H      0.264836    2.930028   -0.300774
  H      1.881793    2.373038    0.166129
  H      1.229006    1.960820   -1.438335
  H     -1.574129    1.306934   -0.588486
  H     -0.635063    0.174508   -1.604124

----------------------------
CARTESIAN COORDINATES (A.U.)
----------------------------
  NO LB      ZA    FRAG     MASS         X           Y           Z
   0 C     6.0000    0    12.011    1.848123    3.974181   -0.724970
   1 C     6.0000    0    12.011    0.658166    1.618309    0.383825
   2 H     1.0000    0     1.008    0.213753    1.869161    2.382931
   3 C     6.0000    0    12.011   -1.660336    0.876709   -1.096848
   4 Cl   17.0000    0    35.453   -3.364662   -1.766994    0.324132
   5 Cl   17.0000    0    35.453    2.988490   -0.988182    0.312795
   6 H     1.0000    0     1.008    0.500468    5.536951   -0.568381
   7 H     1.0000    0     1.008    3.556073    4.484391    0.313937
   8 H     1.0000    0     1.008    2.322484    3.705413   -2.718059
   9 H     1.0000    0     1.008   -2.974672    2.469748   -1.112078
  10 H     1.0000    0     1.008   -1.200096    0.329772   -3.031356

--------------------------------
INTERNAL COORDINATES (ANGSTROEM)
--------------------------------
 C      0   0   0     0.000000000000     0.00000000     0.00000000
 C      1   0   0     1.514921866299     0.00000000     0.00000000
 H      2   1   0     1.091806186806   111.39263985     0.00000000
 C      2   1   3     1.507720253506   110.55829351   124.03836689
 Cl     4   2   1     1.826472671760   112.78234447   185.66691456
 Cl     2   1   3     1.850550989865   109.17847474   244.85597699
 H      1   2   3     1.095146899501   108.75004464   298.64294166
 H      1   2   3     1.091790947185   110.64459121    57.49217646
 H      1   2   3     1.093447146677   111.22129198   178.96548227
 H      4   2   1     1.092912066771   108.71872018   303.21603530
 H      4   2   1     1.091347874882   112.01813334    64.80834743

---------------------------
INTERNAL COORDINATES (A.U.)
---------------------------
 C      0   0   0     0.000000000000     0.00000000     0.00000000
 C      1   0   0     2.862787441595     0.00000000     0.00000000
 H      2   1   0     2.063214684383   111.39263985     0.00000000
 C      2   1   3     2.849178365693   110.55829351   124.03836689
 Cl     4   2   1     3.451533140718   112.78234447   185.66691456
 Cl     2   1   3     3.497034567702   109.17847474   244.85597699
 H      1   2   3     2.069527716469   108.75004464   298.64294166
 H      1   2   3     2.063185885674   110.64459121    57.49217646
 H      1   2   3     2.066315649137   111.22129198   178.96548227
 H      4   2   1     2.065304494656   108.71872018   303.21603530
 H      4   2   1     2.062348600365   112.01813334    64.80834743

---------------------
BASIS SET INFORMATION
---------------------
There are 3 groups of distinct atoms

 Group   1 Type C   : 11s6p2d1f contracted to 5s3p2d1f pattern {62111/411/11/1}
 Group   2 Type H   : 5s1p contracted to 3s1p pattern {311/1}
 Group   3 Type Cl  : 14s9p3d1f contracted to 5s5p2d1f pattern {73211/51111/21/1}

Atom   0C    basis set group =>   1
Atom   1C    basis set group =>   1
Atom   2H    basis set group =>   2
Atom   3C    basis set group =>   1
Atom   4Cl   basis set group =>   3
Atom   5Cl   basis set group =>   3
Atom   6H    basis set group =>   2
Atom   7H    basis set group =>   2
Atom   8H    basis set group =>   2
Atom   9H    basis set group =>   2
Atom  10H    basis set group =>   2
---------------------------------
AUXILIARY/J BASIS SET INFORMATION
---------------------------------
There are 3 groups of distinct atoms

 Group   1 Type C   : 12s5p4d2f1g contracted to 6s4p3d1f1g pattern {711111/2111/211/2/1}
 Group   2 Type H   : 5s2p1d contracted to 3s1p1d pattern {311/2/1}
 Group   3 Type Cl  : 14s5p5d2f1g contracted to 8s4p3d1f1g pattern {71111111/2111/311/2/1}

Atom   0C    basis set group =>   1
Atom   1C    basis set group =>   1
Atom   2H    basis set group =>   2
Atom   3C    basis set group =>   1
Atom   4Cl   basis set group =>   3
Atom   5Cl   basis set group =>   3
Atom   6H    basis set group =>   2
Atom   7H    basis set group =>   2
Atom   8H    basis set group =>   2
Atom   9H    basis set group =>   2
Atom  10H    basis set group =>   2
------------------------------------------------------------------------------
                             ORCA STARTUP CALCULATIONS
                           -- RI-GTO INTEGRALS CHOSEN --
------------------------------------------------------------------------------
------------------------------------------------------------------------------
                   ___                                                        
                  /   \      - P O W E R E D   B Y -                         
                 /     \                                                     
                 |  |  |   _    _      __       _____    __    __             
                 |  |  |  | |  | |    /  \     |  _  \  |  |  /  |          
                  \  \/   | |  | |   /    \    | | | |  |  | /  /          
                 / \  \   | |__| |  /  /\  \   | |_| |  |  |/  /          
                |  |  |   |  __  | /  /__\  \  |    /   |      \           
                |  |  |   | |  | | |   __   |  |    \   |  |\   \          
                \     /   | |  | | |  |  |  |  | |\  \  |  | \   \       
                 \___/    |_|  |_| |__|  |__|  |_| \__\ |__|  \__/        
                                                                              
                      - O R C A' S   B I G   F R I E N D -                    
                                      &                                       
                       - I N T E G R A L  F E E D E R -                       
                                                                              
 v1 FN, 2020, v2 2021, v3 2022-2024                                           
------------------------------------------------------------------------------


----------------------
SHARK INTEGRAL PACKAGE
----------------------

Number of atoms                             ...     11
Number of basis functions                   ...    203
Number of shells                            ...     83
Maximum angular momentum                    ...      3
Integral batch strategy                     ... SHARK/LIBINT Hybrid
RI-J (if used) integral strategy            ... SPLIT-RIJ (Revised 2003 algorithm where possible)
Printlevel                                  ...      1
Contraction scheme used                     ... SEGMENTED contraction
Prescreening option                         ... SCHWARTZ
   Thresh                                   ... 1.000e-10
   Tcut                                     ... 1.000e-11
   Tpresel                                  ... 1.000e-11 
Coulomb Range Separation                    ... NOT USED
Exchange Range Separation                   ... NOT USED
Multipole approximations                    ... NOT USED
Finite Nucleus Model                        ... NOT USED
CABS basis                                  ... NOT available
Auxiliary Coulomb fitting basis             ... AVAILABLE
   # of basis functions in Aux-J            ...    315
   # of shells in Aux-J                     ...    109
   Maximum angular momentum in Aux-J        ...      4
Auxiliary J/K fitting basis                 ... NOT available
Auxiliary Correlation fitting basis         ... NOT available
Auxiliary 'external' fitting basis          ... NOT available

Checking pre-screening integrals            ... done (  0.0 sec) Dimension = 83
Check shell pair data                       ... done (  0.0 sec)
Shell pair information
Shell pair cut-off parameter TPreSel        ...   1.0e-11
Total number of shell pairs                 ...      3486
Shell pairs after pre-screening             ...      3257
Total number of primitive shell pairs       ...     11481
Primitive shell pairs kept                  ...      8191
          la=0 lb=0:    860 shell pairs
          la=1 lb=0:    992 shell pairs
          la=1 lb=1:    302 shell pairs
          la=2 lb=0:    415 shell pairs
          la=2 lb=1:    240 shell pairs
          la=2 lb=2:     54 shell pairs
          la=3 lb=0:    207 shell pairs
          la=3 lb=1:    122 shell pairs
          la=3 lb=2:     50 shell pairs
          la=3 lb=3:     15 shell pairs

Calculating one electron integrals          ... done (  0.0 sec)
Calculating RI/J V-Matrix + Cholesky decomp.... done (  0.0 sec)
Calculating Nuclear repulsion               ... done (  0.0 sec) ENN=    279.282461827158 Eh

Diagonalization of the overlap matrix:
Smallest eigenvalue                        ... 3.562e-04
Time for diagonalization                   ...    0.004 sec
Threshold for overlap eigenvalues          ... 1.000e-07
Number of eigenvalues below threshold      ... 0
Time for construction of square roots      ...    0.019 sec
Total time needed                          ...    0.036 sec

-------------------
DFT GRID GENERATION
-------------------

General Integration Accuracy     IntAcc      ... 4.388
Radial Grid Type                 RadialGrid  ... OptM3 with GC (2021)
Angular Grid (max. ang.)         AngularGrid ... 4 (Lebedev-302)
Angular grid pruning method      GridPruning ... 4 (adaptive)
Weight generation scheme         WeightScheme... mBecke (2022)
Basis function cutoff            BFCut       ... 1.0000e-10
Integration weight cutoff        WCut        ... 1.0000e-14
Partially contracted basis set               ... off
Rotationally invariant grid construction     ... off
Angular grids for H and He will be reduced by one unit

Total number of grid points                  ...    52140
Total number of batches                      ...      821
Average number of points per batch           ...       63
Average number of grid points per atom       ...     4740

--------------------
COSX GRID GENERATION
--------------------

GRIDX 1
-------
General Integration Accuracy     IntAcc      ... 3.816
Radial Grid Type                 RadialGrid  ... OptM3 with GC (2021)
Angular Grid (max. ang.)         AngularGrid ... 1 (Lebedev-50)
Angular grid pruning method      GridPruning ... 4 (adaptive)
Weight generation scheme         WeightScheme... mBecke (2022)
Basis function cutoff            BFCut       ... 1.0000e-10
Integration weight cutoff        WCut        ... 1.0000e-14
Partially contracted basis set               ... on
Rotationally invariant grid construction     ... off
Angular grids for H and He will be reduced by one unit

Total number of grid points                  ...     8732
Total number of batches                      ...       73
Average number of points per batch           ...      119
Average number of grid points per atom       ...      794
UseSFitting                                  ... on

GRIDX 2
-------
General Integration Accuracy     IntAcc      ... 4.020
Radial Grid Type                 RadialGrid  ... OptM3 with GC (2021)
Angular Grid (max. ang.)         AngularGrid ... 2 (Lebedev-110)
Angular grid pruning method      GridPruning ... 4 (adaptive)
Weight generation scheme         WeightScheme... mBecke (2022)
Basis function cutoff            BFCut       ... 1.0000e-10
Integration weight cutoff        WCut        ... 1.0000e-14
Partially contracted basis set               ... on
Rotationally invariant grid construction     ... off
Angular grids for H and He will be reduced by one unit

Total number of grid points                  ...    13984
Total number of batches                      ...      114
Average number of points per batch           ...      122
Average number of grid points per atom       ...     1271
UseSFitting                                  ... on

GRIDX 3
-------
General Integration Accuracy     IntAcc      ... 4.338
Radial Grid Type                 RadialGrid  ... OptM3 with GC (2021)
Angular Grid (max. ang.)         AngularGrid ... 3 (Lebedev-194)
Angular grid pruning method      GridPruning ... 4 (adaptive)
Weight generation scheme         WeightScheme... mBecke (2022)
Basis function cutoff            BFCut       ... 1.0000e-10
Integration weight cutoff        WCut        ... 1.0000e-14
Partially contracted basis set               ... on
Rotationally invariant grid construction     ... off
Angular grids for H and He will be reduced by one unit

Total number of grid points                  ...    31975
Total number of batches                      ...      255
Average number of points per batch           ...      125
Average number of grid points per atom       ...     2907
UseSFitting                                  ... on
Initializing property integral containers    ... done (  0.0 sec)

SHARK setup successfully completed in   1.4 seconds

Maximum memory used throughout the entire STARTUP-calculation: 28.8 MB
-------------------------------------------------------------------------------
                                 ORCA GUESS
                   Start orbitals & Density for SCF / CASSCF
-------------------------------------------------------------------------------

------------
SCF SETTINGS
------------
Hamiltonian:
 Density Functional     Method          .... DFT(GTOs)
 Exchange Functional    Exchange        .... M062X
 Correlation Functional Correlation     .... M062X
 Gradients option       PostSCFGGA      .... off
 Hybrid DFT is turned on
   Fraction HF Exchange ScalHFX         ....  0.540000
   Scaling of DF-GGA-X  ScalDFX         ....  0.460000
   Scaling of DF-GGA-C  ScalDFC         ....  1.000000
   Scaling of DF-LDA-C  ScalLDAC        ....  1.000000
   Perturbative correction              ....  0.000000
 RI-approximation to the Coulomb term is turned on
   Number of AuxJ basis functions       .... 315
   RIJ-COSX (HFX calculated with COS-X)).... on


General Settings:
 Integral files         IntName         .... censo
 Hartree-Fock type      HFTyp           .... RHF
 Total Charge           Charge          ....    0
 Multiplicity           Mult            ....    1
 Number of Electrons    NEL             ....   58
 Basis Dimension        Dim             ....  203
 Nuclear Repulsion      ENuc            ....    279.2824618272 Eh

Convergence Acceleration:
 AO-DIIS                CNVDIIS         .... on
   Start iteration      DIISMaxIt       ....    12
   Startup error        DIISStart       ....  0.200000
   # of expansion vecs  DIISMaxEq       ....     5
   Bias factor          DIISBfac        ....   1.050
   Max. coefficient     DIISMaxC        ....  10.000
 MO-DIIS                CNVKDIIS        .... off
 Trust-Rad. Augm. Hess. CNVTRAH         .... auto
   Auto Start mean grad. ratio tolernc. ....  1.125000
   Auto Start start iteration           ....    50
   Auto Start num. interpolation iter.  ....    10
   Max. Number of Micro iterations      ....    24
   Max. Number of Macro iterations      .... Maxiter - #DIIS iter
   Number of Davidson start vectors     ....     2
   Converg. threshold    (grad. norm)   ....   5.000e-05
   Grad. Scal. Fac. for Micro threshold ....   0.100
   Minimum threshold for Micro iter.    ....   1.000e-02
   NR start threshold (gradient norm)   ....   1.000e-04
   Initial trust radius                 ....   0.400
   Minimum AH scaling param. (alpha)    ....   1.000
   Maximum AH scaling param. (alpha)    .... 1000.000
   Quad. conv. algorithm                .... NR
   White noise on init. David. guess    .... on
   Maximum white noise                  ....   0.010
   Pseudo random numbers                .... off
   Inactive MOs                         .... canonical
   Orbital update algorithm             .... Taylor
   Preconditioner                       .... Diag
   Full preconditioner red. dimension   ....   250
 SOSCF                  CNVSOSCF        .... on
   Start iteration      SOSCFMaxIt      ....   150
   Startup grad/error   SOSCFStart      ....  0.003300
   Hessian update       SOSCFHessUp     .... L-BFGS
 Level Shifting         CNVShift        .... on
   Level shift para.    LevelShift      ....    0.2500
   Turn off err/grad.   ShiftErr        ....    0.0010
 Zerner damping         CNVZerner       .... off
 Static damping         CNVDamp         .... on
   Fraction old density DampFac         ....    0.7000
   Max. Damping (<1)    DampMax         ....    0.9800
   Min. Damping (>=0)   DampMin         ....    0.0000
   Turn off err/grad.   DampErr         ....    0.1000

SCF Procedure:
 Maximum # iterations   MaxIter         ....   125
 SCF integral mode      SCFMode         .... Direct
   Integral package                     .... SHARK and LIBINT hybrid scheme
 Reset frequency        DirectResetFreq ....    20
 Integral Threshold     Thresh          ....  1.000e-10 Eh
 Primitive CutOff       TCut            ....  1.000e-11 Eh

Convergence Tolerance:
 Convergence Check Mode ConvCheckMode   .... Total+1el-Energy
 Convergence forced     ConvForced      .... 0
 Energy Change          TolE            ....  1.000e-06 Eh
 1-El. energy change                    ....  1.000e-03 Eh
 Orbital Gradient       TolG            ....  5.000e-05
 Orbital Rotation angle TolX            ....  5.000e-05
 DIIS Error             TolErr          ....  1.000e-06

------------------------------
INITIAL GUESS: MODEL POTENTIAL
------------------------------
Loading Hartree-Fock densities                     ... done
Calculating cut-offs                               ... done
Initializing the effective Hamiltonian             ... done
Setting up the integral package (SHARK)            ... done
Starting the Coulomb interaction                   ... done (   0.1 sec)
Making the grid                                    ... done (   0.1 sec)
Mapping shells                                     ... done
Starting the XC term evaluation                    ... done (   0.2 sec)
  promolecular density results
     # of electrons  =     57.997843321
     EX              =    -71.863062481
     EC              =     -2.112916620
     EX+EC           =    -73.975979101
Transforming the Hamiltonian                       ... done (   0.0 sec)
Diagonalizing the Hamiltonian                      ... done (   0.0 sec)
Back transforming the eigenvectors                 ... done (   0.0 sec)
Now organizing SCF variables                       ... done
                      ------------------
                      INITIAL GUESS DONE (   0.5 sec)
                      ------------------
             **** ENERGY FILE WAS UPDATED (censo.en.tmp) ****
Finished Guess after   0.7 sec
Maximum memory used throughout the entire GUESS-calculation: 17.8 MB

-------------------------------------------------------------------------------------------
                                      ORCA LEAN-SCF
                              memory conserving SCF solver
-------------------------------------------------------------------------------------------

----------------------------------------D-I-I-S--------------------------------------------
Iteration    Energy (Eh)           Delta-E    RMSDP     MaxDP     DIISErr   Damp  Time(sec)
-------------------------------------------------------------------------------------------
               ***  Starting incremental Fock matrix formation  ***
    1    -1038.2226278033494964     0.00e+00  1.08e-03  3.18e-02  1.73e-01  0.700   5.2
    2    -1038.2621320273733545    -3.95e-02  8.54e-04  2.10e-02  9.73e-02  0.700   3.7
                               ***Turning on AO-DIIS***
    3    -1038.2815066408782059    -1.94e-02  5.11e-04  1.32e-02  4.38e-02  0.700   3.5
    4    -1038.2930123182850366    -1.15e-02  1.15e-03  2.42e-02  2.64e-02  0.000   3.5
                              *** Initializing SOSCF ***
---------------------------------------S-O-S-C-F--------------------------------------
Iteration    Energy (Eh)           Delta-E    RMSDP     MaxDP     MaxGrad    Time(sec)
--------------------------------------------------------------------------------------
    5    -1038.3177396589694581    -2.47e-02  1.04e-04  3.30e-03  2.27e-03     3.7
               *** Restarting incremental Fock matrix formation ***
    6    -1038.3178101249247902    -7.05e-05  5.37e-05  1.86e-03  2.83e-04     5.0
    7    -1038.3178122424446883    -2.12e-06  1.77e-05  3.87e-04  4.11e-04     4.0
    8    -1038.3178167989165104    -4.56e-06  4.64e-06  1.94e-04  4.55e-05     3.9
    9    -1038.3178168123424712    -1.34e-08  1.68e-06  6.55e-05  2.32e-05     3.5
                 **** Energy Check signals convergence ****

               *****************************************************
               *                     SUCCESS                       *
               *           SCF CONVERGED AFTER   9 CYCLES          *
               *****************************************************

Recomputing exchange energy using gridx3       ... done (    6.969 sec)
Old exchange energy                            :    -39.305475689 Eh
New exchange energy                            :    -39.305495426 Eh
Exchange energy change after final integration :     -0.000019737 Eh
Total energy after final integration           :  -1038.317836549 Eh
             **** ENERGY FILE WAS UPDATED (censo.en.tmp) ****

----------------
TOTAL SCF ENERGY
----------------

Total Energy       :      -1038.31783654934657 Eh          -28254.06474 eV

Components:
Nuclear Repulsion  :        279.28246182715822 Eh            7599.66215 eV
Electronic Energy  :      -1317.60027863950063 Eh          -35853.72635 eV
One Electron Energy:      -1984.45654555194801 Eh          -53999.80790 eV
Two Electron Energy:        666.85626691244727 Eh           18146.08155 eV

Virial components:
Potential Energy   :      -2075.05688876620025 Eh          -56465.16858 eV
Kinetic Energy     :       1036.73905221685345 Eh           28211.10384 eV
Virial Ratio       :          2.00152283675349

DFT components:
N(Alpha)           :       28.999987352068 electrons
N(Beta)            :       28.999987352068 electrons
N(Total)           :       57.999974704137 electrons
E(XC)              :      -35.659368991337 Eh       

---------------
SCF CONVERGENCE
---------------

  Last Energy change         ...    1.3426e-08  Tolerance :   1.0000e-06
  Last MAX-Density change    ...    6.5541e-05  Tolerance :   1.0000e-05
  Last RMS-Density change    ...    1.6833e-06  Tolerance :   1.0000e-06
  Last DIIS Error            ...    2.2673e-03  Tolerance :   1.0000e-06
  Last Orbital Gradient      ...    2.3197e-05  Tolerance :   5.0000e-05
  Last Orbital Rotation      ...    1.2622e-05  Tolerance :   5.0000e-05


----------------
ORBITAL ENERGIES
----------------

  NO   OCC          E(Eh)            E(eV) 
   0   2.0000    -102.635933     -2792.8657 
   1   2.0000    -102.631898     -2792.7559 
   2   2.0000     -10.623503      -289.0802 
   3   2.0000     -10.615712      -288.8682 
   4   2.0000     -10.556197      -287.2487 
   5   2.0000      -9.797701      -266.6090 
   6   2.0000      -9.793762      -266.5018 
   7   2.0000      -7.519707      -204.6216 
   8   2.0000      -7.515645      -204.5111 
   9   2.0000      -7.514618      -204.4831 
  10   2.0000      -7.514558      -204.4815 
  11   2.0000      -7.510772      -204.3785 
  12   2.0000      -7.510614      -204.3742 
  13   2.0000      -0.986175       -26.8352 
  14   2.0000      -0.927897       -25.2494 
  15   2.0000      -0.860400       -23.4127 
  16   2.0000      -0.782682       -21.2979 
  17   2.0000      -0.686625       -18.6840 
  18   2.0000      -0.573889       -15.6163 
  19   2.0000      -0.537024       -14.6132 
  20   2.0000      -0.522262       -14.2115 
  21   2.0000      -0.500187       -13.6108 
  22   2.0000      -0.457336       -12.4447 
  23   2.0000      -0.444034       -12.0828 
  24   2.0000      -0.431043       -11.7293 
  25   2.0000      -0.373409       -10.1610 
  26   2.0000      -0.370512       -10.0821 
  27   2.0000      -0.363006        -9.8779 
  28   2.0000      -0.359119        -9.7721 
  29   0.0000       0.034793         0.9468 
  30   0.0000       0.056631         1.5410 
  31   0.0000       0.074691         2.0325 
  32   0.0000       0.095311         2.5935 
  33   0.0000       0.101889         2.7726 
  34   0.0000       0.122520         3.3339 
  35   0.0000       0.140153         3.8138 
  36   0.0000       0.154730         4.2104 
  37   0.0000       0.165757         4.5105 
  38   0.0000       0.183531         4.9941 
  39   0.0000       0.216324         5.8865 
*Only the first 10 virtual orbitals were printed.

                    ********************************
                    * MULLIKEN POPULATION ANALYSIS *
                    ********************************

-----------------------
MULLIKEN ATOMIC CHARGES
-----------------------
   0 C :   -0.423269
   1 C :   -0.061042
   2 H :    0.164097
   3 C :   -0.193349
   4 Cl:   -0.131551
   5 Cl:   -0.146624
   6 H :    0.143368
   7 H :    0.164842
   8 H :    0.153855
   9 H :    0.156743
  10 H :    0.172931
Sum of atomic charges:    0.0000000

--------------------------------
MULLIKEN REDUCED ORBITAL CHARGES
--------------------------------
  0 C s       :     3.310107  s :     3.310107
      pz      :     1.055796  p :     3.058761
      px      :     1.062421
      py      :     0.940543
      dz2     :     0.016581  d :     0.051294
      dxz     :     0.007383
      dyz     :     0.005210
      dx2y2   :     0.007248
      dxy     :     0.014872
      f0      :     0.000469  f :     0.003108
      f+1     :     0.000327
      f-1     :     0.000575
      f+2     :     0.000342
      f-2     :     0.000340
      f+3     :     0.000544
      f-3     :     0.000513

  1 C s       :     3.190883  s :     3.190883
      pz      :     1.043745  p :     2.721232
      px      :     0.847967
      py      :     0.829520
      dz2     :     0.031750  d :     0.141912
      dxz     :     0.019112
      dyz     :     0.020132
      dx2y2   :     0.031373
      dxy     :     0.039544
      f0      :     0.000785  f :     0.007015
      f+1     :     0.000915
      f-1     :     0.000778
      f+2     :     0.000621
      f-2     :     0.001233
      f+3     :     0.001123
      f-3     :     0.001561

  2 H s       :     0.815543  s :     0.815543
      pz      :     0.013642  p :     0.020360
      px      :     0.003533
      py      :     0.003185

  3 C s       :     3.260295  s :     3.260295
      pz      :     0.992891  p :     2.825244
      px      :     0.929308
      py      :     0.903045
      dz2     :     0.027393  d :     0.102716
      dxz     :     0.013328
      dyz     :     0.015244
      dx2y2   :     0.018937
      dxy     :     0.027815
      f0      :     0.000419  f :     0.005094
      f+1     :     0.001088
      f-1     :     0.000658
      f+2     :     0.000642
      f-2     :     0.000678
      f+3     :     0.000723
      f-3     :     0.000887

  4 Cls       :     5.910817  s :     5.910817
      pz      :     3.832224  p :    11.170417
      px      :     3.787925
      py      :     3.550268
      dz2     :     0.006229  d :     0.045836
      dxz     :     0.005665
      dyz     :     0.010349
      dx2y2   :     0.008826
      dxy     :     0.014766
      f0      :     0.000489  f :     0.004482
      f+1     :     0.000269
      f-1     :     0.000519
      f+2     :     0.000446
      f-2     :     0.001061
      f+3     :     0.000994
      f-3     :     0.000703

  5 Cls       :     5.913696  s :     5.913696
      pz      :     3.949837  p :    11.185861
      px      :     3.649626
      py      :     3.586397
      dz2     :     0.006747  d :     0.042908
      dxz     :     0.004074
      dyz     :     0.004508
      dx2y2   :     0.007919
      dxy     :     0.019660
      f0      :     0.000314  f :     0.004159
      f+1     :     0.000427
      f-1     :     0.000517
      f+2     :     0.000037
      f-2     :     0.000548
      f+3     :     0.001244
      f-3     :     0.001072

  6 H s       :     0.837590  s :     0.837590
      pz      :     0.003644  p :     0.019041
      px      :     0.006644
      py      :     0.008754

  7 H s       :     0.815526  s :     0.815526
      pz      :     0.005533  p :     0.019632
      px      :     0.009858
      py      :     0.004241

  8 H s       :     0.826968  s :     0.826968
      pz      :     0.011442  p :     0.019177
      px      :     0.004177
      py      :     0.003559

  9 H s       :     0.823404  s :     0.823404
      pz      :     0.003389  p :     0.019853
      px      :     0.007671
      py      :     0.008793

 10 H s       :     0.807116  s :     0.807116
      pz      :     0.012486  p :     0.019954
      px      :     0.003729
      py      :     0.003739



                     *******************************
                     * LOEWDIN POPULATION ANALYSIS *
                     *******************************

----------------------
LOEWDIN ATOMIC CHARGES
----------------------
   0 C :   -0.310369
   1 C :   -0.504472
   2 H :    0.144919
   3 C :   -0.476744
   4 Cl:    0.241980
   5 Cl:    0.247611
   6 H :    0.130303
   7 H :    0.131165
   8 H :    0.129376
   9 H :    0.134112
  10 H :    0.132119

-------------------------------
LOEWDIN REDUCED ORBITAL CHARGES
-------------------------------
  0 C s       :     2.836586  s :     2.836586
      pz      :     1.075498  p :     3.189167
      px      :     1.067817
      py      :     1.045852
      dz2     :     0.067897  d :     0.259367
      dxz     :     0.036755
      dyz     :     0.035895
      dx2y2   :     0.042548
      dxy     :     0.076272
      f0      :     0.002865  f :     0.025250
      f+1     :     0.001759
      f-1     :     0.004718
      f+2     :     0.004605
      f-2     :     0.003424
      f+3     :     0.003942
      f-3     :     0.003937

  1 C s       :     2.824000  s :     2.824000
      pz      :     1.063309  p :     3.046309
      px      :     0.996676
      py      :     0.986323
      dz2     :     0.127781  d :     0.579746
      dxz     :     0.089608
      dyz     :     0.079872
      dx2y2   :     0.120927
      dxy     :     0.161558
      f0      :     0.004924  f :     0.054418
      f+1     :     0.006737
      f-1     :     0.006247
      f+2     :     0.007122
      f-2     :     0.008472
      f+3     :     0.009595
      f-3     :     0.011322

  2 H s       :     0.795555  s :     0.795555
      pz      :     0.036085  p :     0.059526
      px      :     0.012167
      py      :     0.011274

  3 C s       :     2.875280  s :     2.875280
      pz      :     1.061308  p :     3.112997
      px      :     1.053754
      py      :     0.997935
      dz2     :     0.106824  d :     0.448853
      dxz     :     0.070498
      dyz     :     0.062497
      dx2y2   :     0.076388
      dxy     :     0.132645
      f0      :     0.003335  f :     0.039614
      f+1     :     0.006881
      f-1     :     0.004991
      f+2     :     0.006285
      f-2     :     0.005953
      f+3     :     0.006443
      f-3     :     0.005726

  4 Cls       :     5.613000  s :     5.613000
      pz      :     3.788827  p :    11.055724
      px      :     3.735506
      py      :     3.531391
      dz2     :     0.010923  d :     0.080065
      dxz     :     0.010090
      dyz     :     0.018655
      dx2y2   :     0.016723
      dxy     :     0.023674
      f0      :     0.000896  f :     0.009231
      f+1     :     0.000578
      f-1     :     0.001261
      f+2     :     0.001033
      f-2     :     0.002030
      f+3     :     0.001838
      f-3     :     0.001596

  5 Cls       :     5.618417  s :     5.618417
      pz      :     3.896747  p :    11.051426
      px      :     3.607720
      py      :     3.546959
      dz2     :     0.010413  d :     0.074181
      dxz     :     0.007942
      dyz     :     0.008751
      dx2y2   :     0.016130
      dxy     :     0.030945
      f0      :     0.000774  f :     0.008364
      f+1     :     0.000737
      f-1     :     0.000901
      f+2     :     0.000043
      f-2     :     0.001309
      f+3     :     0.002358
      f-3     :     0.002240

  6 H s       :     0.809572  s :     0.809572
      pz      :     0.013068  p :     0.060126
      px      :     0.022248
      py      :     0.024809

  7 H s       :     0.807988  s :     0.807988
      pz      :     0.018685  p :     0.060847
      px      :     0.028918
      py      :     0.013244

  8 H s       :     0.810032  s :     0.810032
      pz      :     0.034204  p :     0.060592
      px      :     0.013961
      py      :     0.012427

  9 H s       :     0.804764  s :     0.804764
      pz      :     0.012360  p :     0.061125
      px      :     0.021573
      py      :     0.027192

 10 H s       :     0.806175  s :     0.806175
      pz      :     0.036056  p :     0.061707
      px      :     0.013095
      py      :     0.012556



                      *****************************
                      * MAYER POPULATION ANALYSIS *
                      *****************************

  NA   - Mulliken gross atomic population
  ZA   - Total nuclear charge
  QA   - Mulliken gross atomic charge
  VA   - Mayer's total valence
  BVA  - Mayer's bonded valence
  FA   - Mayer's free valence

  ATOM       NA         ZA         QA         VA         BVA        FA
  0 C      6.4233     6.0000    -0.4233     3.8366     3.8366     0.0000
  1 C      6.0610     6.0000    -0.0610     3.9340     3.9340     0.0000
  2 H      0.8359     1.0000     0.1641     0.9454     0.9454    -0.0000
  3 C      6.1933     6.0000    -0.1933     3.9330     3.9330     0.0000
  4 Cl    17.1316    17.0000    -0.1316     1.1195     1.1195    -0.0000
  5 Cl    17.1466    17.0000    -0.1466     1.1210     1.1210     0.0000
  6 H      0.8566     1.0000     0.1434     0.9567     0.9567    -0.0000
  7 H      0.8352     1.0000     0.1648     0.9650     0.9650     0.0000
  8 H      0.8461     1.0000     0.1539     0.9637     0.9637     0.0000
  9 H      0.8433     1.0000     0.1567     0.9513     0.9513    -0.0000
 10 H      0.8271     1.0000     0.1729     0.9561     0.9561     0.0000

  Mayer bond orders larger than 0.100000
B(  0-C ,  1-C ) :   0.9618 B(  0-C ,  6-H ) :   0.9556 B(  0-C ,  7-H ) :   0.9688 
B(  0-C ,  8-H ) :   0.9581 B(  1-C ,  2-H ) :   0.9566 B(  1-C ,  3-C ) :   0.9638 
B(  1-C ,  5-Cl) :   1.0655 B(  3-C ,  4-Cl) :   1.0848 B(  3-C ,  9-H ) :   0.9535 
B(  3-C , 10-H ) :   0.9506 

-------
TIMINGS
-------

Total SCF time: 0 days 0 hours 0 min 43 sec 

Total time                  ....      43.386 sec
Sum of individual times     ....      42.946 sec  ( 99.0%)

SCF preparation             ....       0.200 sec  (  0.5%)
Fock matrix formation       ....      42.019 sec  ( 96.8%)
  Startup                   ....       0.093 sec  (  0.2% of F)
  Split-RI-J                ....       2.166 sec  (  5.2% of F)
  Chain of spheres X        ....      27.806 sec  ( 66.2% of F)
  XC integration            ....      11.453 sec  ( 27.3% of F)
    XC Preparation          ....       0.000 sec  (  0.0% of XC)
    Basis function eval.    ....       1.950 sec  ( 17.0% of XC)
    Density eval.           ....       3.376 sec  ( 29.5% of XC)
    XC-Functional eval.     ....       0.917 sec  (  8.0% of XC)
    XC-Potential eval.      ....       4.419 sec  ( 38.6% of XC)
Diagonalization             ....       0.000 sec  (  0.0%)
Density matrix formation    ....       0.180 sec  (  0.4%)
Total Energy calculation    ....       0.039 sec  (  0.1%)
Population analysis         ....       0.028 sec  (  0.1%)
Orbital Transformation      ....       0.056 sec  (  0.1%)
Orbital Orthonormalization  ....       0.000 sec  (  0.0%)
DIIS solution               ....       0.253 sec  (  0.6%)
SOSCF solution              ....       0.172 sec  (  0.4%)
Finished LeanSCF after  43.5 sec

Maximum memory used throughout the entire LEANSCF-calculation: 22.7 MB

------------------------------------------------------------------------------
                         ORCA PROPERTY INTEGRAL CALCULATIONS
------------------------------------------------------------------------------

GBWName                                   ... censo.gbw
Number of atoms                           ...     11
Number of basis functions                 ...    203
Max core memory                           ...   1024 MB

Dipole integrals                          ... YES
Quadrupole integrals                      ...  NO
Linear momentum integrals                 ...  NO
Angular momentum integrals                ...  NO
Higher moments length integrals           ...  NO
Higher moments velocity integrals         ...  NO
Kinetic energy integrals                  ...  NO
GIAO right hand sides                     ...  NO
GIAO dipole derivative integrals          ...  NO
SOC integrals                             ...  NO
EPR diamagnetic integrals (GIAO)          ...  NO
EPR gauge integrals                       ...  NO
Field gradient integrals                  ...  NO (   0 nuclei)
Spin-dipole/Fermi contact integrals       ...  NO (   0 nuclei)
Contact density integrals                 ...  NO (   0 nuclei)
Nucleus-orbit integrals                   ...  NO (   0 nuclei)
Geometric perturbations                   ... YES (  11 nuclei)

Choice of electric origin   ... Center of mass
Position of electric origin ... ( -0.0065, -0.0127,  0.0048) 
Choice of magnetic origin   ... GIAO
Position of magnetic origin ... (  0.0000,  0.0000,  0.0000) 

Calculating integrals                     ... Electric Dipole (Length)     done (  0.1 sec)
Calculating integrals                     ... Geometrical perturbation right hand sides

-----------------------
GEOMETRIC PERTURBATIONS (11 nuclei)
-----------------------

MaxCore                            ...   1024 MB
Number of batches                  ...      1

BATCH   0: Atoms    0 -   10 ( 33 perturbations)
   => H(core) and overlap derivative integrals     ... done (     0.2 sec)
   => Making and storing internal U-coefficients   ... done (     0.2 sec)
   => RI-J derivative integrals                    ... done (     2.3 sec)
   => RI-J response operators                      ... done (     0.6 sec)
   => Chain of spheres derivative integrals        ... done (    16.0 sec)
   => Chain of spheres response operator           ... done (    14.9 sec)
   => XC derivative integrals                      ... done (   105.8 sec)
   => XC response operators                        ... done (    26.1 sec)
   => Completing and storing right hand sides      ... done (     0.2 sec)
   => Total time for right hand sides = 168.5 sec

  geometrical perturbations done (168.5 sec)

Property integrals calculated in 168.6 sec

Maximum memory used throughout the entire PROPINT-calculation: 171.5 MB

-------------------------   --------------------
FINAL SINGLE POINT ENERGY     -1038.317836549347
-------------------------   --------------------

------------------------------------------------------------------------------
                            ORCA SCF RESPONSE CALCULATION
------------------------------------------------------------------------------

GBWName                                 ... censo.gbw
Number of atoms                         ...     11
Number of basis functions               ...    203
Max core memory                         ...   1024 MB

Electric field perturbation             ...  NO
Quadrupolar field perturbation          ...  NO
Magnetic field perturbation (no GIAO)   ...  NO
Magnetic field perturbation (with GIAO) ...  NO
Linear momentum (velocity) perturbation ...  NO
Spin-orbit coupling perturbation        ...  NO
Choice of electric origin               ... Center of mass
Position of electric origin             ...    -0.006535    -0.012702     0.004765
Choice of magnetic origin               ... GIAO
Position of magnetic origin             ...     0.000000     0.000000     0.000000
Nuclear geometric perturbations         ... YES (  33 perturbations)
Nucleus-orbit perturbations             ...  NO (   0 perturbations)
Spin-dipole/Fermi contact perturbations ...  NO (   0 perturbations)

Total number of real perturbations      ...     33
Total number of imaginary perturbations ...      0
Total number of triplet perturbations   ...      0
Total number of SOC perturbations       ...      0


                                **********************
                                * REAL PERTURBATIONS *
                                **********************



-------------------
SHARK CP-SCF DRIVER
-------------------

Dimension of the orbital basis          ...    203
Dimension of the CPSCF-problem          ...   5046
Number of operators                     ...      1
Max. number of iterations               ...    128
Convergence Tolerance                   ... 1.0e-03
Number of perturbations                 ...     33
Perturbation type                       ... REAL

----------------------------
POPLE LINEAR EQUATION SOLVER
----------------------------

  ITERATION   0:   ||err||_max =   7.7959e-02 (  14.2 sec   0/ 33 done)
  ITERATION   1:   ||err||_max =   2.1939e-02 (  14.6 sec   0/ 33 done)
  ITERATION   2:   ||err||_max =   8.7249e-03 (  14.7 sec   0/ 33 done)
  ITERATION   3:   ||err||_max =   3.1987e-03 (  15.3 sec  15/ 33 done)
  ITERATION   4:   ||err||_max =   1.0338e-03 (  10.9 sec  32/ 33 done)
  ITERATION   5:   ||err||_max =   2.7997e-04 (   1.9 sec  33/ 33 done)

CP-SCF equations solved in  73.1 sec
Response densities calculated in   0.1 sec

Maximum memory used throughout the entire SCFRESP-calculation: 161.8 MB

------------------------------------------------------------------------------
                              ORCA PROPERTY CALCULATIONS
------------------------------------------------------------------------------

GBWName                                 ... censo.gbw
Number of atoms                         ...     11
Number of basis functions               ...    203
Max core memory                         ...   1024 MB

Electric properties:
Dipole moment                           ... YES
Quadrupole moment                       ...  NO
Static polarizability (Dipole/Dipole)   ...  NO
Static polarizability (Dipole/Quad.)    ...  NO
Static polarizability (Quad./Quad.)     ...  NO
Static polarizability (Velocity)        ...  NO

Atomic electric properties:
Dipole moment                           ...  NO
Quadrupole moment                       ...  NO
Static polarizability                   ...  NO

Choice of electric origin               ... Center of mass
Position of electric origin             ...    -0.006535    -0.012702     0.004765

General magnetic properties:
Magnetizability                         ...  NO

EPR properties:
g-Tensor (aka g-matrix)                 ...  NO
Zero-Field splitting spin-orbit         ...  NO
Zero-field splitting spin-spin          ...  NO
Hyperfine couplings                     ...  NO (   0 nuclei)
Quadrupole couplings                    ...  NO (   0 nuclei)
Contact density                         ...  NO (   0 nuclei)

NMR properties:
Chemical shifts                         ...  NO (   0 nuclei)
Spin-rotation constants                 ...  NO (   0 nuclei)
Spin-spin couplings                     ...  NO (   0 nuclei,    0 pairs)

Choice of magnetic origin               ... GIAO
Position of magnetic origin             ...     0.000000     0.000000     0.000000

Properties with geometric perturbations:
SCF Hessian                             ... YES
IR spectrum                             ... YES
VCD spectrum                            ...  NO
X-ray spectroscopy properties:
SCF XES/XAS/RIXS spectra                ...  NO


-------------
DIPOLE MOMENT
-------------

Method             : SCF
Type of density    : Electron Density
Multiplicity       :   1
Irrep              :   0
Energy             : -1038.3178365493465662 Eh
Relativity type    : 
Basis              : AO
                                X                 Y                 Z
Electronic contribution:     -1.560619508      -9.853685660       2.510136393
Nuclear contribution   :      1.477814456      11.109326432      -2.809567258
                        -----------------------------------------
Total Dipole Moment    :     -0.082805053       1.255640772      -0.299430865
                        -----------------------------------------
Magnitude (a.u.)       :      1.293502713
Magnitude (Debye)      :      3.287822609



--------------------
Rotational spectrum 
--------------------
 
Rotational constants in cm-1:             0.146950             0.062990             0.046464 
Rotational constants in MHz :          4405.456747          1888.405511          1392.953988 

Dipole components along the rotational axes: 
x,y,z [a.u.] :     0.451524     1.212123    -0.005792 
x,y,z [Debye]:     1.147684     3.080971    -0.014723 

 

Dipole moment calculation done in   0.0 sec 

-----------
SCF HESSIAN
-----------

Occupied/Occupied contributions to the Hessian:
   => Occupied/Occupied contributions              ... done (  0.0 sec)
Perturbed density contributions to the Hessian:
   => Perturbed density contributions              ... done (  0.0 sec)
Explicit contributions to the Hessian:
   => Nuclear repulsion Hessian                    ... done (  0.0 sec)
   => HCore and overlap Hessian                    ... done (  3.7 sec)
   => RI-J Hessian                                 ... done (  6.0 sec)
   => COSX Hessian                                 ... done (280.1 sec)
   => XC-Hessian                                   ... done ( 38.2 sec)
   => Explicit contributions done
Dipole derivatives                                 ... done (  0.1 sec)
Mass weighting the Hessian           ... done
Calculating normal modes             ... done
Scaling frequencies                  ... done

-----------------------
VIBRATIONAL FREQUENCIES
-----------------------

Scaling factor for frequencies =  1.000000000  (already applied!)

     0:       0.00 cm**-1
     1:       0.00 cm**-1
     2:       0.00 cm**-1
     3:       0.00 cm**-1
     4:       0.00 cm**-1
     5:       0.00 cm**-1
     6:     137.82 cm**-1
     7:     204.59 cm**-1
     8:     291.92 cm**-1
     9:     325.84 cm**-1
    10:     389.00 cm**-1
    11:     411.62 cm**-1
    12:     590.51 cm**-1
    13:     719.96 cm**-1
    14:     907.48 cm**-1
    15:     942.06 cm**-1
    16:    1029.59 cm**-1
    17:    1107.60 cm**-1
    18:    1142.21 cm**-1
    19:    1198.56 cm**-1
    20:    1288.29 cm**-1
    21:    1298.48 cm**-1
    22:    1372.11 cm**-1
    23:    1420.55 cm**-1
    24:    1479.98 cm**-1
    25:    1491.71 cm**-1
    26:    1500.33 cm**-1
    27:    3038.77 cm**-1
    28:    3075.52 cm**-1
    29:    3104.52 cm**-1
    30:    3116.39 cm**-1
    31:    3137.69 cm**-1
    32:    3145.31 cm**-1


------------
NORMAL MODES
------------

These modes are the Cartesian displacements weighted by the diagonal matrix
M(i,i)=1/sqrt(m[i]) where m[i] is the mass of the displaced atom
Thus, these vectors are normalized but *not* orthogonal

                  0          1          2          3          4          5    
      0       0.000000   0.000000   0.000000   0.000000   0.000000   0.000000
      1       0.000000   0.000000   0.000000   0.000000   0.000000   0.000000
      2       0.000000   0.000000   0.000000   0.000000   0.000000   0.000000
      3       0.000000   0.000000   0.000000   0.000000   0.000000   0.000000
      4       0.000000   0.000000   0.000000   0.000000   0.000000   0.000000
      5       0.000000   0.000000   0.000000   0.000000   0.000000   0.000000
      6       0.000000   0.000000   0.000000   0.000000   0.000000   0.000000
      7       0.000000   0.000000   0.000000   0.000000   0.000000   0.000000
      8       0.000000   0.000000   0.000000   0.000000   0.000000   0.000000
      9       0.000000   0.000000   0.000000   0.000000   0.000000   0.000000
     10       0.000000   0.000000   0.000000   0.000000   0.000000   0.000000
     11       0.000000   0.000000   0.000000   0.000000   0.000000   0.000000
     12       0.000000   0.000000   0.000000   0.000000   0.000000   0.000000
     13       0.000000   0.000000   0.000000   0.000000   0.000000   0.000000
     14       0.000000   0.000000   0.000000   0.000000   0.000000   0.000000
     15       0.000000   0.000000   0.000000   0.000000   0.000000   0.000000
     16       0.000000   0.000000   0.000000   0.000000   0.000000   0.000000
     17       0.000000   0.000000   0.000000   0.000000   0.000000   0.000000
     18       0.000000   0.000000   0.000000   0.000000   0.000000   0.000000
     19       0.000000   0.000000   0.000000   0.000000   0.000000   0.000000
     20       0.000000   0.000000   0.000000   0.000000   0.000000   0.000000
     21       0.000000   0.000000   0.000000   0.000000   0.000000   0.000000
     22       0.000000   0.000000   0.000000   0.000000   0.000000   0.000000
     23       0.000000   0.000000   0.000000   0.000000   0.000000   0.000000
     24       0.000000   0.000000   0.000000   0.000000   0.000000   0.000000
     25       0.000000   0.000000   0.000000   0.000000   0.000000   0.000000
     26       0.000000   0.000000   0.000000   0.000000   0.000000   0.000000
     27       0.000000   0.000000   0.000000   0.000000   0.000000   0.000000
     28       0.000000   0.000000   0.000000   0.000000   0.000000   0.000000
     29       0.000000   0.000000   0.000000   0.000000   0.000000   0.000000
     30       0.000000   0.000000   0.000000   0.000000   0.000000   0.000000
     31       0.000000   0.000000   0.000000   0.000000   0.000000   0.000000
     32       0.000000   0.000000   0.000000   0.000000   0.000000   0.000000
                  6          7          8          9         10         11    
      0       0.126162   0.023878   0.139188   0.137039  -0.013396  -0.100733
      1      -0.001150  -0.083665  -0.054020  -0.034051  -0.075689  -0.314913
      2      -0.125019  -0.166630   0.048121   0.026879   0.049731   0.008180
      3      -0.012138   0.067598  -0.034165  -0.022423  -0.114095  -0.124305
      4       0.134210   0.004292   0.005223   0.020758  -0.102680  -0.131490
      5       0.017914   0.089187  -0.011562  -0.017213  -0.177345   0.197340
      6       0.067877   0.233960  -0.067858  -0.045288  -0.171445  -0.165028
      7       0.244247   0.106301   0.003713   0.037730  -0.176038  -0.150743
      8       0.022793   0.113403  -0.017792  -0.023933  -0.181215   0.190369
      9      -0.098469  -0.075050  -0.037547  -0.008567  -0.238217   0.018407
     10       0.205538   0.099849  -0.009624  -0.029919   0.107258  -0.031634
     11       0.128717   0.243028  -0.015914  -0.033568  -0.100538   0.014292
     12       0.230569  -0.119802  -0.030901  -0.029829   0.052567   0.093326
     13      -0.085902  -0.056128  -0.035545  -0.046596   0.038476   0.106805
     14      -0.039450  -0.088395   0.022408   0.012631   0.014939  -0.029733
     15      -0.239816   0.113552  -0.004294  -0.021559   0.095679  -0.020465
     16      -0.049529   0.042356   0.063578   0.068912  -0.017756   0.092311
     17       0.032451   0.030506  -0.033286  -0.004993   0.055821  -0.039878
     18       0.214002   0.062726   0.082502   0.438908   0.062450   0.012962
     19       0.086430  -0.046025  -0.054240   0.183235  -0.024056  -0.207328
     20      -0.237598  -0.215887  -0.451267   0.451109   0.198009  -0.119709
     21       0.146485   0.101440  -0.125148   0.409789  -0.006013   0.012194
     22      -0.029383  -0.028534   0.064585  -0.459359  -0.264106  -0.310521
     23      -0.144227  -0.322629   0.428621  -0.214620   0.128127  -0.185716
     24       0.125383  -0.108954   0.656072  -0.254482   0.003239  -0.245969
     25      -0.158974  -0.264120  -0.253899   0.112478   0.114040  -0.613431
     26      -0.102932  -0.173547   0.199646  -0.087245   0.027942   0.012293
     27      -0.191705  -0.045483  -0.056868  -0.029429  -0.195374   0.065277
     28       0.132332   0.128116  -0.026297  -0.047099   0.151276   0.006549
     29       0.422562   0.522733  -0.006823  -0.103230   0.292273  -0.129216
     30      -0.222161  -0.219583  -0.054833   0.024268  -0.549237   0.220064
     31       0.454058   0.344639  -0.023708  -0.096969   0.317468  -0.031610
     32       0.028046   0.138911  -0.015810  -0.005926  -0.235285   0.061111
                 12         13         14         15         16         17    
      0       0.010416  -0.043722  -0.011399  -0.104360  -0.063700  -0.077527
      1       0.060740  -0.069319   0.070392  -0.095708   0.121267  -0.064966
      2      -0.014821   0.022688   0.005844  -0.041171  -0.026764   0.164810
      3      -0.264306   0.052540  -0.049100  -0.089626  -0.018066   0.097838
      4       0.265009  -0.024450   0.010615   0.076472  -0.140224   0.177026
      5       0.153788   0.089627   0.031411  -0.097500  -0.032587  -0.180961
      6      -0.183893  -0.152956  -0.306938   0.010513   0.047395   0.105217
      7       0.153946  -0.146256  -0.137270   0.325793  -0.417688  -0.137052
      8       0.180425   0.054583  -0.006248  -0.109324   0.012323  -0.150446
      9      -0.098927   0.160415   0.114238   0.162152   0.004863   0.025794
     10       0.036806   0.396227  -0.101501   0.049378   0.063884   0.006416
     11      -0.034900  -0.285235  -0.052558   0.071976   0.061463   0.050699
     12       0.008241  -0.054781  -0.008843  -0.009247   0.005664  -0.002458
     13      -0.006195  -0.112531   0.010274  -0.010121  -0.007799  -0.002976
     14      -0.000362   0.077984   0.008005   0.006431  -0.002104  -0.008424
     15       0.105598   0.003388  -0.002452   0.006687  -0.005036  -0.003570
     16      -0.112234   0.001864  -0.006307  -0.008571   0.003150  -0.003857
     17      -0.021965  -0.000465  -0.003976  -0.003388   0.008224   0.005861
     18       0.267873  -0.154493   0.167798   0.090634   0.333847  -0.016430
     19       0.306873  -0.155982   0.238045   0.048234   0.470978   0.013749
     20      -0.226068  -0.078675  -0.185456   0.185727  -0.260368  -0.217525
     21       0.102915   0.022578   0.096001  -0.242119   0.051965   0.117347
     22      -0.106675   0.179337  -0.038126  -0.540913  -0.290458  -0.084647
     23      -0.088324  -0.216603  -0.117550   0.405934  -0.007213  -0.166315
     24      -0.025484  -0.230255  -0.042281   0.240584   0.149670  -0.298923
     25      -0.277286  -0.278768  -0.227365   0.247182  -0.164000  -0.678425
     26       0.023559   0.003702   0.035678   0.002880   0.055358   0.190548
     27      -0.235423   0.122003   0.077084   0.174593   0.227090   0.010830
     28      -0.073949   0.357544  -0.122969   0.059747   0.245695  -0.004508
     29      -0.455350  -0.170634   0.589491   0.149844  -0.203707  -0.045569
     30       0.274172   0.184183  -0.234736   0.195121   0.084298  -0.255429
     31      -0.157665   0.332458   0.392372   0.158205  -0.216351  -0.280508
     32       0.110982  -0.258367  -0.275274   0.052646   0.163199   0.067797
                 18         19         20         21         22         23    
      0      -0.084380  -0.060047  -0.015758  -0.021711  -0.024509  -0.059121
      1      -0.001920  -0.003568   0.003054   0.036316  -0.019468  -0.127055
      2      -0.004660  -0.017354  -0.037824   0.059566  -0.045268   0.050785
      3       0.110096   0.099667   0.045868   0.038268   0.129502   0.018013
      4       0.019907   0.017309  -0.018052  -0.099627   0.083504   0.023560
      5       0.043410   0.107425   0.025833  -0.039596   0.009619  -0.007432
      6       0.601758  -0.150104  -0.391038  -0.326071  -0.660555  -0.049662
      7      -0.021745   0.481381  -0.143108   0.716495  -0.407366  -0.055138
      8       0.150712   0.008564  -0.051458  -0.214038  -0.096788  -0.014989
      9      -0.058844  -0.042908   0.063309  -0.030748  -0.085122  -0.002072
     10      -0.028316  -0.019001   0.080477   0.010379  -0.042606   0.000891
     11      -0.088055  -0.063093   0.020891   0.024525   0.026212   0.000850
     12      -0.002707   0.006101  -0.000708  -0.000966  -0.001321  -0.000596
     13       0.006680  -0.003146   0.008403   0.001714  -0.003245  -0.000087
     14       0.006090  -0.005239  -0.007136   0.002560   0.003850  -0.000428
     15      -0.005672   0.001105   0.001860   0.005758  -0.000921  -0.000341
     16       0.002557  -0.004887  -0.001340  -0.004738  -0.001632  -0.000179
     17       0.006203  -0.007267  -0.001035  -0.005746  -0.001219   0.000029
     18       0.160611   0.114885   0.020178   0.035575   0.008363   0.433334
     19       0.201121   0.134155   0.018372   0.097774  -0.021935   0.341142
     20      -0.024425   0.057954   0.063991  -0.137890   0.188407  -0.239266
     21      -0.051754  -0.068912  -0.041989   0.119898  -0.078970  -0.000796
     22      -0.324521  -0.191734  -0.113991   0.001741  -0.103774   0.449551
     23       0.110298   0.102443   0.067155  -0.151790   0.090593  -0.308595
     24       0.149496   0.129361   0.085630  -0.026804   0.127677   0.154241
     25      -0.080086  -0.013044   0.047808  -0.172056  -0.027516   0.534566
     26       0.062621   0.033882  -0.017115   0.079505  -0.004153   0.002021
     27      -0.360621   0.309431  -0.593701  -0.159848   0.130774  -0.013017
     28      -0.284893   0.285599  -0.483436  -0.106198   0.146254  -0.010920
     29      -0.006637  -0.000502   0.034999  -0.051502  -0.162812   0.030647
     30       0.189943  -0.548959  -0.232754   0.357786   0.314799   0.023373
     31       0.308323  -0.351160  -0.354265   0.199351   0.330531  -0.027252
     32      -0.137435  -0.083925   0.083760   0.057584   0.004680   0.017504
                 24         25         26         27         28         29    
      0      -0.007847  -0.027323  -0.038861   0.005026   0.004014  -0.028839
      1      -0.000049  -0.001662   0.019668   0.046009   0.001044   0.025682
      2       0.000452  -0.037275   0.024419  -0.020290  -0.002925   0.035344
      3      -0.017463  -0.027909  -0.015004  -0.000783  -0.000538   0.012629
      4      -0.017002  -0.009020   0.018739  -0.000668   0.001597  -0.006588
      5       0.000776  -0.021515   0.007223   0.000503   0.005610  -0.067012
      6       0.024994   0.084578   0.008169   0.001525   0.013320  -0.163843
      7       0.036839   0.034711  -0.051745   0.001133  -0.007710   0.092698
      8       0.002644  -0.006185   0.024049  -0.002497  -0.060136   0.788174
      9       0.056935   0.004456  -0.001713   0.002072  -0.032800  -0.007634
     10      -0.015569   0.005762  -0.000144  -0.002898   0.035027   0.010450
     11       0.070081  -0.004730  -0.007534   0.002175  -0.046647   0.004362
     12      -0.001054  -0.000049   0.000173   0.000013   0.000192  -0.000042
     13      -0.002127   0.000458  -0.000141   0.000016   0.000042  -0.000073
     14       0.001446  -0.000460  -0.000411   0.000022   0.000035   0.000047
     15       0.000080   0.000295   0.000098   0.000008   0.000088   0.000176
     16       0.000378   0.000240   0.000028  -0.000039  -0.000074  -0.000199
     17      -0.000189   0.000517   0.000085   0.000001   0.000043   0.000134
     18       0.007975   0.173162  -0.325645   0.455455   0.006446   0.238320
     19       0.004725   0.099068  -0.243592  -0.519346  -0.008072  -0.271099
     20       0.061364   0.646119  -0.021700  -0.055957  -0.000970  -0.022318
     21       0.036758  -0.068703   0.376990  -0.379100  -0.039485   0.012414
     22       0.050897   0.403264  -0.276969  -0.102395  -0.013548   0.013256
     23      -0.092949  -0.137933  -0.507246  -0.234861  -0.024293   0.018032
     24       0.108777   0.360380   0.546058  -0.126807  -0.014570   0.091692
     25      -0.009579  -0.425193   0.154894   0.082718   0.007710  -0.057546
     26       0.029436   0.123816   0.131860   0.529955   0.060212  -0.412855
     27      -0.042271  -0.004689   0.028071  -0.035513   0.513689   0.088047
     28      -0.085847  -0.005793   0.025821   0.042061  -0.602328  -0.106393
     29      -0.687995   0.097717   0.078288   0.000794  -0.008616  -0.000109
     30      -0.478806   0.051642   0.019103   0.008476  -0.139828   0.012785
     31       0.453175  -0.071990  -0.060373  -0.009083   0.176232  -0.013367
     32      -0.206427   0.031337   0.018982  -0.028382   0.554897  -0.051935
                 30         31         32    
      0      -0.064465  -0.051063  -0.005020
      1       0.033903  -0.013968  -0.009426
      2       0.024832  -0.070734  -0.023229
      3      -0.008887   0.001319   0.005816
      4       0.005501  -0.000690  -0.003573
      5       0.040977  -0.012276  -0.023512
      6       0.102447  -0.029328  -0.053631
      7      -0.054471   0.012785   0.031483
      8      -0.478980   0.135503   0.269610
      9       0.009533  -0.013646   0.042453
     10      -0.012440   0.017312  -0.051120
     11      -0.014354   0.017770  -0.058149
     12       0.000053   0.000031  -0.000096
     13       0.000049  -0.000043   0.000101
     14      -0.000033  -0.000020   0.000148
     15       0.000051   0.000117  -0.000142
     16      -0.000054  -0.000046   0.000130
     17      -0.000101   0.000082   0.000125
     18       0.384104   0.075284  -0.039256
     19      -0.449980  -0.098088   0.045150
     20      -0.041757  -0.021874   0.000403
     21       0.294509   0.658429   0.142982
     22       0.095778   0.190902   0.041387
     23       0.194013   0.394497   0.084918
     24       0.095935  -0.124842  -0.049591
     25      -0.056295   0.067843   0.024584
     26      -0.450730   0.475023   0.196801
     27      -0.078615   0.121239  -0.349595
     28       0.094506  -0.140608   0.406763
     29      -0.000753   0.001763  -0.007472
     30      -0.041563   0.049376  -0.157885
     31       0.049326  -0.061342   0.206542
     32       0.169822  -0.209710   0.695941


-----------
IR SPECTRUM
-----------

 Mode   freq       eps      Int      T**2         TX        TY        TZ
       cm**-1   L/(mol*cm) km/mol    a.u.
----------------------------------------------------------------------------
  6:    137.82   0.000158    0.80  0.000359  (-0.001478  0.017157  0.007881)
  7:    204.59   0.000219    1.11  0.000334  ( 0.002232  0.007875  0.016328)
  8:    291.92   0.000060    0.30  0.000064  ( 0.004099 -0.006841 -0.000820)
  9:    325.84   0.000121    0.61  0.000116  ( 0.009666 -0.003518 -0.003241)
 10:    389.00   0.001596    8.06  0.001280  (-0.034910 -0.001715 -0.007649)
 11:    411.62   0.001504    7.60  0.001140  (-0.006081 -0.031960  0.009036)
 12:    590.51   0.005911   29.87  0.003124  (-0.041017  0.037354 -0.006800)
 13:    719.96   0.006880   34.77  0.002982  ( 0.040150  0.033281 -0.016197)
 14:    907.48   0.000482    2.44  0.000166  (-0.011248  0.006276  0.000062)
 15:    942.06   0.002334   11.80  0.000773  ( 0.004539  0.027329  0.002407)
 16:   1029.59   0.002988   15.10  0.000906  ( 0.023388 -0.018926 -0.000615)
 17:   1107.60   0.000385    1.95  0.000108  (-0.007824  0.005306 -0.004369)
 18:   1142.21   0.000779    3.94  0.000213  ( 0.012087 -0.003723  0.007280)
 19:   1198.56   0.001686    8.52  0.000439  ( 0.019440 -0.007700 -0.001339)
 20:   1288.29   0.004136   20.90  0.001002  ( 0.027959  0.009200 -0.011640)
 21:   1298.48   0.004459   22.53  0.001072  ( 0.020140 -0.025354  0.004803)
 22:   1372.11   0.001381    6.98  0.000314  (-0.005302 -0.014889  0.008024)
 23:   1420.55   0.001235    6.24  0.000271  ( 0.007048  0.012840 -0.007535)
 24:   1479.98   0.000963    4.86  0.000203  (-0.006843 -0.000072 -0.012495)
 25:   1491.71   0.001776    8.97  0.000371  ( 0.008577  0.006897  0.015823)
 26:   1500.33   0.001114    5.63  0.000232  ( 0.009138 -0.007068 -0.009911)
 27:   3038.77   0.001857    9.39  0.000191  (-0.001050  0.013099 -0.004248)
 28:   3075.52   0.002086   10.54  0.000212  ( 0.001689  0.012633 -0.007017)
 29:   3104.52   0.000035    0.18  0.000003  (-0.000189  0.001129  0.001479)
 30:   3116.39   0.001771    8.95  0.000177  (-0.010219  0.006819  0.005142)
 31:   3137.69   0.000897    4.54  0.000089  (-0.005369 -0.002428 -0.007385)
 32:   3145.31   0.000455    2.30  0.000045  ( 0.002903 -0.003379 -0.005027)

* The epsilon (eps) is given for a Dirac delta lineshape.
** The dipole moment derivative (T) already includes vibrational overlap.

The first frequency considered to be a vibration is 6
The total number of vibrations considered is 27


--------------------------
THERMOCHEMISTRY AT 298.15K
--------------------------

Temperature         ...   298.15 K
Pressure            ...     1.00 atm
Total Mass          ...   112.99 AMU
Quasi RRHO          ...     True
Cut-Off Frequency   ...     1.00 cm^-1

Throughout the following assumptions are being made:
  (1) The electronic state is orbitally nondegenerate
  (2) There are no thermally accessible electronically excited states
  (3) Hindered rotations indicated by low frequency modes are not
      treated as such but are treated as vibrations and this may
      cause some error
  (4) All equations used are the standard statistical mechanics
      equations for an ideal gas
  (5) All vibrations are strictly harmonic

freq.     137.82  E(vib)   ...       0.42 
freq.     204.59  E(vib)   ...       0.35 
freq.     291.92  E(vib)   ...       0.27 
freq.     325.84  E(vib)   ...       0.24 
freq.     389.00  E(vib)   ...       0.20 
freq.     411.62  E(vib)   ...       0.19 
freq.     590.51  E(vib)   ...       0.10 
freq.     719.96  E(vib)   ...       0.07 
freq.     907.48  E(vib)   ...       0.03 
freq.     942.06  E(vib)   ...       0.03 
freq.    1029.59  E(vib)   ...       0.02 
freq.    1107.60  E(vib)   ...       0.02 
freq.    1142.21  E(vib)   ...       0.01 
freq.    1198.56  E(vib)   ...       0.01 
freq.    1288.29  E(vib)   ...       0.01 
freq.    1298.48  E(vib)   ...       0.01 
freq.    1372.11  E(vib)   ...       0.01 
freq.    1420.55  E(vib)   ...       0.00 
freq.    1479.98  E(vib)   ...       0.00 
freq.    1491.71  E(vib)   ...       0.00 
freq.    1500.33  E(vib)   ...       0.00 
freq.    3038.77  E(vib)   ...       0.00 
freq.    3075.52  E(vib)   ...       0.00 
freq.    3104.52  E(vib)   ...       0.00 
freq.    3116.39  E(vib)   ...       0.00 
freq.    3137.69  E(vib)   ...       0.00 
freq.    3145.31  E(vib)   ...       0.00 

------------
INNER ENERGY
------------

The inner energy is: U= E(el) + E(ZPE) + E(vib) + E(rot) + E(trans)
    E(el)   - is the total energy from the electronic structure calculation
              = E(kin-el) + E(nuc-el) + E(el-el) + E(nuc-nuc)
    E(ZPE)  - the the zero temperature vibrational energy from the frequency calculation
    E(vib)  - the the finite temperature correction to E(ZPE) due to population
              of excited vibrational states
    E(rot)  - is the rotational thermal energy
    E(trans)- is the translational thermal energy

Summary of contributions to the inner energy U:
Electronic energy                ...  -1038.31783655 Eh
Zero point energy                ...      0.08627058 Eh      54.14 kcal/mol
Thermal vibrational correction   ...      0.00317331 Eh       1.99 kcal/mol
Thermal rotational correction    ...      0.00141627 Eh       0.89 kcal/mol
Thermal translational correction ...      0.00141627 Eh       0.89 kcal/mol
-----------------------------------------------------------------------
Total thermal energy                  -1038.22556011 Eh


Summary of corrections to the electronic energy:
(perhaps to be used in another calculation)
Total thermal correction                  0.00600586 Eh       3.77 kcal/mol
Non-thermal (ZPE) correction              0.08627058 Eh      54.14 kcal/mol
-----------------------------------------------------------------------
Total correction                          0.09227644 Eh      57.90 kcal/mol


--------
ENTHALPY
--------

The enthalpy is H = U + kB*T
                kB is Boltzmann's constant
Total thermal energy              ...  -1038.22556011 Eh 
Thermal Enthalpy correction       ...      0.00094421 Eh       0.59 kcal/mol
-----------------------------------------------------------------------
Total Enthalpy                    ...  -1038.22461590 Eh


Note: Only C1 symmetry has been detected, increase convergence thresholds 
      if your molecule has a higher symmetry. Symmetry factor of 1.0 is   
      used for the rotational entropy correction. 
 

Note: Rotational entropy computed according to Herzberg 
Infrared and Raman Spectra, Chapter V,1, Van Nostrand Reinhold, 1945 
Point Group:  C1, Symmetry Number:   1  
Rotational constants in cm-1:     0.146950     0.062990     0.046464 

Vibrational entropy computed according to the QRRHO of S. Grimme
Chem.Eur.J. 2012 18 9955 using a reference frequency of 100.0 cm-1


-------
ENTROPY
-------

The entropy contributions are T*S = T*(S(el)+S(vib)+S(rot)+S(trans))
     S(el)   - electronic entropy
     S(vib)  - vibrational entropy
     S(rot)  - rotational entropy
     S(trans)- translational entropy
The entropies will be listed as multiplied by the temperature to get
units of energy

Electronic entropy                ...      0.00000000 Eh      0.00 kcal/mol
Vibrational entropy               ...      0.00518629 Eh      3.25 kcal/mol
Rotational entropy                ...      0.01317023 Eh      8.26 kcal/mol
Translational entropy             ...      0.01904417 Eh     11.95 kcal/mol
-----------------------------------------------------------------------
Final entropy term                ...      0.03740069 Eh     23.47 kcal/mol

In case the symmetry of your molecule has not been determined correctly
or in case you have a reason to use a different symmetry number we print 
out the resulting rotational entropy values for sn=1,12:

 non-linear molecules -----------------------------------
|  sn= 1 | S(rot)=       0.01317023 Eh      8.26 kcal/mol|
|  sn= 2 | S(rot)=       0.01251577 Eh      7.85 kcal/mol|
|  sn= 3 | S(rot)=       0.01213294 Eh      7.61 kcal/mol|
|  sn= 4 | S(rot)=       0.01186131 Eh      7.44 kcal/mol|
|  sn= 5 | S(rot)=       0.01165062 Eh      7.31 kcal/mol|
|  sn= 6 | S(rot)=       0.01147848 Eh      7.20 kcal/mol|
|  sn= 7 | S(rot)=       0.01133293 Eh      7.11 kcal/mol|
|  sn= 8 | S(rot)=       0.01120686 Eh      7.03 kcal/mol|
|  sn= 9 | S(rot)=       0.01109565 Eh      6.96 kcal/mol|
|  sn=10 | S(rot)=       0.01099617 Eh      6.90 kcal/mol|
|  sn=11 | S(rot)=       0.01090618 Eh      6.84 kcal/mol|
|  sn=12 | S(rot)=       0.01082402 Eh      6.79 kcal/mol|
 linear molecules ---------------------------------------
|  Dinfh | S(rot)=       0.00822357 Eh      5.16 kcal/mol|
|  Cinfv | S(rot)=       0.00887803 Eh      5.57 kcal/mol|
 --------------------------------------------------------


-------------------
GIBBS FREE ENERGY
-------------------

The Gibbs free energy is G = H - T*S

Total enthalpy                    ...  -1038.22461590 Eh 
Total entropy correction          ...     -0.03740069 Eh    -23.47 kcal/mol
-----------------------------------------------------------------------
Final Gibbs free energy         ...  -1038.26201659 Eh

For completeness - the Gibbs free energy minus the electronic energy
G-E(el)                           ...      0.05581996 Eh     35.03 kcal/mol


Maximum memory used throughout the entire PROP-calculation: 51.9 MB

--------------------------------
SUGGESTED CITATIONS FOR THIS RUN
--------------------------------

Below you find a list of papers that are relevant to this ORCA run
We neither can nor want to force you to cite these papers, but we appreciate if you do
You receive ORCA, which is the product of decades of hard work by many enthusiastic individuals, for free
The only thing we kindly ask in return is that you cite our papers,
We deeply appreciate it, if you show your appreciation for ORCA by not just citing the generic ORCA reference.

Please note that relegating all ORCA citations to the supporting information does *not* help us.
SI sections are not indexed - citations you put there will not count into any citation statistics
But we need these citations in order to attract the funding resources that allow us to do what we are doing

Therefore, if you are a happy ORCA user, please consider citing a few of the papers listed below in the main body of your paper

In addition to the list printed below, the program has created the file censo.bibtex that contains the list in bibtex format
You can import this file easily into all common literature databanks and citation aid programs


List of essential papers. We consider these as the minimum necessary citations

  1. Neese,F.
     Software update: the ORCA program system, version 5.0
     WIRES Comput. Molec. Sci., 2022 12(1)e1606
     doi.org/10.1002/wcms.1606

List of papers to cite with high priority. The work reported in these papers was absolutely
necessary for this run to complete.
Our perspective: the developers of density functionals and basis sets usually get cited in chemistry papers
Good! But without the algorithms to do something with them, the functionals or basis sets would not do anything.
Hence, in our opinion, the algorithm design and method developments papers are equally worthy of getting cited

  1. Neese,F.
     An improvement of the resolution of the identity approximation for the formation of the Coulomb matrix
     J. Comp. Chem., 2003 24(14)1740-1747
     doi.org/10.1002/jcc.10318
  2. Neese,F.; Wennmohs,F.; Hansen,A.; Becker,U.
     Efficient, approximate and parallel Hartree-Fock and hybrid DFT calculations. A 'chain-of-spheres' algorithm for the Hartree-Fock exchange
     Chem. Phys., 2009 356(1-3)98-109
     doi.org/10.1016/j.chemphys.2008.10.036
  3. Bykov,D.; Petrenko,T.; Izsak,R.; Kossmann,S.; Becker,U.; Valeev,E.; Neese,F.
     Efficient implementation of the analytic second derivatives of Hartree-Fock and hybrid DFT energies: a detailed analysis of different approximations
     Molec. Phys., 2015 113 1961-1977
     doi.org/10.1080/00268976.2015.1025114
  4. Helmich-Paris,B.; de Souza,B.; Neese,F.; Izsák,R.
     An improved chain of spheres for exchange algorithm
     J. Chem. Phys., 2021 155 104109
     doi.org/doi: 10.1063/5.0058766.
  5. Neese,F.
     The SHARK Integral Generation and Digestion System
     J. Comp. Chem., 2022  1-16
     doi.org/10.1002/jcc.26942

List of suggested additional citations. These are papers that are important in the 'surrounding' of 
of this run, or papers that preceded the highly important papers. If you like your results we are grateful for a citation.

  1. Izsak,R.; Neese,F.
     An overlap fitted chain of spheres exchange method
     J. Chem. Phys., 2011 135 144105
     doi.org/10.1063/1.3646921
  2. Izsak,R.; Hansen,A.; Neese,F.
     The resolution of identity and chain of spheres approximations for the LPNO-CCSD singles Fock term
     Molec. Phys., 2012 110 2413-2417
     doi.org/10.1080/00268976.2012.687466
  3. Neese,F.
     The ORCA program system
     WIRES Comput. Molec. Sci., 2012 2(1)73-78
     doi.org/10.1002/wcms.81
  4. Izsak,R.; Neese,F.; Klopper,W.
     Robust fitting techniques in the chain of spheres approximation to the Fock exchange: The role of the complementary space
     J. Chem. Phys., 2013 139 
     doi.org/10.1063/1.4819264
  5. Neese,F.
     Software update: the ORCA program system, version 4.0
     WIRES Comput. Molec. Sci., 2018 8(1)1-6
     doi.org/10.1002/wcms.1327
  6. Neese,F.; Wennmohs,F.; Becker,U.; Riplinger,C.
     The ORCA quantum chemistry program package
     J. Chem. Phys., 2020 152 Art. No. L224108
     doi.org/10.1063/5.0004608

List of optional additional citations

  1. Neese,F.
     Approximate second-order SCF convergence for spin unrestricted wavefunctions
     Chem. Phys. Lett., 2000 325(1-3)93-98
     doi.org/10.1016/s0009-2614(00)00662-x

Timings for individual modules:

Sum of individual times          ...      616.687 sec (=  10.278 min)
Startup calculation              ...        1.449 sec (=   0.024 min)   0.2 %
SCF iterations                   ...       44.234 sec (=   0.737 min)   7.2 %
Property integrals               ...      168.666 sec (=   2.811 min)  27.4 %
SCF Response                     ...       74.160 sec (=   1.236 min)  12.0 %
Property calculations            ...      328.178 sec (=   5.470 min)  53.2 %
                             ****ORCA TERMINATED NORMALLY****
TOTAL RUN TIME: 0 days 0 hours 10 minutes 17 seconds 375 msec
