
                                 *****************
                                 * O   R   C   A *
                                 *****************

                                            #,                                       
                                            ###                                      
                                            ####                                     
                                            #####                                    
                                            ######                                   
                                           ########,                                 
                                     ,,################,,,,,                         
                               ,,#################################,,                 
                          ,,##########################################,,             
                       ,#########################################, ''#####,          
                    ,#############################################,,   '####,        
                  ,##################################################,,,,####,       
                ,###########''''           ''''###############################       
              ,#####''   ,,,,##########,,,,          '''####'''          '####       
            ,##' ,,,,###########################,,,                        '##       
           ' ,,###''''                  '''############,,,                           
         ,,##''                                '''############,,,,        ,,,,,,###''
      ,#''                                            '''#######################'''  
     '                                                          ''''####''''         
             ,#######,   #######,   ,#######,      ##                                
            ,#'     '#,  ##    ##  ,#'     '#,    #''#        ,####,   ,####,        
            ##       ##  ##   ,#'  ##            #'  '#       #'       #'  '#        
            ##       ##  #######   ##           ,######,      #####,   #    #        
            '#,     ,#'  ##    ##  '#,     ,#' ,#      #,     #,   #   #,  ,#        
             '#######'   ##     ##  '#######'  #'      '#     '####' # '####'        



                #########################################################
                #                        -***-                          #
                #          Department of theory and spectroscopy        #
                #                                                       #
                #                      Frank Neese                      #
                #                                                       #
                #     Directorship, Architecture, Infrastructure        #
                #                    SHARK, DRIVERS                     #
                #        Core code/Algorithms in most modules           #
                #                                                       #
                #        Max Planck Institute fuer Kohlenforschung      #
                #                Kaiser Wilhelm Platz 1                 #
                #                 D-45470 Muelheim/Ruhr                 #
                #                      Germany                          #
                #                                                       #
                #                  All rights reserved                  #
                #                        -***-                          #
                #########################################################


                         Program Version 6.0.1  -  RELEASE   -


 With contributions from (in alphabetic order):
[Max-Planck-Institut fuer Kohlenforschung]                               
  Daniel Aravena         : Magnetic Suceptibility                        
  Michael Atanasov       : Ab Initio Ligand Field Theory (pilot matlab implementation)
  Alexander A. Auer      : GIAO ZORA, VPT2 properties, NMR spectrum      
  Ute Becker             : All parallelization in ORCA, NUMFREQ, NUMCALC 
  Giovanni Bistoni       : ED, misc. LED, open-shell LED, HFLD           
  Martin Brehm           : Molecular dynamics                            
  Dmytro Bykov           : pre 5.0 version of the SCF Hessian            
  Marcos Casanova-Páez   : Triplet and SCS-CIS(D). UHF-(DLPNO)-IP/EA/STEOM-CCSD. UHF-CVS-IP/STEOM-CCSD   
  Vijay G. Chilkuri      : MRCI spin determinant printing, contributions to CSF-ICE 
  Pauline Colinet        : FMM embedding                                 
  Dipayan Datta          : RHF DLPNO-CCSD density                        
  Achintya Kumar Dutta   : EOM-CC, STEOM-CC                              
  Nicolas Foglia         : Exact transition moments, OPA infrastructure, MCD improvements    
  Dmitry Ganyushin       : Spin-Orbit,Spin-Spin,Magnetic field MRCI      
  Miquel Garcia-Rates    : C-PCM and meta-GGA Hessian, CCSD/C-PCM, Gaussian charge scheme 
  Tiago L. C. Gouveia    : GS-ROHF, GS-ROCIS                             
  Yang Guo               : DLPNO-NEVPT2, F12-NEVPT2, CIM, IAO-localization        
  Andreas Hansen         : Spin unrestricted coupled pair/coupled cluster methods 
  Ingolf Harden          : AUTO-CI MPn and infrastructure                
  Benjamin Helmich-Paris : MC-RPA, TRAH-(SCF,CASSCF), AVAS, COSX integrals, SCF dyn. polar. 
  Lee Huntington         : MR-EOM, pCC                                   
  Robert Izsak           : Overlap fitted RIJCOSX, COSX-SCS-MP3, EOM     
  Riya Kayal             : Wick's Theorem for AUTO-CI, AUTO-CI UHF-CCSDT 
  Emily Kempfer          : AUTO-CI, RHF CISDT and CCSDT                  
  Christian Kollmar      : KDIIS, OOCD, Brueckner-CCSD(T), CCSD density, CASPT2, CASPT2-K, improved NEVPT2 
  Axel Koslowski         : Symmetry handling                             
  Simone Kossmann        : meta-GGA functionals, TD-DFT gradient, OOMP2, (MP2 Hessian; deprecated post 5.0) 
  Lucas Lang             : DCDCAS                                        
  Marvin Lechner         : AUTO-CI (C++ implementation), FIC-MRCC        
  Spencer Leger          : CASSCF response                               
  Dagmar Lenk            : GEPOL surface, SMD, ORCA-2-JSON               
  Dimitrios Liakos       : Extrapolation schemes; Compound Job, initial MDCI parallelization 
  Dimitrios Manganas     : Further ROCIS development; embedding schemes. LFT, Crystal Embedding 
  Dimitrios Pantazis     : SARC Basis sets                               
  Anastasios Papadopoulos: AUTO-CI, single reference methods and gradients 
  Taras Petrenko         : pre 6.0 DFT Hessian and TD-DFT gradient, (ASA, deprecated), ECA, 1-Electron XAS/XES, NRVS 
  Peter Pinski           : DLPNO-MP2, DLPNO-MP2 Gradient                 
  Christoph Reimann      : Effective Core Potentials                     
  Marius Retegan         : Local ZFS, SOC                                
  Christoph Riplinger    : Optimizer, TS searches, QM/MM, DLPNO-CCSD(T), (RO)-DLPNO pert. Triples 
  Michael Roemelt        : Original ROCIS implementation                 
  Masaaki Saitow         : Open-shell DLPNO-CCSD energy and density      
  Barbara Sandhoefer     : DKH picture change effects                    
  Kantharuban Sivalingam : CASSCF convergence/infrastructure, NEVPT2 and variants, FIC-MRCI 
  Bernardo de Souza      : ESD, SOC TD-DFT                               
  Georgi L. Stoychev     : AutoAux, RI-MP2 NMR, DLPNO-MP2 response, X2C  
  Van Anh Tran           : RI-MP2 g-tensors                              
  Willem Van den Heuvel  : Paramagnetic NMR                              
  Zikuan Wang            : NOTCH, Electric field optimization            
  Frank Wennmohs         : Technical directorship and infrastructure     
  Hang Xu                : AUTO-CI-Response properties                   
                                                                         
[FACCTs GmbH]                                                            
  Markus Bursch, Miquel Garcia-Rates, Christoph Riplinger, Bernardo de Souza, Georgi L. Stoychev 
                                                                 
  APM, Basis sets (HGBS, AHGBS, def-TZVP (Ac-Lr), def2-XVPD (La-Lu)), CI-OPT, improved COSX, DLPNO-Multilevel,           
  DOCKER, DRACO, updates on ESD, GOAT, IRC, LR-CPCM, MBIS, meta-GGA TD-DFT gradient, ML-optimized integration grids, 
  MM, NACMEs, nearIR, NEB, NEB-TS, NL-DFT gradient (VV10), 2- and 3-layer-ONIOM, interface openCOSMO-RS, QMMM,   
  Crystal-QMMM, SF, symmetry and pop. for TD-DFT, r2SCAN hybrids, SOLVATOR                                   
                                                                         
[Other institutions]                                                     
  V. Asgeirsson          : NEB                                           
  Christoph Bannwarth    : sTDA-DFT, sTD-DFT, PBEh-3c, B97-3c, D3        
  Sebastian Ehlert       : rSCAN, r2SCAN, r2SCAN-3c, D4, dhf basis sets  
  Marvin Friede          : D4 for Fr, Ra, Ac-Lr                          
  Lars Goerigk           : TD-DFT with DH, B97 family of functionals     
  Stefan Grimme          : VdW corrections, initial TS optimization, DFT functionals, gCP, sTDA/sTD-DF 
  Waldemar Hujo          : DFT-NL                                        
  H. Jonsson             : NEB                                           
  Holger Kruse           : gCP                                           
  Marcel Mueller         : wB97X-3c, vDZP basis set                      
  Hagen Neugebauer       : wr2SCAN                                       
  Tobias Risthaus        : range-separated hybrid DFT                    
  Lukas Wittmann         : regularized MP2, r2SCAN double-hybrids, wr2SCAN        
                                                                         
We gratefully acknowledge several colleagues who have allowed us to      
interface, adapt or use parts of their codes:                            
  Ed Valeev, F. Pavosevic, A. Kumar             : LibInt (2-el integral package), F12 methods 
  Garnet Chan, S. Sharma, J. Yang, R. Olivares  : DMRG                   
  Ulf Ekstrom                                   : XCFun DFT Library      
  Mihaly Kallay                                 : mrcc  (arbitrary order and MRCC methods)
  Frank Weinhold                                : gennbo (NPA and NBO analysis)           
  Simon Mueller                                 : openCOSMO-RS                            
  Christopher J. Cramer and Donald G. Truhlar   : smd solvation model                     
  S Lehtola, MJT Oliveira, MAL Marques          : LibXC Library                           
  Liviu Ungur et al                             : ANISO software                          


 Your calculation uses the libint2 library for the computation of 2-el integrals
 For citations please refer to: http://libint.valeyev.net

 Your ORCA version has been built with support for libXC version: 6.2.2
 For citations please refer to: https://libxc.gitlab.io

 This ORCA versions uses:
   CBLAS   interface :  Fast vector & matrix operations
   LAPACKE interface :  Fast linear algebra routines
   SCALAPACK package :  Parallel linear algebra routines
   Shared memory     :  Shared parallel matrices
   BLAS/LAPACK       :  OpenBLAS 0.3.27  USE64BITINT DYNAMIC_ARCH NO_AFFINITY Zen SINGLE_THREADED
        Core in use  :  Zen
   Copyright (c) 2011-2014, The OpenBLAS Project


Your calculation utilizes the geometrical counterpoise correction gCP
Please cite in your paper:
H.Kruse, S. Grimme J.Chem.Phys., 136, (2012), 154101 
   

Your calculation utilizes the atom-pairwise dispersion correction
based on EEQ partial charges (D4)


================================================================================

----- Orbital basis set information -----
Your calculation utilizes the basis: def2-mTZVPP
   Stefan Grimme, Andreas Hansen, Sebastian Ehlert, and Jan-Michael Mewes 
   J. Chem. Phys. 154, 064103 (2021). DOI: 10.1063/5.0040021

----- AuxJ basis set information -----
Your calculation utilizes the auxiliary basis: def2/J
   F. Weigend, Phys. Chem. Chem. Phys. 8, 1057 (2006).

================================================================================
                                        WARNINGS
                       Please study these warnings very carefully!
================================================================================



WARNING: SCAN, rSCAN, or r2SCAN functional requested.
  ===> : libXC variant has now been activated.



================================================================================
                                       INPUT FILE
================================================================================
NAME = sp.inp
|  1> ! r2scan-3c def2/J RI DEFGRID2 scfconv6 printgap
|  2> %output
|  3>     printlevel normal
|  4> end
|  5> * xyz 0 1
|  6> C -2.0359178749 -0.592565567 -0.6491879494
|  7> C -1.2073899763 -0.071716362 0.5532257245
|  8> H -1.8536688249 -0.0082185515 1.4371191208
|  9> C -0.6300898602 1.3360797897 0.2989309927
| 10> H -1.3738219551 1.9099980171 -0.2652559028
| 11> C 0.6808776132 1.2956290613 -0.5241011933
| 12> H 1.1358582137 2.2912828931 -0.442532174
| 13> C 1.6467105134 0.2638537455 0.0817292065
| 14> H 2.5082671416 0.1484502132 -0.5930806
| 15> C 0.9325296883 -1.0989541096 0.1824433165
| 16> H 1.5699402905 -1.8100793208 0.7423115899
| 17> O -0.2251117611 -1.0250005678 0.954421534
| 18> O 0.7106985633 -1.5808060254 -1.1133445671
| 19> O 2.0497854379 0.718077278 1.3520871967
| 20> O 0.4650494347 1.0511983717 -1.8856485082
| 21> O -0.4379523844 2.0223882631 1.505313072
| 22> O -2.0022162698 -2.0012064373 -0.732216556
| 23> H -1.6337596755 -0.2263345882 -1.5951890858
| 24> H -3.06737811 -0.2334660155 -0.549734768
| 25> H -0.1240757705 -2.0890199417 -1.1099607108
| 26> H 2.6186717016 0.0580551462 1.7644731589
| 27> H 0.513400561 0.0908606458 -2.0311369472
| 28> H 0.3716926686 1.681821395 1.915108988
| 29> H -2.2502114084 -2.364275197 0.1270230921
| 30> *
| 31> 
| 32>                          ****END OF INPUT****
================================================================================

                       ****************************
                       * Single Point Calculation *
                       ****************************

---------------------------------
CARTESIAN COORDINATES (ANGSTROEM)
---------------------------------
  C     -2.035918   -0.592566   -0.649188
  C     -1.207390   -0.071716    0.553226
  H     -1.853669   -0.008219    1.437119
  C     -0.630090    1.336080    0.298931
  H     -1.373822    1.909998   -0.265256
  C      0.680878    1.295629   -0.524101
  H      1.135858    2.291283   -0.442532
  C      1.646711    0.263854    0.081729
  H      2.508267    0.148450   -0.593081
  C      0.932530   -1.098954    0.182443
  H      1.569940   -1.810079    0.742312
  O     -0.225112   -1.025001    0.954422
  O      0.710699   -1.580806   -1.113345
  O      2.049785    0.718077    1.352087
  O      0.465049    1.051198   -1.885649
  O     -0.437952    2.022388    1.505313
  O     -2.002216   -2.001206   -0.732217
  H     -1.633760   -0.226335   -1.595189
  H     -3.067378   -0.233466   -0.549735
  H     -0.124076   -2.089020   -1.109961
  H      2.618672    0.058055    1.764473
  H      0.513401    0.090861   -2.031137
  H      0.371693    1.681821    1.915109
  H     -2.250211   -2.364275    0.127023

----------------------------
CARTESIAN COORDINATES (A.U.)
----------------------------
  NO LB      ZA    FRAG     MASS         X           Y           Z
   0 C     6.0000    0    12.011   -3.847327   -1.119787   -1.226787
   1 C     6.0000    0    12.011   -2.281636   -0.135524    1.045445
   2 H     1.0000    0     1.008   -3.502926   -0.015531    2.715762
   3 C     6.0000    0    12.011   -1.190697    2.524825    0.564898
   4 H     1.0000    0     1.008   -2.596147    3.609373   -0.501261
   5 C     6.0000    0    12.011    1.286672    2.448384   -0.990408
   6 H     1.0000    0     1.008    2.146461    4.329897   -0.836265
   7 C     6.0000    0    12.011    3.111832    0.498611    0.154446
   8 H     1.0000    0     1.008    4.739938    0.280530   -1.120760
   9 C     6.0000    0    12.011    1.762226   -2.076722    0.344768
  10 H     1.0000    0     1.008    2.966757   -3.420554    1.402766
  11 O     8.0000    0    15.999   -0.425400   -1.936970    1.803595
  12 O     8.0000    0    15.999    1.343026   -2.987290   -2.103916
  13 O     8.0000    0    15.999    3.873533    1.356969    2.555075
  14 O     8.0000    0    15.999    0.878816    1.986477   -3.563359
  15 O     8.0000    0    15.999   -0.827610    3.821760    2.844629
  16 O     8.0000    0    15.999   -3.783640   -3.781732   -1.383689
  17 H     1.0000    0     1.008   -3.087358   -0.427710   -3.014471
  18 H     1.0000    0     1.008   -5.796505   -0.441187   -1.038848
  19 H     1.0000    0     1.008   -0.234469   -3.947676   -2.097522
  20 H     1.0000    0     1.008    4.948572    0.109708    3.334371
  21 H     1.0000    0     1.008    0.970186    0.171702   -3.838293
  22 H     1.0000    0     1.008    0.702397    3.178182    3.619032
  23 H     1.0000    0     1.008   -4.252283   -4.467833    0.240039

--------------------------------
INTERNAL COORDINATES (ANGSTROEM)
--------------------------------
 C      0   0   0     0.000000000000     0.00000000     0.00000000
 C      1   0   0     1.550335775337     0.00000000     0.00000000
 H      2   1   0     1.096802561133   109.24315545     0.00000000
 C      2   1   3     1.542670165464   112.25501573   240.87162579
 H      4   2   1     1.095822254647   107.98867321    36.99813331
 C      4   2   1     1.548435971209   112.37134419   277.56717266
 H      6   4   2     1.097719182906   106.72166187   193.52602037
 C      6   4   2     1.537668353945   109.87073618   311.09035236
 H      8   6   4     1.100439036844   108.69490318   172.19301532
 C      8   6   4     1.541895856670   109.13936072    54.55707547
 H     10   8   6     1.106997662762   109.51854006   187.68659110
 O     10   8   6     1.393396289649   111.96831278   301.81109320
 O     10   8   6     1.400163046243   108.48780406    67.89300457
 O      8   6   4     1.408047526010   108.59122879   293.39753307
 O      6   4   2     1.400049733175   113.01377840    76.02805289
 O      4   2   1     1.401175881723   110.87784154   153.02017473
 O      1   2   3     1.411488097428   111.60117462   270.13585325
 H      1   2   3     1.091226143953   111.26357701   151.99576643
 H      1   2   3     1.096701253656   108.80139114    32.65949490
 H     13  10   8     0.977313165559   108.12418903   212.89471559
 H     14   8   6     0.964013992280   109.51263178   176.96084235
 H     15   6   4     0.972498465338   108.07297627   268.28914210
 H     16   4   2     0.969248985692   107.84601982    77.86505450
 H     17   1   2     0.965201163440   108.47551555    51.95898575

---------------------------
INTERNAL COORDINATES (A.U.)
---------------------------
 C      0   0   0     0.000000000000     0.00000000     0.00000000
 C      1   0   0     2.929710031007     0.00000000     0.00000000
 H      2   1   0     2.072656463526   109.24315545     0.00000000
 C      2   1   3     2.915224127697   112.25501573   240.87162579
 H      4   2   1     2.070803952739   107.98867321    36.99813331
 C      4   2   1     2.926119921497   112.37134419   277.56717266
 H      6   4   2     2.074388627643   106.72166187   193.52602037
 C      6   4   2     2.905772073754   109.87073618   311.09035236
 H      8   6   4     2.079528406712   108.69490318   172.19301532
 C      8   6   4     2.913760896134   109.13936072    54.55707547
 H     10   8   6     2.091922413512   109.51854006   187.68659110
 O     10   8   6     2.633137383459   111.96831278   301.81109320
 O     10   8   6     2.645924700236   108.48780406    67.89300457
 O      8   6   4     2.660824207704   108.59122879   293.39753307
 O      6   4   2     2.645710569571   113.01377840    76.02805289
 O      4   2   1     2.647838681913   110.87784154   153.02017473
 O      1   2   3     2.667325945428   111.60117462   270.13585325
 H      1   2   3     2.062118562247   111.26357701   151.99576643
 H      1   2   3     2.072465020138   108.80139114    32.65949490
 H     13  10   8     1.846854229983   108.12418903   212.89471559
 H     14   8   6     1.821722434678   109.51263178   176.96084235
 H     15   6   4     1.837755765147   108.07297627   268.28914210
 H     16   4   2     1.831615138539   107.84601982    77.86505450
 H     17   1   2     1.823965863044   108.47551555    51.95898575

---------------------
BASIS SET INFORMATION
---------------------
There are 3 groups of distinct atoms

 Group   1 Type C   : 11s6p1d contracted to 5s3p1d pattern {62111/411/1}
 Group   2 Type H   : 4s1p contracted to 2s1p pattern {31/1}
 Group   3 Type O   : 11s6p2d contracted to 5s3p2d pattern {62111/411/11}

Atom   0C    basis set group =>   1
Atom   1C    basis set group =>   1
Atom   2H    basis set group =>   2
Atom   3C    basis set group =>   1
Atom   4H    basis set group =>   2
Atom   5C    basis set group =>   1
Atom   6H    basis set group =>   2
Atom   7C    basis set group =>   1
Atom   8H    basis set group =>   2
Atom   9C    basis set group =>   1
Atom  10H    basis set group =>   2
Atom  11O    basis set group =>   3
Atom  12O    basis set group =>   3
Atom  13O    basis set group =>   3
Atom  14O    basis set group =>   3
Atom  15O    basis set group =>   3
Atom  16O    basis set group =>   3
Atom  17H    basis set group =>   2
Atom  18H    basis set group =>   2
Atom  19H    basis set group =>   2
Atom  20H    basis set group =>   2
Atom  21H    basis set group =>   2
Atom  22H    basis set group =>   2
Atom  23H    basis set group =>   2
---------------------------------
AUXILIARY/J BASIS SET INFORMATION
---------------------------------
There are 3 groups of distinct atoms

 Group   1 Type C   : 12s5p4d2f1g contracted to 6s4p3d1f1g pattern {711111/2111/211/2/1}
 Group   2 Type H   : 5s2p1d contracted to 3s1p1d pattern {311/2/1}
 Group   3 Type O   : 12s5p4d2f1g contracted to 6s4p3d1f1g pattern {711111/2111/211/2/1}

Atom   0C    basis set group =>   1
Atom   1C    basis set group =>   1
Atom   2H    basis set group =>   2
Atom   3C    basis set group =>   1
Atom   4H    basis set group =>   2
Atom   5C    basis set group =>   1
Atom   6H    basis set group =>   2
Atom   7C    basis set group =>   1
Atom   8H    basis set group =>   2
Atom   9C    basis set group =>   1
Atom  10H    basis set group =>   2
Atom  11O    basis set group =>   3
Atom  12O    basis set group =>   3
Atom  13O    basis set group =>   3
Atom  14O    basis set group =>   3
Atom  15O    basis set group =>   3
Atom  16O    basis set group =>   3
Atom  17H    basis set group =>   2
Atom  18H    basis set group =>   2
Atom  19H    basis set group =>   2
Atom  20H    basis set group =>   2
Atom  21H    basis set group =>   2
Atom  22H    basis set group =>   2
Atom  23H    basis set group =>   2

Checking for AutoStart:
The File: sp.gbw exists
Trying to determine its content:
     ... Fine, the file contains calculation information
     ... Fine, the calculation information was read
     ... Fine, the file contains a basis set
     ... Fine, the basis set was read
     ... Fine, the file contains a geometry
     ... Fine, the geometry was read
     ... Fine, the file contains a set of orbitals
     ... Fine, the orbitals can be read
     => possible old guess file was deleted
     => GBW file was renamed to GES file
     => GES file is set as startup file
     => Guess is set to MORead
     ... now leaving AutoStart

------------------------------------------------------------------------------
                             ORCA STARTUP CALCULATIONS
                           -- RI-GTO INTEGRALS CHOSEN --
------------------------------------------------------------------------------
------------------------------------------------------------------------------
                   ___                                                        
                  /   \      - P O W E R E D   B Y -                         
                 /     \                                                     
                 |  |  |   _    _      __       _____    __    __             
                 |  |  |  | |  | |    /  \     |  _  \  |  |  /  |          
                  \  \/   | |  | |   /    \    | | | |  |  | /  /          
                 / \  \   | |__| |  /  /\  \   | |_| |  |  |/  /          
                |  |  |   |  __  | /  /__\  \  |    /   |      \           
                |  |  |   | |  | | |   __   |  |    \   |  |\   \          
                \     /   | |  | | |  |  |  |  | |\  \  |  | \   \       
                 \___/    |_|  |_| |__|  |__|  |_| \__\ |__|  \__/        
                                                                              
                      - O R C A' S   B I G   F R I E N D -                    
                                      &                                       
                       - I N T E G R A L  F E E D E R -                       
                                                                              
 v1 FN, 2020, v2 2021, v3 2022-2024                                           
------------------------------------------------------------------------------


----------------------
SHARK INTEGRAL PACKAGE
----------------------

Number of atoms                             ...     24
Number of basis functions                   ...    318
Number of shells                            ...    150
Maximum angular momentum                    ...      2
Integral batch strategy                     ... SHARK/LIBINT Hybrid
RI-J (if used) integral strategy            ... SPLIT-RIJ (Revised 2003 algorithm where possible)
Printlevel                                  ...      1
Contraction scheme used                     ... SEGMENTED contraction
Prescreening option                         ... SCHWARTZ
   Thresh                                   ... 1.000e-10
   Tcut                                     ... 1.000e-11
   Tpresel                                  ... 1.000e-11 
Coulomb Range Separation                    ... NOT USED
Exchange Range Separation                   ... NOT USED
Multipole approximations                    ... NOT USED
Finite Nucleus Model                        ... NOT USED
CABS basis                                  ... NOT available
Auxiliary Coulomb fitting basis             ... AVAILABLE
   # of basis functions in Aux-J            ...    720
   # of shells in Aux-J                     ...    240
   Maximum angular momentum in Aux-J        ...      4
Auxiliary J/K fitting basis                 ... NOT available
Auxiliary Correlation fitting basis         ... NOT available
Auxiliary 'external' fitting basis          ... NOT available

Checking pre-screening integrals            ... done (  0.0 sec) Dimension = 150
Check shell pair data                       ... done (  0.0 sec)
Shell pair information
Shell pair cut-off parameter TPreSel        ...   1.0e-11
Total number of shell pairs                 ...     11325
Shell pairs after pre-screening             ...     10033
Total number of primitive shell pairs       ...     40203
Primitive shell pairs kept                  ...     24483
          la=0 lb=0:   3033 shell pairs
          la=1 lb=0:   3569 shell pairs
          la=1 lb=1:   1081 shell pairs
          la=2 lb=0:   1378 shell pairs
          la=2 lb=1:    807 shell pairs
          la=2 lb=2:    165 shell pairs

Calculating one electron integrals          ... done (  0.0 sec)
Calculating RI/J V-Matrix + Cholesky decomp.... done (  0.0 sec)
Calculating Nuclear repulsion               ... done (  0.0 sec) ENN=    872.382263486811 Eh

Diagonalization of the overlap matrix:
Smallest eigenvalue                        ... 4.216e-05
Time for diagonalization                   ...    0.010 sec
Threshold for overlap eigenvalues          ... 1.000e-07
Number of eigenvalues below threshold      ... 0
Time for construction of square roots      ...    0.007 sec
Total time needed                          ...    0.018 sec

-------------------
DFT GRID GENERATION
-------------------

General Integration Accuracy     IntAcc      ... 4.388
Radial Grid Type                 RadialGrid  ... OptM3 with GC (2021)
Angular Grid (max. ang.)         AngularGrid ... 4 (Lebedev-302)
Angular grid pruning method      GridPruning ... 4 (adaptive)
Weight generation scheme         WeightScheme... mBecke (2022)
Basis function cutoff            BFCut       ... 1.0000e-10
Integration weight cutoff        WCut        ... 1.0000e-14
Partially contracted basis set               ... off
Rotationally invariant grid construction     ... off
Angular grids for H and He will be reduced by one unit
Diffuse basis detected: some atoms will have their outermost
                        angular grid increased by 1.

Total number of grid points                  ...   111679
Total number of batches                      ...     1759
Average number of points per batch           ...       63
Average number of grid points per atom       ...     4653
Initializing property integral containers    ... done (  0.0 sec)

SHARK setup successfully completed in   1.4 seconds

Maximum memory used throughout the entire STARTUP-calculation: 57.2 MB
-------------------------------------------------------------------------------
                                 ORCA GUESS
                   Start orbitals & Density for SCF / CASSCF
-------------------------------------------------------------------------------

------------
SCF SETTINGS
------------
Hamiltonian:
 Density Functional     Method          .... DFT(GTOs)
  Functional kind                       .... Exchange
  Functional name                       .... Re-regularized SCAN exchange by Furness et al
  Functional family                     .... MGGA
  Functional refs                              
    [ 0] J. W. Furness, A. D. Kaplan, J. Ning, J. P. Perdew, and J. Sun.,  J. Phys. Chem. Lett. 11, 8208-8215 (2020), doi: 10.1021/acs.jpclett.0c02405
    [ 1] J. W. Furness, A. D. Kaplan, J. Ning, J. P. Perdew, and J. Sun.,  J. Phys. Chem. Lett. 11, 9248-9248 (2020), doi: 10.1021/acs.jpclett.0c03077
  Functional external parameters        .... 6
    Parameter  0 _c1        =  6.670000e-01 : c1 parameter        
    Parameter  1 _c2        =  8.000000e-01 : c2 parameter        
    Parameter  2 _d         =  1.240000e+00 : d parameter         
    Parameter  3 _k1        =  6.500000e-02 : k1 parameter        
    Parameter  4 _eta       =  1.000000e-03 : eta parameter       
    Parameter  5 _dp2       =  3.610000e-01 : dp2 parameter       
  Functional kind                       .... Correlation
  Functional name                       .... Re-regularized SCAN correlation by Furness et al
  Functional family                     .... MGGA
  Functional refs                              
    [ 0] J. W. Furness, A. D. Kaplan, J. Ning, J. P. Perdew, and J. Sun.,  J. Phys. Chem. Lett. 11, 8208-8215 (2020), doi: 10.1021/acs.jpclett.0c02405
    [ 1] J. W. Furness, A. D. Kaplan, J. Ning, J. P. Perdew, and J. Sun.,  J. Phys. Chem. Lett. 11, 9248-9248 (2020), doi: 10.1021/acs.jpclett.0c03077
  Functional external parameters        .... 1
    Parameter  0 _eta       =  1.000000e-03 : Regularization parameter
 Gradients option       PostSCFGGA      .... off
 RI-approximation to the Coulomb term is turned on
   Number of AuxJ basis functions       .... 720


General Settings:
 Integral files         IntName         .... sp
 Hartree-Fock type      HFTyp           .... RHF
 Total Charge           Charge          ....    0
 Multiplicity           Mult            ....    1
 Number of Electrons    NEL             ....   96
 Basis Dimension        Dim             ....  318
 Nuclear Repulsion      ENuc            ....    872.3822634868 Eh

Convergence Acceleration:
 AO-DIIS                CNVDIIS         .... on
   Start iteration      DIISMaxIt       ....    12
   Startup error        DIISStart       ....  0.200000
   # of expansion vecs  DIISMaxEq       ....     5
   Bias factor          DIISBfac        ....   1.050
   Max. coefficient     DIISMaxC        ....  10.000
 MO-DIIS                CNVKDIIS        .... off
 Trust-Rad. Augm. Hess. CNVTRAH         .... auto
   Auto Start mean grad. ratio tolernc. ....  1.125000
   Auto Start start iteration           ....     1
   Auto Start num. interpolation iter.  ....    10
   Max. Number of Micro iterations      ....    24
   Max. Number of Macro iterations      .... Maxiter - #DIIS iter
   Number of Davidson start vectors     ....     2
   Converg. threshold    (grad. norm)   ....   3.330e-04
   Grad. Scal. Fac. for Micro threshold ....   0.100
   Minimum threshold for Micro iter.    ....   1.000e-02
   NR start threshold (gradient norm)   ....   1.000e-04
   Initial trust radius                 ....   0.400
   Minimum AH scaling param. (alpha)    ....   1.000
   Maximum AH scaling param. (alpha)    .... 1000.000
   Quad. conv. algorithm                .... NR
   White noise on init. David. guess    .... on
   Maximum white noise                  ....   0.010
   Pseudo random numbers                .... off
   Inactive MOs                         .... canonical
   Orbital update algorithm             .... Taylor
   Preconditioner                       .... Diag
   Full preconditioner red. dimension   ....   250
   COSX micro iterations for RIJONX calc.... off
 SOSCF                  CNVSOSCF        .... on
   Start iteration      SOSCFMaxIt      ....   150
   Startup grad/error   SOSCFStart      ....  0.003300
   Hessian update       SOSCFHessUp     .... L-BFGS
 Level Shifting         CNVShift        .... on
   Level shift para.    LevelShift      ....    0.2500
   Turn off err/grad.   ShiftErr        ....    0.0010
 Zerner damping         CNVZerner       .... off
 Static damping         CNVDamp         .... on
   Fraction old density DampFac         ....    0.7000
   Max. Damping (<1)    DampMax         ....    0.9800
   Min. Damping (>=0)   DampMin         ....    0.0000
   Turn off err/grad.   DampErr         ....    0.1000

SCF Procedure:
 Maximum # iterations   MaxIter         ....   125
 SCF integral mode      SCFMode         .... Direct
   Integral package                     .... SHARK and LIBINT hybrid scheme
 Reset frequency        DirectResetFreq ....    20
 Integral Threshold     Thresh          ....  1.000e-10 Eh
 Primitive CutOff       TCut            ....  1.000e-11 Eh

Convergence Tolerance:
 Convergence Check Mode ConvCheckMode   .... Total+1el-Energy
 Convergence forced     ConvForced      .... 0
 Energy Change          TolE            ....  1.000e-06 Eh
 1-El. energy change                    ....  1.000e-03 Eh
 Orbital Gradient       TolG            ....  3.330e-04
 Orbital Rotation angle TolX            ....  3.330e-04
 DIIS Error             TolErr          ....  1.000e-06

---------------------
INITIAL GUESS: MOREAD
---------------------
Guess MOs are being read from file: sp.ges
Input Geometry matches current geometry (good)
Atom 0: N(Shells)= 9 and 6 - projection required
Input basis set needs projection
NBasis(read)= 192
NBasis(calc)= 318
Basis set overlap was calculated
Using GuessMode=FMatrix for the initial guess
C*T matrix was formed
Effective Fockian was calculated
Effective Fockian was diagonalized
Initial density was built
                      ------------------
                      INITIAL GUESS DONE (   0.0 sec)
                      ------------------
             **** ENERGY FILE WAS UPDATED (sp.en.tmp) ****
Finished Guess after   0.1 sec
Maximum memory used throughout the entire GUESS-calculation: 29.1 MB

-------------------------------------------------------------------------------------------
                                      ORCA LEAN-SCF
                              memory conserving SCF solver
-------------------------------------------------------------------------------------------

----------------------------------------D-I-I-S--------------------------------------------
Iteration    Energy (Eh)           Delta-E    RMSDP     MaxDP     DIISErr   Damp  Time(sec)
-------------------------------------------------------------------------------------------
               ***  Starting incremental Fock matrix formation  ***
    1    -686.6909725134539713     0.00e+00  6.21e-03  4.36e-01  6.29e-01  0.700   4.4
    2    -686.8085337280422209    -1.18e-01  4.74e-03  2.91e-01  4.42e-01  0.700   3.8
    3    -686.8916818799805242    -8.31e-02  3.40e-03  2.02e-01  3.10e-01  0.700   3.7
    4    -686.9500556184871130    -5.84e-02  2.41e-03  1.41e-01  2.17e-01  0.700   3.7
                               ***Turning on AO-DIIS***
    5    -686.9910055002101217    -4.09e-02  1.71e-03  1.00e-01  1.52e-01  0.700   3.7
    6    -687.0197147187136579    -2.87e-02  1.21e-03  7.08e-02  1.06e-01  0.700   3.6
    7    -687.0398449610836451    -2.01e-02  8.51e-04  4.96e-02  7.43e-02  0.700   3.5
    8    -687.0539522692827177    -1.41e-02  1.99e-03  1.15e-01  5.21e-02  0.000   3.5
                              *** Initializing SOSCF ***
---------------------------------------S-O-S-C-F--------------------------------------
Iteration    Energy (Eh)           Delta-E    RMSDP     MaxDP     MaxGrad    Time(sec)
--------------------------------------------------------------------------------------
    9    -687.0869207619152803    -3.30e-02  1.20e-05  5.09e-04  1.58e-04     3.8
               *** Restarting incremental Fock matrix formation ***
   10    -687.0869209879838309    -2.26e-07  8.82e-06  4.52e-04  2.34e-05     4.5
                  *** Gradient check signals convergence ***

               *****************************************************
               *                     SUCCESS                       *
               *           SCF CONVERGED AFTER  10 CYCLES          *
               *****************************************************

             **** ENERGY FILE WAS UPDATED (sp.en.tmp) ****

----------------
TOTAL SCF ENERGY
----------------

Total Energy       :       -687.08692098798383 Eh          -18696.58564 eV

Components:
Nuclear Repulsion  :        872.38226348681087 Eh           23738.72824 eV
Electronic Energy  :      -1559.46918447479470 Eh          -42435.31388 eV
One Electron Energy:      -2674.60043209670630 Eh          -72779.57780 eV
Two Electron Energy:       1115.13124762191160 Eh           30344.26392 eV

Virial components:
Potential Energy   :      -1371.55640731764788 Eh          -37321.94725 eV
Kinetic Energy     :        684.46948632966416 Eh           18625.36162 eV
Virial Ratio       :          2.00382403410319

DFT components:
N(Alpha)           :       48.000195670493 electrons
N(Beta)            :       48.000195670493 electrons
N(Total)           :       96.000391340987 electrons
E(X)               :      -85.295169843785 Eh       
E(C)               :       -3.203570636267 Eh       
E(XC)              :      -88.498740480052 Eh       

---------------
SCF CONVERGENCE
---------------

  Last Energy change         ...    2.2607e-07  Tolerance :   1.0000e-06
  Last MAX-Density change    ...    4.5207e-04  Tolerance :   1.0000e-05
  Last RMS-Density change    ...    8.8219e-06  Tolerance :   1.0000e-06
  Last DIIS Error            ...    1.5838e-04  Tolerance :   1.0000e-06
  Last Orbital Gradient      ...    2.3366e-05  Tolerance :   3.3300e-04
  Last Orbital Rotation      ...    5.0082e-05  Tolerance :   3.3300e-04


----------------
ORBITAL ENERGIES
----------------

  NO   OCC          E(Eh)            E(eV) 
   0   2.0000     -18.984105      -516.5838 
   1   2.0000     -18.980043      -516.4732 
   2   2.0000     -18.979184      -516.4499 
   3   2.0000     -18.972289      -516.2622 
   4   2.0000     -18.948104      -515.6041 
   5   2.0000     -18.942370      -515.4481 
   6   2.0000     -10.148503      -276.1548 
   7   2.0000     -10.102037      -274.8904 
   8   2.0000     -10.095463      -274.7115 
   9   2.0000     -10.092198      -274.6227 
  10   2.0000     -10.091705      -274.6092 
  11   2.0000     -10.087555      -274.4963 
  12   2.0000      -1.063605       -28.9422 
  13   2.0000      -1.023100       -27.8400 
  14   2.0000      -1.012714       -27.5573 
  15   2.0000      -0.994937       -27.0736 
  16   2.0000      -0.992439       -27.0056 
  17   2.0000      -0.978535       -26.6273 
  18   2.0000      -0.750713       -20.4279 
  19   2.0000      -0.741687       -20.1823 
  20   2.0000      -0.666603       -18.1392 
  21   2.0000      -0.630550       -17.1581 
  22   2.0000      -0.616502       -16.7759 
  23   2.0000      -0.556681       -15.1481 
  24   2.0000      -0.524881       -14.2827 
  25   2.0000      -0.518266       -14.1027 
  26   2.0000      -0.495499       -13.4832 
  27   2.0000      -0.485807       -13.2195 
  28   2.0000      -0.467287       -12.7155 
  29   2.0000      -0.454080       -12.3562 
  30   2.0000      -0.447470       -12.1763 
  31   2.0000      -0.438702       -11.9377 
  32   2.0000      -0.412683       -11.2297 
  33   2.0000      -0.402064       -10.9407 
  34   2.0000      -0.394692       -10.7401 
  35   2.0000      -0.381859       -10.3909 
  36   2.0000      -0.365535        -9.9467 
  37   2.0000      -0.356546        -9.7021 
  38   2.0000      -0.336808        -9.1650 
  39   2.0000      -0.326358        -8.8807 
  40   2.0000      -0.315723        -8.5912 
  41   2.0000      -0.289541        -7.8788 
  42   2.0000      -0.280794        -7.6408 
  43   2.0000      -0.272365        -7.4114 
  44   2.0000      -0.270093        -7.3496 
  45   2.0000      -0.250503        -6.8165 
  46   2.0000      -0.242540        -6.5998 
  47   2.0000      -0.218895        -5.9564 
  48   0.0000       0.023262         0.6330 
  49   0.0000       0.033110         0.9010 
  50   0.0000       0.067149         1.8272 
  51   0.0000       0.076393         2.0788 
  52   0.0000       0.085156         2.3172 
  53   0.0000       0.089923         2.4469 
  54   0.0000       0.102719         2.7951 
  55   0.0000       0.114840         3.1249 
  56   0.0000       0.125182         3.4064 
  57   0.0000       0.137601         3.7443 
  58   0.0000       0.142312         3.8725 
*Only the first 10 virtual orbitals were printed.

                    ********************************
                    * MULLIKEN POPULATION ANALYSIS *
                    ********************************

-----------------------
MULLIKEN ATOMIC CHARGES
-----------------------
   0 C :   -0.223693
   1 C :    0.011681
   2 H :    0.167100
   3 C :   -0.133318
   4 H :    0.165898
   5 C :   -0.003781
   6 H :    0.169326
   7 C :   -0.069814
   8 H :    0.160902
   9 C :   -0.054127
  10 H :    0.132350
  11 O :   -0.199913
  12 O :   -0.428318
  13 O :   -0.401335
  14 O :   -0.413075
  15 O :   -0.401478
  16 O :   -0.437974
  17 H :    0.184452
  18 H :    0.144516
  19 H :    0.352327
  20 H :    0.296893
  21 H :    0.335169
  22 H :    0.333200
  23 H :    0.313012
Sum of atomic charges:   -0.0000000

--------------------------------
MULLIKEN REDUCED ORBITAL CHARGES
--------------------------------
  0 C s       :     3.342353  s :     3.342353
      pz      :     1.026826  p :     2.825001
      px      :     1.066913
      py      :     0.731262
      dz2     :     0.010740  d :     0.056340
      dxz     :     0.005809
      dyz     :     0.011534
      dx2y2   :     0.013982
      dxy     :     0.014274

  1 C s       :     3.116195  s :     3.116195
      pz      :     1.032608  p :     2.809881
      px      :     0.889558
      py      :     0.887715
      dz2     :     0.010281  d :     0.062243
      dxz     :     0.015578
      dyz     :     0.008238
      dx2y2   :     0.013213
      dxy     :     0.014933

  2 H s       :     0.815810  s :     0.815810
      pz      :     0.008730  p :     0.017090
      px      :     0.005471
      py      :     0.002889

  3 C s       :     3.255705  s :     3.255705
      pz      :     0.844494  p :     2.810221
      px      :     1.042090
      py      :     0.923637
      dz2     :     0.015324  d :     0.067392
      dxz     :     0.015907
      dyz     :     0.015105
      dx2y2   :     0.010066
      dxy     :     0.010990

  4 H s       :     0.816984  s :     0.816984
      pz      :     0.004835  p :     0.017118
      px      :     0.007053
      py      :     0.005230

  5 C s       :     3.147733  s :     3.147733
      pz      :     0.736175  p :     2.788186
      px      :     0.965080
      py      :     1.086931
      dz2     :     0.018210  d :     0.067862
      dxz     :     0.020238
      dyz     :     0.011550
      dx2y2   :     0.007933
      dxy     :     0.009931

  6 H s       :     0.813633  s :     0.813633
      pz      :     0.002112  p :     0.017041
      px      :     0.004662
      py      :     0.010267

  7 C s       :     3.231061  s :     3.231061
      pz      :     0.818615  p :     2.773218
      px      :     1.026165
      py      :     0.928438
      dz2     :     0.016941  d :     0.065535
      dxz     :     0.016377
      dyz     :     0.011815
      dx2y2   :     0.008685
      dxy     :     0.011717

  8 H s       :     0.822085  s :     0.822085
      pz      :     0.005910  p :     0.017012
      px      :     0.007833
      py      :     0.003270

  9 C s       :     3.255243  s :     3.255243
      pz      :     0.828759  p :     2.705003
      px      :     0.858187
      py      :     1.018058
      dz2     :     0.023205  d :     0.093880
      dxz     :     0.023546
      dyz     :     0.018025
      dx2y2   :     0.012698
      dxy     :     0.016406

 10 H s       :     0.851393  s :     0.851393
      pz      :     0.004434  p :     0.016257
      px      :     0.005278
      py      :     0.006545

 11 O s       :     3.733001  s :     3.733001
      pz      :     1.636536  p :     4.451261
      px      :     1.202315
      py      :     1.612410
      dz2     :     0.002741  d :     0.015651
      dxz     :     0.007107
      dyz     :     0.001893
      dx2y2   :    -0.001466
      dxy     :     0.005376

 12 O s       :     3.741486  s :     3.741486
      pz      :     1.400136  p :     4.670940
      px      :     1.575257
      py      :     1.695548
      dz2     :     0.005260  d :     0.015891
      dxz     :     0.000540
      dyz     :    -0.001937
      dx2y2   :     0.004627
      dxy     :     0.007402

 13 O s       :     3.758358  s :     3.758358
      pz      :     1.321403  p :     4.625919
      px      :     1.679818
      py      :     1.624698
      dz2     :     0.003454  d :     0.017058
      dxz     :    -0.000368
      dyz     :     0.004324
      dx2y2   :     0.006453
      dxy     :     0.003194

 14 O s       :     3.759595  s :     3.759595
      pz      :     1.320581  p :     4.642234
      px      :     1.887015
      py      :     1.434638
      dz2     :    -0.000330  d :     0.011246
      dxz     :     0.002032
      dyz     :    -0.001645
      dx2y2   :     0.005301
      dxy     :     0.005888

 15 O s       :     3.753004  s :     3.753004
      pz      :     1.356584  p :     4.635807
      px      :     1.574291
      py      :     1.704932
      dz2     :     0.002335  d :     0.012667
      dxz     :    -0.000075
      dyz     :     0.000033
      dx2y2   :     0.000593
      dxy     :     0.009780

 16 O s       :     3.752128  s :     3.752128
      pz      :     1.525094  p :     4.662705
      px      :     1.866106
      py      :     1.271504
      dz2     :     0.007569  d :     0.023142
      dxz     :     0.004337
      dyz     :     0.003247
      dx2y2   :     0.003667
      dxy     :     0.004321

 17 H s       :     0.797610  s :     0.797610
      pz      :     0.009615  p :     0.017938
      px      :     0.004857
      py      :     0.003467

 18 H s       :     0.838280  s :     0.838280
      pz      :     0.003501  p :     0.017204
      px      :     0.010483
      py      :     0.003220

 19 H s       :     0.603143  s :     0.603143
      pz      :     0.007506  p :     0.044531
      px      :     0.022888
      py      :     0.014137

 20 H s       :     0.659576  s :     0.659576
      pz      :     0.011282  p :     0.043531
      px      :     0.016074
      py      :     0.016175

 21 H s       :     0.619165  s :     0.619165
      pz      :     0.008026  p :     0.045665
      px      :     0.011921
      py      :     0.025718

 22 H s       :     0.621967  s :     0.621967
      pz      :     0.011160  p :     0.044833
      px      :     0.021101
      py      :     0.012573

 23 H s       :     0.644365  s :     0.644365
      pz      :     0.020009  p :     0.042623
      px      :     0.012775
      py      :     0.009839


------------------------
MULLIKEN OVERLAP CHARGES
------------------------
B(  0-C ,  1-C ) :   0.1586 B(  0-C ,  2-H ) :  -0.0756 B(  0-C ,  3-C ) :  -0.2877 
B(  0-C ,  5-C ) :   0.1416 B(  0-C ,  7-C ) :  -0.0568 B(  0-C ,  9-C ) :  -0.0661 
B(  0-C , 11-O ) :  -0.1856 B(  0-C , 12-O ) :   0.0842 B(  0-C , 16-O ) :   0.4218 
B(  0-C , 17-H ) :   0.8359 B(  0-C , 18-H ) :   0.8327 B(  0-C , 23-H ) :  -0.0942 
B(  1-C ,  2-H ) :   0.7786 B(  1-C ,  3-C ) :   0.1527 B(  1-C ,  4-H ) :  -0.1544 
B(  1-C ,  5-C ) :  -0.3241 B(  1-C ,  7-C ) :   0.1532 B(  1-C ,  9-C ) :  -0.4987 
B(  1-C , 11-O ) :   0.5208 B(  1-C , 14-O ) :   0.0585 B(  1-C , 15-O ) :  -0.0878 
B(  1-C , 16-O ) :  -0.1594 B(  1-C , 17-H ) :  -0.0999 B(  1-C , 18-H ) :  -0.1055 
B(  2-H , 11-O ) :  -0.1134 B(  3-C ,  4-H ) :   0.8835 B(  3-C ,  5-C ) :  -0.2156 
B(  3-C ,  6-H ) :  -0.1226 B(  3-C ,  9-C ) :   0.0736 B(  3-C , 11-O ) :  -0.1733 
B(  3-C , 13-O ) :   0.0869 B(  3-C , 14-O ) :  -0.2159 B(  3-C , 15-O ) :   0.3381 
B(  3-C , 22-H ) :  -0.0958 B(  4-H ,  5-C ) :  -0.0832 B(  4-H , 15-O ) :  -0.1009 
B(  5-C ,  6-H ) :   0.9097 B(  5-C ,  7-C ) :  -0.3389 B(  5-C ,  8-H ) :  -0.0682 
B(  5-C ,  9-C ) :   0.2302 B(  5-C , 13-O ) :  -0.1555 B(  5-C , 14-O ) :   0.3524 
B(  5-C , 15-O ) :  -0.0915 B(  5-C , 21-H ) :  -0.0994 B(  6-H ,  7-C ) :  -0.0756 
B(  6-H , 14-O ) :  -0.0845 B(  7-C ,  8-H ) :   0.8610 B(  7-C ,  9-C ) :  -0.0975 
B(  7-C , 10-H ) :  -0.0685 B(  7-C , 11-O ) :  -0.1569 B(  7-C , 12-O ) :  -0.1011 
B(  7-C , 13-O ) :   0.3551 B(  7-C , 15-O ) :   0.0828 B(  7-C , 20-H ) :  -0.1094 
B(  8-H ,  9-C ) :  -0.1178 B(  8-H , 13-O ) :  -0.0804 B(  9-C , 10-H ) :   0.8645 
B(  9-C , 11-O ) :   0.3985 B(  9-C , 12-O ) :   0.1107 B(  9-C , 13-O ) :  -0.1177 
B(  9-C , 19-H ) :  -0.0750 B( 10-H , 11-O ) :  -0.1493 B( 10-H , 12-O ) :  -0.1073 
B( 11-O , 12-O ) :  -0.1264 B( 12-O , 14-O ) :  -0.0936 B( 12-O , 16-O ) :  -0.0931 
B( 12-O , 19-H ) :   0.5956 B( 12-O , 21-H ) :   0.0569 B( 13-O , 15-O ) :  -0.0645 
B( 13-O , 20-H ) :   0.5975 B( 14-O , 21-H ) :   0.5835 B( 15-O , 22-H ) :   0.5892 
B( 16-O , 17-H ) :  -0.0998 B( 16-O , 18-H ) :  -0.0773 B( 16-O , 19-H ) :   0.0738 
B( 16-O , 23-H ) :   0.6160 B( 17-H , 18-H ) :  -0.0526 


                     *******************************
                     * LOEWDIN POPULATION ANALYSIS *
                     *******************************

----------------------
LOEWDIN ATOMIC CHARGES
----------------------
   0 C :    0.021843
   1 C :    0.101541
   2 H :    0.202717
   3 C :    0.105833
   4 H :    0.199386
   5 C :    0.121128
   6 H :    0.201959
   7 C :    0.125934
   8 H :    0.188833
   9 C :    0.287113
  10 H :    0.193601
  11 O :   -0.656223
  12 O :   -0.538490
  13 O :   -0.578009
  14 O :   -0.579878
  15 O :   -0.572369
  16 O :   -0.602794
  17 H :    0.195261
  18 H :    0.169844
  19 H :    0.297003
  20 H :    0.275471
  21 H :    0.282591
  22 H :    0.283280
  23 H :    0.274426

-------------------------------
LOEWDIN REDUCED ORBITAL CHARGES
-------------------------------
  0 C s       :     2.870401  s :     2.870401
      pz      :     1.065955  p :     2.980204
      px      :     1.067578
      py      :     0.846671
      dz2     :     0.024198  d :     0.127552
      dxz     :     0.012523
      dyz     :     0.026303
      dx2y2   :     0.032359
      dxy     :     0.032170

  1 C s       :     2.830719  s :     2.830719
      pz      :     1.051059  p :     2.932113
      px      :     0.936800
      py      :     0.944254
      dz2     :     0.021073  d :     0.135628
      dxz     :     0.037213
      dyz     :     0.016630
      dx2y2   :     0.028141
      dxy     :     0.032571

  2 H s       :     0.757559  s :     0.757559
      pz      :     0.021968  p :     0.039724
      px      :     0.011571
      py      :     0.006186

  3 C s       :     2.825665  s :     2.825665
      pz      :     0.912865  p :     2.923672
      px      :     1.035018
      py      :     0.975789
      dz2     :     0.031611  d :     0.144830
      dxz     :     0.034653
      dyz     :     0.033347
      dx2y2   :     0.022012
      dxy     :     0.023207

  4 H s       :     0.760664  s :     0.760664
      pz      :     0.010213  p :     0.039950
      px      :     0.016486
      py      :     0.013252

  5 C s       :     2.820594  s :     2.820594
      pz      :     0.864476  p :     2.912759
      px      :     1.007708
      py      :     1.040574
      dz2     :     0.041973  d :     0.145520
      dxz     :     0.043026
      dyz     :     0.022879
      dx2y2   :     0.016190
      dxy     :     0.021452

  6 H s       :     0.758406  s :     0.758406
      pz      :     0.004647  p :     0.039635
      px      :     0.010737
      py      :     0.024252

  7 C s       :     2.827307  s :     2.827307
      pz      :     0.887924  p :     2.905629
      px      :     1.010663
      py      :     1.007041
      dz2     :     0.036815  d :     0.141131
      dxz     :     0.037027
      dyz     :     0.025317
      dx2y2   :     0.016951
      dxy     :     0.025021

  8 H s       :     0.769885  s :     0.769885
      pz      :     0.014026  p :     0.041282
      px      :     0.019162
      py      :     0.008093

  9 C s       :     2.763575  s :     2.763575
      pz      :     0.869226  p :     2.742951
      px      :     0.894710
      py      :     0.979015
      dz2     :     0.052510  d :     0.206362
      dxz     :     0.053990
      dyz     :     0.037987
      dx2y2   :     0.025554
      dxy     :     0.036320

 10 H s       :     0.770322  s :     0.770322
      pz      :     0.010562  p :     0.036078
      px      :     0.010367
      py      :     0.015149

 11 O s       :     3.476299  s :     3.476299
      pz      :     1.654039  p :     4.682228
      px      :     1.389770
      py      :     1.638420
      dz2     :     0.075297  d :     0.497695
      dxz     :     0.114479
      dyz     :     0.066697
      dx2y2   :     0.105544
      dxy     :     0.135679

 12 O s       :     3.496892  s :     3.496892
      pz      :     1.504877  p :     4.750570
      px      :     1.572419
      py      :     1.673274
      dz2     :     0.081311  d :     0.291027
      dxz     :     0.059014
      dyz     :     0.069658
      dx2y2   :     0.036259
      dxy     :     0.044785

 13 O s       :     3.497884  s :     3.497884
      pz      :     1.458806  p :     4.776284
      px      :     1.677218
      py      :     1.640261
      dz2     :     0.079114  d :     0.303840
      dxz     :     0.075937
      dyz     :     0.076647
      dx2y2   :     0.025542
      dxy     :     0.046600

 14 O s       :     3.500186  s :     3.500186
      pz      :     1.451118  p :     4.784231
      px      :     1.845658
      py      :     1.487455
      dz2     :     0.088214  d :     0.295461
      dxz     :     0.071929
      dyz     :     0.074431
      dx2y2   :     0.038548
      dxy     :     0.022340

 15 O s       :     3.500277  s :     3.500277
      pz      :     1.474322  p :     4.784333
      px      :     1.589422
      py      :     1.720588
      dz2     :     0.073898  d :     0.287759
      dxz     :     0.079730
      dyz     :     0.063229
      dx2y2   :     0.032185
      dxy     :     0.038716

 16 O s       :     3.513703  s :     3.513703
      pz      :     1.560382  p :     4.779209
      px      :     1.813546
      py      :     1.405281
      dz2     :     0.040511  d :     0.309882
      dxz     :     0.022227
      dyz     :     0.090991
      dx2y2   :     0.080948
      dxy     :     0.075205

 17 H s       :     0.762186  s :     0.762186
      pz      :     0.024163  p :     0.042553
      px      :     0.011483
      py      :     0.006907

 18 H s       :     0.789149  s :     0.789149
      pz      :     0.008275  p :     0.041007
      px      :     0.025337
      py      :     0.007395

 19 H s       :     0.572564  s :     0.572564
      pz      :     0.019372  p :     0.130433
      px      :     0.070505
      py      :     0.040556

 20 H s       :     0.601226  s :     0.601226
      pz      :     0.030101  p :     0.123304
      px      :     0.044690
      py      :     0.048512

 21 H s       :     0.584281  s :     0.584281
      pz      :     0.020905  p :     0.133127
      px      :     0.031445
      py      :     0.080778

 22 H s       :     0.588052  s :     0.588052
      pz      :     0.030126  p :     0.128668
      px      :     0.063426
      py      :     0.035116

 23 H s       :     0.603020  s :     0.603020
      pz      :     0.061981  p :     0.122554
      px      :     0.034501
      py      :     0.026072


---------------------------------
LOEWDIN BOND ORDERS (THRESH 0.050000)
---------------------------------
B(  0-C ,  1-C ) :   0.9218 B(  0-C ,  3-C ) :   0.0765 B(  0-C , 11-O ) :   0.1384 
B(  0-C , 16-O ) :   1.4353 B(  0-C , 17-H ) :   0.8033 B(  0-C , 18-H ) :   0.8264 
B(  1-C ,  2-H ) :   0.7767 B(  1-C ,  3-C ) :   0.8988 B(  1-C ,  5-C ) :   0.0553 
B(  1-C ,  9-C ) :   0.0624 B(  1-C , 11-O ) :   1.3285 B(  1-C , 15-O ) :   0.1666 
B(  1-C , 16-O ) :   0.1513 B(  2-H , 11-O ) :   0.0991 B(  3-C ,  4-H ) :   0.7709 
B(  3-C ,  5-C ) :   0.8772 B(  3-C ,  7-C ) :   0.0556 B(  3-C , 11-O ) :   0.1275 
B(  3-C , 14-O ) :   0.1578 B(  3-C , 15-O ) :   1.4377 B(  4-H , 15-O ) :   0.0961 
B(  5-C ,  6-H ) :   0.7709 B(  5-C ,  7-C ) :   0.8852 B(  5-C ,  9-C ) :   0.0530 
B(  5-C , 13-O ) :   0.1541 B(  5-C , 14-O ) :   1.4388 B(  5-C , 15-O ) :   0.1573 
B(  6-H , 14-O ) :   0.0978 B(  7-C ,  8-H ) :   0.7760 B(  7-C ,  9-C ) :   0.8377 
B(  7-C , 11-O ) :   0.1312 B(  7-C , 12-O ) :   0.1547 B(  7-C , 13-O ) :   1.3938 
B(  7-C , 14-O ) :   0.1530 B(  8-H , 13-O ) :   0.0989 B(  9-C , 10-H ) :   0.7289 
B(  9-C , 11-O ) :   1.3284 B(  9-C , 12-O ) :   1.3280 B(  9-C , 13-O ) :   0.1494 
B( 10-H , 11-O ) :   0.0946 B( 10-H , 12-O ) :   0.0956 B( 11-O , 12-O ) :   0.2821 
B( 11-O , 16-O ) :   0.1078 B( 12-O , 14-O ) :   0.1176 B( 12-O , 16-O ) :   0.1065 
B( 12-O , 19-H ) :   0.8837 B( 12-O , 21-H ) :   0.0714 B( 13-O , 15-O ) :   0.0907 
B( 13-O , 20-H ) :   0.9562 B( 14-O , 21-H ) :   0.9064 B( 15-O , 22-H ) :   0.9234 
B( 16-O , 17-H ) :   0.0999 B( 16-O , 18-H ) :   0.1015 B( 16-O , 19-H ) :   0.0725 
B( 16-O , 23-H ) :   0.9602 

------------------------------------------
LOEWDIN REDUCED ORBITAL POPULATIONS PER MO
-------------------------------------------
THRESHOLD FOR PRINTING IS 0.1%%
                      0         1         2         3         4         5   
                 -18.98411 -18.98004 -18.97918 -18.97229 -18.94810 -18.94237
                   2.00000   2.00000   2.00000   2.00000   2.00000   2.00000
                  --------  --------  --------  --------  --------  --------
11 O  s               0.0       0.0      99.9       0.0       0.0       0.0
12 O  s               0.0       0.0       0.0      99.9       0.0       0.0
13 O  s              99.9       0.0       0.0       0.0       0.0       0.0
14 O  s               0.0       0.0       0.0       0.0      99.9       0.0
15 O  s               0.0       0.0       0.0       0.0       0.0      99.9
16 O  s               0.0      99.9       0.0       0.0       0.0       0.0

                      6         7         8         9        10        11   
                 -10.14850 -10.10204 -10.09546 -10.09220 -10.09170 -10.08755
                   2.00000   2.00000   2.00000   2.00000   2.00000   2.00000
                  --------  --------  --------  --------  --------  --------
 0 C  s               0.0       0.0       0.0      99.4       0.0       0.0
 1 C  s               0.0       0.0      99.3       0.0       0.0       0.0
 3 C  s               0.0       0.0       0.0       0.0       0.0      99.3
 5 C  s               0.0       0.0       0.0       0.0      99.3       0.0
 7 C  s               0.0      99.3       0.0       0.0       0.0       0.0
 9 C  s              99.0       0.0       0.0       0.0       0.0       0.0
11 O  dxz             0.2       0.0       0.0       0.0       0.0       0.0
11 O  dx2y2           0.1       0.0       0.0       0.0       0.0       0.0
11 O  dxy             0.0       0.0       0.2       0.0       0.0       0.0
12 O  dz2             0.2       0.0       0.0       0.0       0.0       0.0
13 O  dz2             0.0       0.2       0.0       0.0       0.0       0.0
14 O  pz              0.0       0.0       0.0       0.0       0.1       0.0
14 O  dz2             0.0       0.0       0.0       0.0       0.2       0.0
15 O  dz2             0.0       0.0       0.0       0.0       0.0       0.1
15 O  dyz             0.0       0.0       0.0       0.0       0.0       0.2
16 O  py              0.0       0.0       0.0       0.1       0.0       0.0
16 O  dx2y2           0.0       0.0       0.0       0.2       0.0       0.0

                     12        13        14        15        16        17   
                  -1.06360  -1.02310  -1.01271  -0.99494  -0.99244  -0.97854
                   2.00000   2.00000   2.00000   2.00000   2.00000   2.00000
                  --------  --------  --------  --------  --------  --------
 0 C  s               1.3       1.4       6.8       0.1       0.0       0.0
 0 C  pz              0.3       0.0       0.0       0.0       0.3       0.1
 0 C  px              0.6       0.0       0.0       0.0       0.1       0.0
 0 C  py              0.3       1.3       6.9       0.0       0.4       0.1
 0 C  dz2             0.0       0.0       0.2       0.0       0.0       0.0
 0 C  dx2y2           0.0       0.1       0.5       0.0       0.0       0.0
 1 C  s               4.3       0.2       0.2       0.1       3.1       0.6
 1 C  pz              0.1       0.1       0.5       0.1       0.5       0.1
 1 C  px              2.2       0.1       0.7       0.1       1.3       0.4
 1 C  py              1.6       0.6       0.1       1.0       0.3       1.8
 1 C  dxy             0.2       0.0       0.0       0.0       0.1       0.1
 2 H  s               0.2       0.0       0.0       0.0       0.3       0.0
 3 C  s               0.9       0.3       0.1       2.8       4.7       2.4
 3 C  pz              0.0       0.1       0.0       0.3       3.5       4.1
 3 C  px              0.1       0.5       0.0       0.7       0.0       0.0
 3 C  py              0.7       0.1       0.0       0.3       0.2       1.8
 3 C  dz2             0.0       0.0       0.0       0.0       0.1       0.2
 3 C  dyz             0.0       0.0       0.0       0.1       0.1       0.2
 4 H  s               0.1       0.0       0.0       0.2       0.3       0.2
 5 C  s               0.9       1.3       0.0       8.3       0.0       0.8
 5 C  pz              0.1       0.3       0.1       5.6       1.1       3.0
 5 C  px              0.0       0.3       0.0       0.7       0.6       0.1
 5 C  py              0.6       0.2       0.0       0.2       0.2       0.2
 5 C  dz2             0.0       0.0       0.0       0.5       0.0       0.1
 6 H  s               0.1       0.1       0.0       0.6       0.0       0.0
 7 C  s               2.8       6.9       0.3       0.1       0.4       0.0
 7 C  pz              0.3       5.5       0.9       2.0       0.1       0.0
 7 C  px              0.7       0.6       0.3       0.7       0.2       0.0
 7 C  py              0.6       1.1       0.5       0.4       0.1       0.0
 7 C  dz2             0.0       0.4       0.1       0.0       0.0       0.0
 7 C  dxz             0.0       0.2       0.0       0.0       0.0       0.0
 7 C  dyz             0.0       0.1       0.0       0.0       0.0       0.0
 8 H  s               0.2       0.5       0.0       0.0       0.0       0.0
 9 C  s              12.6       0.1       1.3       0.2       0.3       0.0
 9 C  pz              0.1       0.2       0.5       0.7       6.0       4.7
 9 C  px              3.4       1.1       0.3       0.2       1.1       0.6
 9 C  py              0.1       1.3       0.3       0.1       0.5       0.7
 9 C  dz2             0.1       0.0       0.1       0.0       0.2       0.2
 9 C  dxz             0.1       0.0       0.0       0.0       0.3       0.2
 9 C  dyz             0.1       0.0       0.0       0.0       0.1       0.1
 9 C  dx2y2           0.1       0.0       0.0       0.0       0.1       0.1
10 H  s               0.8       0.0       0.1       0.0       0.0       0.0
11 O  s              27.3       1.1       1.2       3.2      12.9      10.9
11 O  pz              1.5       0.1       0.1       0.1       0.2       0.1
11 O  px              0.3       0.0       0.3       0.0       0.2       0.0
11 O  py              0.2       0.0       0.0       0.0       0.5       0.2
11 O  dz2             0.0       0.1       0.0       0.0       0.3       0.1
11 O  dxz             0.2       0.0       0.5       0.0       0.1       0.1
11 O  dyz             0.0       0.0       0.0       0.0       0.1       0.1
11 O  dx2y2           0.2       0.0       0.0       0.0       0.0       0.0
12 O  s              17.2       1.3       6.1       0.2      19.9      15.8
12 O  pz              1.6       0.1       0.3       0.1       0.3       0.2
12 O  px              0.1       0.1       0.0       0.0       0.1       0.1
12 O  dz2             0.4       0.0       0.1       0.1       0.1       0.0
12 O  dyz             0.2       0.0       0.0       0.1       0.0       0.0
12 O  dx2y2           0.0       0.0       0.0       0.1       0.0       0.0
13 O  s               3.2      46.3       5.6       2.8       2.0       0.0
13 O  pz              0.1       0.6       0.0       0.0       0.0       0.0
13 O  py              0.1       1.3       0.1       0.1       0.1       0.0
14 O  s               0.8       1.1       0.1      44.3       1.3      10.5
14 O  pz              0.1       0.1       0.0       1.6       0.0       0.3
14 O  py              0.0       0.0       0.0       0.5       0.1       0.1
14 O  dz2             0.0       0.0       0.0       0.2       0.0       0.0
15 O  s               0.5       1.2       0.2       7.6      22.6      26.0
15 O  pz              0.0       0.0       0.0       0.2       0.4       0.3
15 O  px              0.0       0.0       0.0       0.1       0.2       0.2
15 O  py              0.0       0.0       0.0       0.2       0.6       0.6
15 O  dyz             0.0       0.0       0.0       0.0       0.1       0.0
16 O  s               2.7       8.2      48.4       0.3       1.1       0.3
16 O  pz              0.1       0.2       1.0       0.0       0.0       0.0
16 O  py              0.1       0.2       0.9       0.0       0.0       0.0
16 O  dx2y2           0.0       0.0       0.3       0.0       0.0       0.0
17 H  s               0.1       0.1       0.5       0.0       0.0       0.0
18 H  s               0.1       0.1       0.5       0.0       0.0       0.0
19 H  s               3.1       0.4       0.5       0.0       3.2       2.6
19 H  px              0.4       0.0       0.2       0.0       0.5       0.4
19 H  py              0.2       0.0       0.1       0.0       0.2       0.2
20 H  s               0.6       7.9       1.0       0.5       0.4       0.0
20 H  pz              0.0       0.4       0.1       0.0       0.0       0.0
20 H  px              0.0       0.6       0.1       0.0       0.0       0.0
20 H  py              0.0       0.7       0.1       0.1       0.0       0.0
21 H  s               0.3       0.2       0.0       7.4       0.4       1.3
21 H  py              0.0       0.0       0.0       1.6       0.0       0.4
22 H  s               0.1       0.4       0.1       1.2       3.5       4.4
22 H  pz              0.0       0.0       0.0       0.1       0.2       0.2
22 H  px              0.0       0.0       0.0       0.2       0.6       0.7
23 H  s               0.5       1.4       8.4       0.1       0.2       0.0
23 H  pz              0.1       0.2       1.4       0.0       0.0       0.0
23 H  px              0.0       0.0       0.1       0.0       0.0       0.0
23 H  py              0.0       0.1       0.4       0.0       0.0       0.0

                     18        19        20        21        22        23   
                  -0.75071  -0.74169  -0.66660  -0.63055  -0.61650  -0.55668
                   2.00000   2.00000   2.00000   2.00000   2.00000   2.00000
                  --------  --------  --------  --------  --------  --------
 0 C  s               8.6       0.2      14.9       0.0       6.1       0.0
 0 C  pz              1.2       0.1       0.2       0.2       3.4       2.4
 0 C  px              0.7       0.0       0.1       0.0       0.2       0.1
 0 C  py              2.8       0.0       1.0       0.2       0.1       0.1
 1 C  s              18.4       0.6       0.3       0.5       5.3       1.0
 1 C  pz              1.1       0.3       2.4       1.6       2.7       0.3
 1 C  px              0.8       0.3       3.3       0.1       0.0       0.8
 1 C  py              1.0       1.2       0.3       6.0       1.1       1.8
 1 C  dxy             0.1       0.1       0.0       0.1       0.0       0.0
 2 H  s               3.3       0.2       0.0       0.4       2.7       0.9
 2 H  pz              0.2       0.0       0.0       0.0       0.1       0.0
 2 H  px              0.1       0.0       0.0       0.0       0.1       0.0
 3 C  s               8.2       1.9       3.3       9.5       0.4       2.0
 3 C  pz              1.0       1.1       0.8       1.2       1.5       0.3
 3 C  px              0.7       1.7       1.1       1.2       3.4       1.0
 3 C  py              3.5       0.0       0.2       0.3       1.6       0.1
 3 C  dz2             0.1       0.0       0.0       0.0       0.0       0.0
 4 H  s               1.6       0.3       0.7       4.4       0.1       1.1
 4 H  px              0.1       0.0       0.0       0.2       0.0       0.0
 4 H  py              0.1       0.0       0.0       0.1       0.0       0.0
 5 C  s               1.6       9.5       4.9       0.1       5.8       3.6
 5 C  pz              0.9       3.5       0.5       0.0       0.0       2.3
 5 C  px              1.2       0.7       0.6       7.5       0.0       0.1
 5 C  py              0.0       0.7       1.2       0.7       2.2       1.8
 5 C  dz2             0.0       0.1       0.0       0.0       0.0       0.0
 6 H  s               0.2       1.6       1.5       0.1       3.0       2.3
 6 H  py              0.0       0.1       0.1       0.0       0.2       0.1
 7 C  s               0.0      15.8       1.2       5.4       1.0       1.5
 7 C  pz              0.0       1.7       0.0       0.8       0.0       2.2
 7 C  px              0.1       2.1       0.2       0.2       0.4       0.2
 7 C  py              1.0       0.1       4.5       2.7       4.5       0.5
 7 C  dz2             0.0       0.1       0.0       0.0       0.0       0.0
 8 H  s               0.0       2.7       0.5       2.0       0.7       0.1
 8 H  px              0.0       0.2       0.0       0.1       0.0       0.0
 9 C  s               2.8       5.4       4.9       4.7       0.7       0.9
 9 C  pz              1.6       0.0       0.0       1.5       1.4       3.0
 9 C  px              0.4       2.1       1.7       0.1       3.7       1.1
 9 C  py              0.2       3.1       0.2       1.9       0.8       1.2
 9 C  dxz             0.1       0.0       0.0       0.0       0.0       0.0
10 H  s               0.8       1.0       1.6       2.7       0.2       0.6
10 H  px              0.1       0.0       0.0       0.1       0.0       0.0
11 O  s               1.7       1.4       1.0       0.4       1.0       0.1
11 O  pz              0.1       0.2       0.3       0.4       0.1       0.0
11 O  px              7.2       2.9       1.4      10.0       2.5       2.7
11 O  py              2.5       0.0       0.2       1.6       2.5       0.0
11 O  dz2             0.1       0.1       0.0       0.0       0.4       0.0
11 O  dxz             0.5       0.5       0.0       0.2       0.1       0.1
11 O  dyz             0.3       0.1       0.0       0.0       0.0       0.0
11 O  dx2y2           0.1       0.1       0.7       0.0       0.0       0.3
11 O  dxy             0.8       0.2       0.0       0.1       0.2       0.3
12 O  s               0.7       1.4       1.0       0.7       0.0       0.0
12 O  pz              0.5       1.2       1.6       2.4       0.4       5.4
12 O  px              0.1       1.0       1.4       0.5       2.6       6.0
12 O  py              0.1       0.9       1.5       0.1       1.6       1.7
12 O  dz2             0.3       0.1       0.2       0.7       0.0       0.2
12 O  dxz             0.0       0.2       0.2       0.0       0.2       0.0
12 O  dyz             0.0       0.5       0.1       0.0       0.0       0.1
12 O  dx2y2           0.0       0.1       0.0       0.0       0.1       0.0
13 O  s               0.0       4.1       0.3       0.3       0.2       0.1
13 O  pz              0.0       5.5       0.2       5.8       0.1       9.3
13 O  px              0.0       1.8       0.0       1.7       0.0       3.5
13 O  py              0.0       0.1       0.3       0.8       0.6       0.2
13 O  dz2             0.0       0.8       0.0       0.6       0.0       0.1
13 O  dxz             0.0       0.5       0.0       0.0       0.0       0.0
13 O  dyz             0.0       0.4       0.3       0.1       0.3       0.2
13 O  dxy             0.0       0.1       0.1       0.0       0.1       0.2
14 O  s               1.0       4.0       0.5       0.1       0.5       0.3
14 O  pz              0.4       2.5       1.7       0.0       3.0       6.9
14 O  px              0.0       0.1       0.0       0.5       0.0       0.3
14 O  py              0.1       0.5       1.3       0.1       2.7       7.1
14 O  dz2             0.2       1.0       0.5       0.0       0.4       0.3
14 O  dxz             0.0       0.2       0.0       0.6       0.0       0.1
14 O  dyz             0.0       0.0       0.2       0.0       0.2       0.1
15 O  s               3.0       1.0       1.3       0.9       0.0       0.2
15 O  pz              1.5       0.6       1.8       5.1       0.1       3.2
15 O  px              0.6       0.0       0.1       2.1       1.0       1.8
15 O  py              0.4       0.0       0.1       0.1       0.3       0.2
15 O  dz2             0.1       0.2       0.3       0.6       0.1       0.0
15 O  dxz             0.0       0.1       0.0       0.1       0.2       0.0
15 O  dyz             0.5       0.1       0.2       0.3       0.1       0.1
15 O  dx2y2           0.1       0.0       0.0       0.0       0.2       0.0
15 O  dxy             0.1       0.0       0.0       0.1       0.2       0.0
16 O  s               2.0       0.2       1.8       0.1       0.6       0.1
16 O  pz              0.2       0.0       1.0       0.0       2.9       1.8
16 O  px              0.1       0.0       0.0       0.1       0.2       0.4
16 O  py              2.4       0.1       8.6       0.1       7.8       0.2
16 O  dz2             0.2       0.0       0.5       0.0       0.5       0.1
16 O  dyz             0.1       0.0       0.0       0.0       0.0       0.1
16 O  dx2y2           0.5       0.0       1.3       0.0       0.2       0.1
17 H  s               1.6       0.0       4.2       0.0       3.1       0.5
17 H  pz              0.1       0.0       0.3       0.0       0.2       0.0
18 H  s               1.5       0.0       4.2       0.0       1.9       0.0
18 H  px              0.1       0.0       0.3       0.0       0.1       0.0
19 H  s               0.2       0.9       1.2       0.5       1.0       2.7
19 H  px              0.0       0.1       0.2       0.1       0.1       0.1
20 H  s               0.0       2.4       0.0       2.0       0.0       2.9
20 H  px              0.0       0.1       0.0       0.1       0.0       0.1
20 H  py              0.0       0.3       0.0       0.1       0.0       0.2
21 H  s               0.2       1.2       0.7       0.0       1.4       3.2
21 H  py              0.1       0.3       0.1       0.0       0.2       0.3
22 H  s               1.0       0.3       0.6       1.8       0.2       1.1
22 H  px              0.2       0.0       0.1       0.2       0.0       0.1
23 H  s               0.8       0.1       2.0       0.0       2.7       0.4
23 H  pz              0.2       0.0       0.3       0.0       0.3       0.0

                     24        25        26        27        28        29   
                  -0.52488  -0.51827  -0.49550  -0.48581  -0.46729  -0.45408
                   2.00000   2.00000   2.00000   2.00000   2.00000   2.00000
                  --------  --------  --------  --------  --------  --------
 0 C  s               0.2       0.0       0.1       1.0       0.4       0.3
 0 C  pz              3.9       1.8       0.0       1.1       0.2       0.5
 0 C  px              1.5       0.1       0.9       1.5      17.3       0.1
 0 C  py              2.0       3.1       0.3       6.0       0.0       1.7
 0 C  dyz             0.0       0.0       0.0       0.1       0.0       0.1
 0 C  dx2y2           0.0       0.1       0.0       0.2       0.0       0.1
 1 C  s               0.6       0.9       0.4       0.9       0.3       1.0
 1 C  pz              0.5       2.5       0.2       4.1       8.0       1.8
 1 C  px              8.3       0.4       0.0       0.7       0.2       2.2
 1 C  py              0.1       1.6       1.5       0.5       0.3       3.6
 1 C  dxz             0.0       0.0       0.0       0.0       0.0       0.1
 1 C  dyz             0.0       0.0       0.0       0.0       0.0       0.1
 1 C  dxy             0.0       0.1       0.0       0.0       0.0       0.1
 2 H  s               2.2       0.0       0.1       1.4       1.3       3.5
 2 H  pz              0.1       0.0       0.0       0.0       0.0       0.1
 3 C  s               0.1       0.3       0.2       0.0       0.0       0.2
 3 C  pz              0.2       1.0       0.0       0.2       0.8       8.1
 3 C  px              2.8       0.8       0.4       0.2       2.8       0.5
 3 C  py              1.4       7.6       2.7       1.9       0.1       1.9
 4 H  s               0.4       1.0       0.2       0.4       0.8       1.9
 5 C  s               0.0       0.0       0.1       0.0       0.5       0.4
 5 C  pz              1.5       1.1       2.1       0.4       2.2       0.2
 5 C  px              1.4       0.6       0.0       1.1       0.0      10.5
 5 C  py              3.4       0.7       1.3       1.0       0.0       0.9
 5 C  dz2             0.0       0.0       0.0       0.1       0.0       0.0
 6 H  s               0.9       0.2       0.3       0.0       0.2       0.5
 7 C  s               0.3       1.1       1.0       0.4       0.1       0.1
 7 C  pz              1.1       3.9       2.1       6.0       0.1       3.7
 7 C  px              4.5       5.9       0.2       0.2       3.8       1.2
 7 C  py              0.9       1.1       4.2       0.5       0.2       5.7
[...]
13 O  dyz             0.0       2.0       8.6       0.3       0.3       0.6
13 O  dx2y2           0.0       0.1       0.4       0.0       0.0       0.0
13 O  dxy             0.1       3.0      12.0       0.2       1.0       0.6
14 O  s               0.0       0.2       0.1       0.0       0.0       9.2
14 O  pz              0.0       0.2       0.1       0.0       0.0       2.5
14 O  py              0.0       0.7       0.2       0.0       0.2      16.4
14 O  dz2             0.1       0.6       0.2       0.0       0.1      11.6
14 O  dyz             0.0       0.0       0.0       0.0       0.0       0.8
14 O  dx2y2           0.0       1.0       0.4       0.0       0.2      20.7
14 O  dxy             0.0       0.0       0.0       0.0       0.0       0.2
15 O  s               1.2       0.3       0.2       0.0       7.5       0.0
15 O  pz              0.2       0.0       0.4       0.0       7.2       0.0
15 O  px              0.0       0.1       0.6       0.0      11.0       0.0
15 O  py              0.2       0.0       0.0       0.0       0.7       0.0
15 O  dz2             0.1       0.0       0.2       0.0       4.3       0.0
15 O  dxz             0.4       0.1       0.3       0.0       8.7       0.0
15 O  dyz             0.1       0.0       0.4       0.0       5.0       0.0
15 O  dx2y2           0.0       0.1       0.5       0.0       8.0       0.0
15 O  dxy             0.0       0.1       0.5       0.0       9.3       0.0
16 O  s               2.4       4.6       1.4       0.2       0.0       0.2
16 O  pz              0.4       8.3       2.4       0.2       0.0       0.2
16 O  px              0.1       0.5       0.2       0.1       0.0       0.0
16 O  py              1.1       5.4       1.8       0.5       0.0       0.0
16 O  dz2             0.0      16.4       4.8       0.4       0.0       0.3
16 O  dxz             0.1       3.5       1.0       0.2       0.0       0.0
16 O  dyz             0.2       8.0       2.3       0.2       0.0       0.1
16 O  dx2y2           1.9       0.5       0.2       0.3       0.0       0.0
16 O  dxy             0.2       0.9       0.2       0.0       0.0       0.0
17 H  s               0.0       0.1       0.0       0.0       0.0       0.0
17 H  pz              0.0       0.2       0.0       0.0       0.0       0.0
18 H  s               0.2       0.0       0.0       0.0       0.0       0.0
18 H  px              0.2       0.0       0.0       0.0       0.0       0.0
19 H  s               0.4       0.5       0.0      10.9       0.0       0.0
19 H  px              1.0       0.2       0.1      11.1       0.0       0.1
19 H  py              0.2       0.2       0.0       3.3       0.0       0.0
20 H  s               0.0       2.4       9.9       0.2       0.7       0.5
20 H  pz              0.0       0.5       2.1       0.0       0.1       0.1
20 H  px              0.0       0.9       3.8       0.1       0.2       0.2
20 H  py              0.0       1.3       5.3       0.2       0.3       0.3
21 H  s               0.0       0.5       0.2       0.0       0.1      11.7
21 H  pz              0.0       0.0       0.0       0.0       0.0       0.2
21 H  py              0.0       0.6       0.3       0.0       0.2      15.1
22 H  s               0.1       0.1       0.6       0.0      12.2       0.0
22 H  pz              0.1       0.0       0.1       0.0       2.4       0.0
22 H  px              0.1       0.1       0.3       0.0      10.8       0.0
22 H  py              0.0       0.0       0.1       0.0       1.9       0.0
23 H  s               0.2       9.7       2.8       0.3       0.0       0.2
23 H  pz              0.3       9.4       2.7       0.3       0.0       0.1
23 H  px              0.0       0.8       0.2       0.0       0.0       0.0
23 H  py              0.0       1.4       0.4       0.1       0.0       0.0

                    306       307       308       309       310       311   
                  22.13518  22.28914  22.29107  22.34167  22.34655  22.40371
                   0.00000   0.00000   0.00000   0.00000   0.00000   0.00000
                  --------  --------  --------  --------  --------  --------
 0 C  s              76.9       6.8       2.2       4.0       9.5       0.1
 1 C  s               6.4       6.0       3.7       8.4      62.6      12.5
 3 C  s               1.7      14.4      20.9      21.9       0.6      40.1
 5 C  s               4.4      31.1       1.4      47.8       8.5       6.5
 7 C  s               4.2       2.0      70.0      12.5       1.1       9.8
 9 C  s               6.0      39.3       1.4       4.8      17.3      30.7

                    312       313       314       315       316       317   
                  43.69510  43.82174  43.83432  43.89723  43.93555  44.02316
                   0.00000   0.00000   0.00000   0.00000   0.00000   0.00000
                  --------  --------  --------  --------  --------  --------
 7 C  s               0.0       0.0       0.2       0.0       0.0       0.0
 9 C  s               0.0       0.0       0.0       0.0       0.0       0.1
11 O  s               7.7      21.3       6.4       0.2       3.7      60.7
12 O  s               0.9      37.6       1.6       6.5      27.0      26.2
13 O  s               0.0       6.3      89.0       1.3       1.4       1.7
14 O  s               0.1      29.4       1.3      31.4      33.7       3.9
15 O  s               0.0       4.2       1.2      60.2      34.1       0.0
16 O  s              91.2       1.0       0.2       0.0       0.1       7.3



                      *****************************
                      * MAYER POPULATION ANALYSIS *
                      *****************************

  NA   - Mulliken gross atomic population
  ZA   - Total nuclear charge
  QA   - Mulliken gross atomic charge
  VA   - Mayer's total valence
  BVA  - Mayer's bonded valence
  FA   - Mayer's free valence

  ATOM       NA         ZA         QA         VA         BVA        FA
  0 C      6.2237     6.0000    -0.2237     3.7799     3.7799    -0.0000
  1 C      5.9883     6.0000     0.0117     3.4955     3.4955    -0.0000
  2 H      0.8329     1.0000     0.1671     0.9448     0.9448     0.0000
  3 C      6.1333     6.0000    -0.1333     3.6929     3.6929     0.0000
  4 H      0.8341     1.0000     0.1659     0.9528     0.9528     0.0000
  5 C      6.0038     6.0000    -0.0038     3.6492     3.6492    -0.0000
  6 H      0.8307     1.0000     0.1693     0.9552     0.9552    -0.0000
  7 C      6.0698     6.0000    -0.0698     3.7712     3.7712    -0.0000
  8 H      0.8391     1.0000     0.1609     0.9493     0.9493    -0.0000
  9 C      6.0541     6.0000    -0.0541     3.8139     3.8139     0.0000
 10 H      0.8676     1.0000     0.1324     0.9516     0.9516    -0.0000
 11 O      8.1999     8.0000    -0.1999     1.7522     1.7522    -0.0000
 12 O      8.4283     8.0000    -0.4283     1.7350     1.7350     0.0000
 13 O      8.4013     8.0000    -0.4013     1.8610     1.8610     0.0000
 14 O      8.4131     8.0000    -0.4131     1.8009     1.8009    -0.0000
 15 O      8.4015     8.0000    -0.4015     1.8123     1.8123     0.0000
 16 O      8.4380     8.0000    -0.4380     1.8624     1.8624    -0.0000
 17 H      0.8155     1.0000     0.1845     0.9417     0.9417    -0.0000
 18 H      0.8555     1.0000     0.1445     0.9514     0.9514    -0.0000
 19 H      0.6477     1.0000     0.3523     0.8995     0.8995     0.0000
 20 H      0.7031     1.0000     0.2969     0.9158     0.9158    -0.0000
 21 H      0.6648     1.0000     0.3352     0.8992     0.8992    -0.0000
 22 H      0.6668     1.0000     0.3332     0.9020     0.9020    -0.0000
 23 H      0.6870     1.0000     0.3130     0.9103     0.9103     0.0000

  Mayer bond orders larger than 0.100000
B(  0-C ,  1-C ) :   0.8641 B(  0-C , 16-O ) :   0.9445 B(  0-C , 17-H ) :   0.9674 
B(  0-C , 18-H ) :   0.9611 B(  1-C ,  2-H ) :   0.9377 B(  1-C ,  3-C ) :   0.9016 
B(  1-C , 11-O ) :   0.9597 B(  3-C ,  4-H ) :   0.9792 B(  3-C ,  5-C ) :   0.8514 
B(  3-C , 15-O ) :   0.9750 B(  5-C ,  6-H ) :   0.9744 B(  5-C ,  7-C ) :   0.8940 
B(  5-C , 14-O ) :   0.9934 B(  7-C ,  8-H ) :   0.9622 B(  7-C ,  9-C ) :   0.9310 
B(  7-C , 13-O ) :   0.9378 B(  9-C , 10-H ) :   0.9601 B(  9-C , 11-O ) :   0.9785 
B(  9-C , 12-O ) :   0.9131 B( 12-O , 19-H ) :   0.8125 B( 13-O , 20-H ) :   0.8954 
B( 14-O , 21-H ) :   0.8214 B( 15-O , 22-H ) :   0.8366 B( 16-O , 23-H ) :   0.8848 


-------
TIMINGS
-------

Total SCF time: 0 days 0 hours 0 min 38 sec 

Total time                  ....      38.518 sec
Sum of individual times     ....      38.478 sec  ( 99.9%)

SCF preparation             ....       0.078 sec  (  0.2%)
Fock matrix formation       ....      37.699 sec  ( 97.9%)
  Startup                   ....       0.037 sec  (  0.1% of F)
  Split-RI-J                ....       8.844 sec  ( 23.5% of F)
  XC integration            ....      28.647 sec  ( 76.0% of F)
    XC Preparation          ....       0.000 sec  (  0.0% of XC)
    Basis function eval.    ....       4.173 sec  ( 14.6% of XC)
    Density eval.           ....      10.910 sec  ( 38.1% of XC)
    XC-Functional eval.     ....       1.873 sec  (  6.5% of XC)
    XC-Potential eval.      ....      11.128 sec  ( 38.8% of XC)
Diagonalization             ....       0.000 sec  (  0.0%)
Density matrix formation    ....       0.057 sec  (  0.1%)
Total Energy calculation    ....       0.005 sec  (  0.0%)
Population analysis         ....       0.136 sec  (  0.4%)
Orbital Transformation      ....       0.043 sec  (  0.1%)
Orbital Orthonormalization  ....       0.000 sec  (  0.0%)
DIIS solution               ....       0.419 sec  (  1.1%)
  MO trafo                  ....       0.000 sec  (  0.0 % of DIIS)
  Orb grad                  ....       0.000 sec  (  0.0 % of DIIS)
  Energy W gradient         ....       0.000 sec  (  0.0 % of DIIS)
  DIIS error                ....       0.045 sec  ( 10.7 % of DIIS)
  DIIS work                 ....       0.349 sec  ( 83.4 % of DIIS)
  Form Q                    ....       0.000 sec  (  0.0 % of DIIS)
  Form QpQm                 ....       0.000 sec  (  0.0 % of DIIS)
  Exp/Cayley                ....       0.000 sec  (  0.0 % of DIIS)
  Orb update                ....       0.000 sec  (  0.0 % of DIIS)
  Wake-sleep                ....       0.003 sec  (  0.7 % of DIIS)
SOSCF solution              ....       0.041 sec  (  0.1%)
  MO trafo                  ....       0.032 sec  ( 77.2 % of SOSCF)
  Orb grad                  ....       0.000 sec  (  0.4 % of SOSCF)
  Rot update                ....       0.000 sec  (  0.1 % of SOSCF)
  Step                      ....       0.009 sec  ( 22.0 % of SOSCF)
Finished LeanSCF after  38.5 sec

Maximum memory used throughout the entire LEANSCF-calculation: 40.8 MB


-------------------------------------------------------------------------------
                          DFT DISPERSION CORRECTION                            
                                                                               
                                DFTD4 V3.4.0                                   
-------------------------------------------------------------------------------
The R2SCAN3C composite method is recognized
Using three-body term ABC
Active option DFTDOPT                   ...         5   

-------------------------   ----------------
Dispersion correction           -0.008833408
-------------------------   ----------------

------------------   -----------------
gCP correction             0.022413284
------------------   -----------------

-------------------------   --------------------
FINAL SINGLE POINT ENERGY      -687.073341112083
-------------------------   --------------------


------------------------------------------------------------------------------
                              ORCA PROPERTY CALCULATIONS
------------------------------------------------------------------------------

GBWName                                 ... sp.gbw
Number of atoms                         ...     24
Number of basis functions               ...    318
Max core memory                         ...   1024 MB

Electric properties:
Dipole moment                           ... YES
Quadrupole moment                       ...  NO
Static polarizability (Dipole/Dipole)   ...  NO
Static polarizability (Dipole/Quad.)    ...  NO
Static polarizability (Quad./Quad.)     ...  NO
Static polarizability (Velocity)        ...  NO

Atomic electric properties:
Dipole moment                           ...  NO
Quadrupole moment                       ...  NO
Static polarizability                   ...  NO

Choice of electric origin               ... Center of mass
Position of electric origin             ...    -0.000004     0.000003    -0.000001

General magnetic properties:
Magnetizability                         ...  NO

EPR properties:
g-Tensor (aka g-matrix)                 ...  NO
Zero-Field splitting spin-orbit         ...  NO
Zero-field splitting spin-spin          ...  NO
Hyperfine couplings                     ...  NO (   0 nuclei)
Quadrupole couplings                    ...  NO (   0 nuclei)
Contact density                         ...  NO (   0 nuclei)

NMR properties:
Chemical shifts                         ...  NO (   0 nuclei)
Spin-rotation constants                 ...  NO (   0 nuclei)
Spin-spin couplings                     ...  NO (   0 nuclei,    0 pairs)

Choice of magnetic origin               ... GIAO
Position of magnetic origin             ...     0.000000     0.000000     0.000000

Properties with geometric perturbations:
SCF Hessian                             ...  NO
IR spectrum                             ...  NO
VCD spectrum                            ...  NO
X-ray spectroscopy properties:
SCF XES/XAS/RIXS spectra                ...  NO


-------------
DIPOLE MOMENT
-------------

Method             : SCF
Type of density    : Electron Density
Multiplicity       :   1
Irrep              :   0
Energy             :  -687.0869209879838309 Eh
Relativity type    : 
Basis              : AO
                                X                 Y                 Z
Electronic contribution:      1.576783609      -0.480824320       1.135699650
Nuclear contribution   :     -1.478779675      -0.528940640      -0.562509264
                        -----------------------------------------
Total Dipole Moment    :      0.098003933      -1.009764960       0.573190386
                        -----------------------------------------
Magnitude (a.u.)       :      1.165236999
Magnitude (Debye)      :      2.961797073



--------------------
Rotational spectrum 
--------------------
 
Rotational constants in cm-1:             0.042949             0.029432             0.026259 
Rotational constants in MHz :          1287.579476           882.350964           787.220276 

Dipole components along the rotational axes: 
x,y,z [a.u.] :    -0.429210     0.454922     0.983159 
x,y,z [Debye]:    -1.090966     1.156320     2.498992 

 

Dipole moment calculation done in   0.0 sec 

Maximum memory used throughout the entire PROP-calculation: 26.6 MB

--------------------------------
SUGGESTED CITATIONS FOR THIS RUN
--------------------------------

Below you find a list of papers that are relevant to this ORCA run
We neither can nor want to force you to cite these papers, but we appreciate if you do
You receive ORCA, which is the product of decades of hard work by many enthusiastic individuals, for free
The only thing we kindly ask in return is that you cite our papers,
We deeply appreciate it, if you show your appreciation for ORCA by not just citing the generic ORCA reference.

Please note that relegating all ORCA citations to the supporting information does *not* help us.
SI sections are not indexed - citations you put there will not count into any citation statistics
But we need these citations in order to attract the funding resources that allow us to do what we are doing

Therefore, if you are a happy ORCA user, please consider citing a few of the papers listed below in the main body of your paper

In addition to the list printed below, the program has created the file sp.bibtex that contains the list in bibtex format
You can import this file easily into all common literature databanks and citation aid programs


List of essential papers. We consider these as the minimum necessary citations

  1. Neese,F.
     Software update: the ORCA program system, version 5.0
     WIRES Comput. Molec. Sci., 2022 12(1)e1606
     doi.org/10.1002/wcms.1606
  2. Grimme,S.; Hansen,A.; Ehlert,S.; Mewes,J.
     r2SCAN-3c: A 'Swiss army knife' composite electronic-structure method
     J. Chem. Phys., 2021 154 064103
     doi.org/10.1063/5.0040021

List of papers to cite with high priority. The work reported in these papers was absolutely
necessary for this run to complete.
Our perspective: the developers of density functionals and basis sets usually get cited in chemistry papers
Good! But without the algorithms to do something with them, the functionals or basis sets would not do anything.
Hence, in our opinion, the algorithm design and method developments papers are equally worthy of getting cited

  1. Neese,F.
     An improvement of the resolution of the identity approximation for the formation of the Coulomb matrix
     J. Comp. Chem., 2003 24(14)1740-1747
     doi.org/10.1002/jcc.10318
  2. Neese,F.
     The SHARK Integral Generation and Digestion System
     J. Comp. Chem., 2022  1-16
     doi.org/10.1002/jcc.26942
  3. Lehtola,S.; Steigemann,C.; Oliveira,M.; Marques,M.
     Recent developments in Libxc - A comprehensive library of functionals for density functional theory
     Software X, 2018 7 
     doi.org/10.1016/j.softx.2017.11.002
  4. Caldeweyher,E.; Bannwarth,C.; Grimme,S.
     Extension of the D3 dispersion coefficient model
     J. Chem. Phys., 2017 147 034112
     doi.org/10.1063/1.4993215
  5. Caldeweyher,E.; Ehlert,S.; Hansen,A.; Neugebauer,H.; Spicher,S.; Bannwarth,C.; Grimme,S.
     A generally applicable atomic-charge dependent London dispersion correction
     J. Chem. Phys., 2019 150 154122
     doi.org/10.1063/1.5090222
  6. Caldeweyher,E.; Mewes,J.; Ehlert,S.; Grimme,S.
     Extension and evaluation of the D4 London-dispersion model for periodic systems
     Phys. Chem. Chem. Phys., 2020 22(16)8499-8512
     doi.org/10.1039/D0CP00502A
  7. Wittmann,L.; Gordiy,I.; Friede,M.; Helmich-Paris,B.; Grimme,S.; Hansen,A.; Bursch,M.
     Extension of the D3 and D4 London Dispersion Corrections to the full Actinides Series
     Phys. Chem. Chem. Phys., 2024 26(32)21379-21394
     doi.org/https://doi.org/10.1039/D4CP01514B 

List of suggested additional citations. These are papers that are important in the 'surrounding' of 
of this run, or papers that preceded the highly important papers. If you like your results we are grateful for a citation.

  1. Neese,F.
     The ORCA program system
     WIRES Comput. Molec. Sci., 2012 2(1)73-78
     doi.org/10.1002/wcms.81
  2. Neese,F.
     Software update: the ORCA program system, version 4.0
     WIRES Comput. Molec. Sci., 2018 8(1)1-6
     doi.org/10.1002/wcms.1327
  3. Neese,F.; Wennmohs,F.; Becker,U.; Riplinger,C.
     The ORCA quantum chemistry program package
     J. Chem. Phys., 2020 152 Art. No. L224108
     doi.org/10.1063/5.0004608

List of optional additional citations

  1. Neese,F.
     Approximate second-order SCF convergence for spin unrestricted wavefunctions
     Chem. Phys. Lett., 2000 325(1-3)93-98
     doi.org/10.1016/s0009-2614(00)00662-x

Timings for individual modules:

Sum of individual times          ...       40.297 sec (=   0.672 min)
Startup calculation              ...        1.477 sec (=   0.025 min)   3.7 %
SCF iterations                   ...       38.736 sec (=   0.646 min)  96.1 %
Property calculations            ...        0.084 sec (=   0.001 min)   0.2 %
                             ****ORCA TERMINATED NORMALLY****
TOTAL RUN TIME: 0 days 0 hours 0 minutes 41 seconds 244 msec
