
                                 *****************
                                 * O   R   C   A *
                                 *****************

                                            #,                                       
                                            ###                                      
                                            ####                                     
                                            #####                                    
                                            ######                                   
                                           ########,                                 
                                     ,,################,,,,,                         
                               ,,#################################,,                 
                          ,,##########################################,,             
                       ,#########################################, ''#####,          
                    ,#############################################,,   '####,        
                  ,##################################################,,,,####,       
                ,###########''''           ''''###############################       
              ,#####''   ,,,,##########,,,,          '''####'''          '####       
            ,##' ,,,,###########################,,,                        '##       
           ' ,,###''''                  '''############,,,                           
         ,,##''                                '''############,,,,        ,,,,,,###''
      ,#''                                            '''#######################'''  
     '                                                          ''''####''''         
             ,#######,   #######,   ,#######,      ##                                
            ,#'     '#,  ##    ##  ,#'     '#,    #''#        ,####,   ,####,        
            ##       ##  ##   ,#'  ##            #'  '#       #'       #'  '#        
            ##       ##  #######   ##           ,######,      #####,   #    #        
            '#,     ,#'  ##    ##  '#,     ,#' ,#      #,     #,   #   #,  ,#        
             '#######'   ##     ##  '#######'  #'      '#     '####' # '####'        



                #########################################################
                #                        -***-                          #
                #          Department of theory and spectroscopy        #
                #                                                       #
                #                      Frank Neese                      #
                #                                                       #
                #     Directorship, Architecture, Infrastructure        #
                #                    SHARK, DRIVERS                     #
                #        Core code/Algorithms in most modules           #
                #                                                       #
                #        Max Planck Institute fuer Kohlenforschung      #
                #                Kaiser Wilhelm Platz 1                 #
                #                 D-45470 Muelheim/Ruhr                 #
                #                      Germany                          #
                #                                                       #
                #                  All rights reserved                  #
                #                        -***-                          #
                #########################################################


                         Program Version 6.0.0  -   RELEASE  -


 With contributions from (in alphabetic order):
   Daniel Aravena         : Magnetic Suceptibility
   Michael Atanasov       : Ab Initio Ligand Field Theory (pilot matlab implementation)
   Alexander A. Auer      : GIAO ZORA, VPT2 properties, NMR spectrum
   Ute Becker             : All parallelization in ORCA, NUMFREQ, NUMCALC
   Giovanni Bistoni       : ED, misc. LED, open-shell LED, HFLD
   Martin Brehm           : Molecular dynamics
   Dmytro Bykov           : pre 5.0 version of the SCF Hessian
   Marcos Casanova-Páez   : Triplet and SCS-CIS(D). UHF-(DLPNO)-IP/EA/STEOM-CCSD. UHF-CVS-IP/STEOM-CCSD
   Vijay G. Chilkuri      : MRCI spin determinant printing, contributions to CSF-ICE
   Pauline Colinet        : FMM embedding
   Dipayan Datta          : RHF DLPNO-CCSD density
   Achintya Kumar Dutta   : EOM-CC, STEOM-CC
   Nicolas Foglia         : Exact transition moments, OPA infrastructure, MCD improvements
   Dmitry Ganyushin       : Spin-Orbit,Spin-Spin,Magnetic field MRCI
   Miquel Garcia          : C-PCM and meta-GGA Hessian, CCSD/C-PCM, Gaussian charge scheme
   Tiago L. C. Gouveia    : GS-ROHF, GS-ROCIS
   Yang Guo               : DLPNO-NEVPT2, F12-NEVPT2, CIM, IAO-localization
   Andreas Hansen         : Spin unrestricted coupled pair/coupled cluster methods
   Ingolf Harden          : AUTO-CI MPn and infrastructure 
   Benjamin Helmich-Paris : MC-RPA, TRAH-(SCF,CASSCF), AVAS, COSX integrals, SCF dyn. polar.
   Lee Huntington         : MR-EOM, pCC
   Robert Izsak           : Overlap fitted RIJCOSX, COSX-SCS-MP3, EOM
   Riya Kayal             : Wick's Theorem for AUTO-CI, AUTO-CI UHF-CCSDT
   Emily Kempfer          : AUTO-CI, RHF CISDT and CCSDT
   Christian Kollmar      : KDIIS, OOCD, Brueckner-CCSD(T), CCSD density, CASPT2, CASPT2-K, improved NEVPT2
   Axel Koslowski         : Symmetry handling
   Simone Kossmann        : Meta GGA functionals, TD-DFT gradient, OOMP2, (MP2 Hessian; deprecated post 5.0)
   Lucas Lang             : DCDCAS
   Marvin Lechner         : AUTO-CI (C++ implementation), FIC-MRCC
   Spencer Leger          : CASSCF response
   Dagmar Lenk            : GEPOL surface, SMD, ORCA-2-JSON
   Dimitrios Liakos       : Extrapolation schemes; Compound Job, initial MDCI parallelization
   Dimitrios Manganas     : Further ROCIS development; embedding schemes. LFT, Crystal Embedding
   Dimitrios Pantazis     : SARC Basis sets
   Anastasios Papadopoulos: AUTO-CI, single reference methods and gradients
   Taras Petrenko         : pre 6.0 DFT Hessian and TD-DFT gradient, (ASA, deprecated), ECA, 1-Electron XAS/XES, NRVS
   Peter Pinski           : DLPNO-MP2, DLPNO-MP2 Gradient
   Christoph Reimann      : Effective Core Potentials
   Marius Retegan         : Local ZFS, SOC
   Christoph Riplinger    : Optimizer, TS searches, QM/MM, DLPNO-CCSD(T), (RO)-DLPNO pert. Triples
   Michael Roemelt        : Original ROCIS implementation
   Masaaki Saitow         : Open-shell DLPNO-CCSD energy and density
   Barbara Sandhoefer     : DKH picture change effects
   Kantharuban Sivalingam : CASSCF convergence/infrastructure, NEVPT2 and variants, FIC-MRCI
   Bernardo de Souza      : ESD, SOC TD-DFT
   Georgi Stoychev        : AutoAux, RI-MP2 NMR, DLPNO-MP2 response, X2C
   Van Anh Tran           : RI-MP2 g-tensors
   Willem Van den Heuvel  : Paramagnetic NMR
   Zikuan Wang            : NOTCH, Electric field optimization 
   Frank Wennmohs         : Technical directorship and infrastructure
   Hang Xu                : AUTO-CI-Response properties 


 We gratefully acknowledge several colleagues who have allowed us to
 interface, adapt or use parts of their codes:
   Stefan Grimme, W. Hujo, H. Kruse, P. Pracht,  : VdW corrections, initial TS optimization,
                  C. Bannwarth, S. Ehlert,         DFT functionals, gCP, sTDA/sTD-DF
                  L. Wittmann, M. Mueller
   Ed Valeev, F. Pavosevic, A. Kumar             : LibInt (2-el integral package), F12 methods
   Garnet Chan, S. Sharma, J. Yang, R. Olivares  : DMRG
   Ulf Ekstrom                                   : XCFun DFT Library
   Mihaly Kallay                                 : mrcc  (arbitrary order and MRCC methods)
   Frank Weinhold                                : gennbo (NPA and NBO analysis)
   Simon Mueller                                 : openCOSMO-RS
   Christopher J. Cramer and Donald G. Truhlar   : smd solvation model
   Lars Goerigk                                  : TD-DFT with DH, B97 family of functionals
   V. Asgeirsson, H. Jonsson                     : NEB implementation
   FAccTs GmbH                                   : IRC, NEB, NEB-TS, DLPNO-Multilevel, CI-OPT
                                                   MM, QMMM, 2- and 3-layer-ONIOM, Crystal-QMMM,
                                                   LR-CPCM, SF, NACMEs, symmetry and pop. for TD-DFT,
                                                   nearIR, NL-DFT gradient (VV10), updates on ESD,
                                                   ML-optimized integration grids, MBIS, APM,
                                                   GOAT, DOCKER, SOLVATOR, interface openCOSMO-RS
   S Lehtola, MJT Oliveira, MAL Marques          : LibXC Library
   Liviu Ungur et al                             : ANISO software


 Your calculation uses the libint2 library for the computation of 2-el integrals
 For citations please refer to: http://libint.valeyev.net

 Your ORCA version has been built with support for libXC version: 6.2.2
 For citations please refer to: https://libxc.gitlab.io

 This ORCA versions uses:
   CBLAS   interface :  Fast vector & matrix operations
   LAPACKE interface :  Fast linear algebra routines
   SCALAPACK package :  Parallel linear algebra routines
   Shared memory     :  Shared parallel matrices
   BLAS/LAPACK       :  OpenBLAS 0.3.27  USE64BITINT DYNAMIC_ARCH NO_AFFINITY SkylakeX SINGLE_THREADED
        Core in use  :  SkylakeX
   Copyright (c) 2011-2014, The OpenBLAS Project




***************************************
The coordinates will be read from file: vacuum_censo.xyz
***************************************


Your calculation utilizes the geometrical counterpoise correction gCP
Please cite in your paper:
H.Kruse, S. Grimme J.Chem.Phys., 136, (2012), 154101 
   

Your calculation utilizes the atom-pairwise dispersion correction
based on EEQ partial charges (D4)


================================================================================

----- Orbital basis set information -----
Your calculation utilizes the basis: def2-TZVP
   F. Weigend and R. Ahlrichs, Phys. Chem. Chem. Phys. 7, 3297 (2005).

----- AuxJ basis set information -----
Your calculation utilizes the basis: def2-mTZVPP/J
   Stefan Grimme, Andreas Hansen, Sebastian Ehlert, and Jan-Michael Mewes 
   J. Chem. Phys. 154, 000000 (2021). DOI: 10.1063/5.0040021

================================================================================
                                        WARNINGS
                       Please study these warnings very carefully!
================================================================================

Using LibXC functional ID 497 : Re-regularized SCAN exchange by Furness et al
[ 1]  J. W. Furness, A. D. Kaplan, J. Ning, J. P. Perdew, and J. Sun.,  J. Phys. Chem. Lett. 11, 8208-8215 (2020)
[ 2]  J. W. Furness, A. D. Kaplan, J. Ning, J. P. Perdew, and J. Sun.,  J. Phys. Chem. Lett. 11, 9248-9248 (2020)
Using LibXC functional ID 498 : Re-regularized SCAN correlation by Furness et al
[ 1]  J. W. Furness, A. D. Kaplan, J. Ning, J. P. Perdew, and J. Sun.,  J. Phys. Chem. Lett. 11, 8208-8215 (2020)
[ 2]  J. W. Furness, A. D. Kaplan, J. Ning, J. P. Perdew, and J. Sun.,  J. Phys. Chem. Lett. 11, 9248-9248 (2020)
Using LibXC functional ID 497 : Re-regularized SCAN exchange by Furness et al
[ 1]  J. W. Furness, A. D. Kaplan, J. Ning, J. P. Perdew, and J. Sun.,  J. Phys. Chem. Lett. 11, 8208-8215 (2020)
[ 2]  J. W. Furness, A. D. Kaplan, J. Ning, J. P. Perdew, and J. Sun.,  J. Phys. Chem. Lett. 11, 9248-9248 (2020)
Using LibXC functional ID 498 : Re-regularized SCAN correlation by Furness et al
[ 1]  J. W. Furness, A. D. Kaplan, J. Ning, J. P. Perdew, and J. Sun.,  J. Phys. Chem. Lett. 11, 8208-8215 (2020)
[ 2]  J. W. Furness, A. D. Kaplan, J. Ning, J. P. Perdew, and J. Sun.,  J. Phys. Chem. Lett. 11, 9248-9248 (2020)

================================================================================
                                       INPUT FILE
================================================================================
NAME = vacuum_censo.inp
|  1> ! r2SCAN-3c DEF2-TZVP FREQ
|  2> * xyzfile 0 1 vacuum_censo.xyz
|  3> 
|  4>                          ****END OF INPUT****
================================================================================

                       ****************************
                       * Single Point Calculation *
                       ****************************

---------------------------------
CARTESIAN COORDINATES (ANGSTROEM)
---------------------------------
  C     -3.014744   -0.253908   -0.000034
  C     -1.648245    0.430582    0.000002
  C     -0.505807   -0.585160   -0.000545
  C      0.932755   -0.024311    0.000008
  C      1.188234    0.824108   -1.252621
  C      1.187891    0.822467    1.253821
  C      1.902233   -1.214917   -0.000645
  H     -3.135309   -0.889669   -0.883902
  H     -3.135189   -0.889968    0.883635
  H     -3.829174    0.476922    0.000146
  H     -1.572244    1.082272   -0.878673
  H     -1.571985    1.081626    0.879131
  H     -0.617855   -1.236681   -0.879544
  H     -0.618040   -1.237848    0.877566
  H      2.236552    1.139570   -1.294155
  H      0.971987    0.253790   -2.163228
  H      0.571571    1.728177   -1.263562
  H      0.571558    1.726750    1.265547
  H      2.236304    1.137484    1.296302
  H      0.970940    0.251102    2.163606
  H      1.752329   -1.840771   -0.887324
  H      2.942731   -0.872333   -0.000519
  H      1.752418   -1.841698    0.885396

----------------------------
CARTESIAN COORDINATES (A.U.)
----------------------------
  NO LB      ZA    FRAG     MASS         X           Y           Z
   0 C     6.0000    0    12.011   -5.697041   -0.479816   -0.000065
   1 C     6.0000    0    12.011   -3.114732    0.813682    0.000004
   2 C     6.0000    0    12.011   -0.955836   -1.105793   -0.001031
   3 C     6.0000    0    12.011    1.762651   -0.045941    0.000015
   4 C     6.0000    0    12.011    2.245437    1.557337   -2.367110
   5 C     6.0000    0    12.011    2.244789    1.554237    2.369379
   6 C     6.0000    0    12.011    3.594699   -2.295861   -0.001218
   7 H     1.0000    0     1.008   -5.924875   -1.681230   -1.670333
   8 H     1.0000    0     1.008   -5.924649   -1.681795    1.669827
   9 H     1.0000    0     1.008   -7.236090    0.901252    0.000275
  10 H     1.0000    0     1.008   -2.971111    2.045198   -1.660451
  11 H     1.0000    0     1.008   -2.970621    2.043977    1.661317
  12 H     1.0000    0     1.008   -1.167577   -2.336989   -1.662098
  13 H     1.0000    0     1.008   -1.167926   -2.339194    1.658359
  14 H     1.0000    0     1.008    4.226470    2.153474   -2.445598
  15 H     1.0000    0     1.008    1.836790    0.479594   -4.087908
  16 H     1.0000    0     1.008    1.080112    3.265780   -2.387786
  17 H     1.0000    0     1.008    1.080087    3.263085    2.391537
  18 H     1.0000    0     1.008    4.226003    2.149533    2.449655
  19 H     1.0000    0     1.008    1.834811    0.474515    4.088622
  20 H     1.0000    0     1.008    3.311422   -3.478554   -1.676799
  21 H     1.0000    0     1.008    5.560956   -1.648470   -0.000981
  22 H     1.0000    0     1.008    3.311591   -3.480304    1.673157

--------------------------------
INTERNAL COORDINATES (ANGSTROEM)
--------------------------------
 C      0   0   0     0.000000000000     0.00000000     0.00000000
 C      1   0   0     1.528347644105     0.00000000     0.00000000
 C      2   1   0     1.528692085478   111.75304398     0.00000000
 C      3   2   1     1.544024011568   117.06045024   180.02386063
 C      4   3   2     1.534327808872   110.83630117   299.07887198
 C      4   3   2     1.534332339949   110.83551878    60.91850799
 C      4   3   2     1.535392746894   107.85574826   179.99865439
 H      1   2   3     1.095422377399   110.99931034   300.22366631
 H      1   2   3     1.095422177501   110.99843362    59.80101920
 H      1   2   3     1.094261040642   111.49007853   180.01198958
 H      2   1   3     1.096606792073   109.15363187   121.95749262
 H      2   1   3     1.096604324386   109.15281676   238.04253820
 H      3   2   1     1.099851656225   108.52713243    57.42320777
 H      3   2   1     1.099853030659   108.52754082   302.62236250
 H      5   4   3     1.095541443836   110.45721323   185.38316994
 H      5   4   3     1.096006302967   110.95964981   304.98258192
 H      5   4   3     1.094410635207   111.78509372    65.71489269
 H      6   4   3     1.094409912922   111.78468168   294.25834528
 H      6   4   3     1.095541482733   110.45736700   174.58996074
 H      6   4   3     1.096007619868   110.95925940    54.99022277
 H      7   4   3     1.095611237258   110.91070443    59.99045998
 H      7   4   3     1.095445780489   110.93083480   179.98694191
 H      7   4   3     1.095612714667   110.91187338   299.98426973

---------------------------
INTERNAL COORDINATES (A.U.)
---------------------------
 C      0   0   0     0.000000000000     0.00000000     0.00000000
 C      1   0   0     2.888158484782     0.00000000     0.00000000
 C      2   1   0     2.888809384646   111.75304398     0.00000000
 C      3   2   1     2.917782526061   117.06045024   180.02386063
 C      4   3   2     2.899459358427   110.83630117   299.07887198
 C      4   3   2     2.899467920922   110.83551878    60.91850799
 C      4   3   2     2.901471799638   107.85574826   179.99865439
 H      1   2   3     2.070048294253   110.99931034   300.22366631
 H      1   2   3     2.070047916500   110.99843362    59.80101920
 H      1   2   3     2.067853685833   111.49007853   180.01198958
 H      2   1   3     2.072286513617   109.15363187   121.95749262
 H      2   1   3     2.072281850363   109.15281676   238.04253820
 H      3   2   1     2.078418418205   108.52713243    57.42320777
 H      3   2   1     2.078421015509   108.52754082   302.62236250
 H      5   4   3     2.070273297210   110.45721323   185.38316994
 H      5   4   3     2.071151753660   110.95964981   304.98258192
 H      5   4   3     2.068136378592   111.78509372    65.71489269
 H      6   4   3     2.068135013671   111.78468168   294.25834528
 H      6   4   3     2.070273370716   110.45736700   174.58996074
 H      6   4   3     2.071154242242   110.95925940    54.99022277
 H      7   4   3     2.070405187664   110.91070443    59.99045998
 H      7   4   3     2.070092519683   110.93083480   179.98694191
 H      7   4   3     2.070407979562   110.91187338   299.98426973

---------------------
BASIS SET INFORMATION
---------------------
There are 2 groups of distinct atoms

 Group   1 Type C   : 11s6p2d1f contracted to 5s3p2d1f pattern {62111/411/11/1}
 Group   2 Type H   : 5s1p contracted to 3s1p pattern {311/1}

Atom   0C    basis set group =>   1
Atom   1C    basis set group =>   1
Atom   2C    basis set group =>   1
Atom   3C    basis set group =>   1
Atom   4C    basis set group =>   1
Atom   5C    basis set group =>   1
Atom   6C    basis set group =>   1
Atom   7H    basis set group =>   2
Atom   8H    basis set group =>   2
Atom   9H    basis set group =>   2
Atom  10H    basis set group =>   2
Atom  11H    basis set group =>   2
Atom  12H    basis set group =>   2
Atom  13H    basis set group =>   2
Atom  14H    basis set group =>   2
Atom  15H    basis set group =>   2
Atom  16H    basis set group =>   2
Atom  17H    basis set group =>   2
Atom  18H    basis set group =>   2
Atom  19H    basis set group =>   2
Atom  20H    basis set group =>   2
Atom  21H    basis set group =>   2
Atom  22H    basis set group =>   2
---------------------------------
AUXILIARY/J BASIS SET INFORMATION
---------------------------------
There are 2 groups of distinct atoms

 Group   1 Type C   : 8s3p3d contracted to 6s3p3d pattern {311111/111/111}
 Group   2 Type H   : 5s2p1d contracted to 3s1p1d pattern {311/2/1}

Atom   0C    basis set group =>   1
Atom   1C    basis set group =>   1
Atom   2C    basis set group =>   1
Atom   3C    basis set group =>   1
Atom   4C    basis set group =>   1
Atom   5C    basis set group =>   1
Atom   6C    basis set group =>   1
Atom   7H    basis set group =>   2
Atom   8H    basis set group =>   2
Atom   9H    basis set group =>   2
Atom  10H    basis set group =>   2
Atom  11H    basis set group =>   2
Atom  12H    basis set group =>   2
Atom  13H    basis set group =>   2
Atom  14H    basis set group =>   2
Atom  15H    basis set group =>   2
Atom  16H    basis set group =>   2
Atom  17H    basis set group =>   2
Atom  18H    basis set group =>   2
Atom  19H    basis set group =>   2
Atom  20H    basis set group =>   2
Atom  21H    basis set group =>   2
Atom  22H    basis set group =>   2
------------------------------------------------------------------------------
                             ORCA STARTUP CALCULATIONS
                           -- RI-GTO INTEGRALS CHOSEN --
------------------------------------------------------------------------------
------------------------------------------------------------------------------
                   ___                                                        
                  /   \      - P O W E R E D   B Y -                         
                 /     \                                                     
                 |  |  |   _    _      __       _____    __    __             
                 |  |  |  | |  | |    /  \     |  _  \  |  |  /  |          
                  \  \/   | |  | |   /    \    | | | |  |  | /  /          
                 / \  \   | |__| |  /  /\  \   | |_| |  |  |/  /          
                |  |  |   |  __  | /  /__\  \  |    /   |      \           
                |  |  |   | |  | | |   __   |  |    \   |  |\   \          
                \     /   | |  | | |  |  |  |  | |\  \  |  | \   \       
                 \___/    |_|  |_| |__|  |__|  |_| \__\ |__|  \__/        
                                                                              
                      - O R C A' S   B I G   F R I E N D -                    
                                      &                                       
                       - I N T E G R A L  F E E D E R -                       
                                                                              
 v1 FN, 2020, v2 2021, v3 2022-2024                                           
------------------------------------------------------------------------------


----------------------
SHARK INTEGRAL PACKAGE
----------------------

Number of atoms                             ...     23
Number of basis functions                   ...    313
Number of shells                            ...    141
Maximum angular momentum                    ...      3
Integral batch strategy                     ... SHARK/LIBINT Hybrid
RI-J (if used) integral strategy            ... SPLIT-RIJ (Revised 2003 algorithm where possible)
Printlevel                                  ...      1
Contraction scheme used                     ... SEGMENTED contraction
Prescreening option                         ... SCHWARTZ
   Thresh                                   ... 1.000e-10
   Tcut                                     ... 1.000e-11
   Tpresel                                  ... 1.000e-11 
Coulomb Range Separation                    ... NOT USED
Exchange Range Separation                   ... NOT USED
Multipole approximations                    ... NOT USED
Finite Nucleus Model                        ... NOT USED
CABS basis                                  ... NOT available
Auxiliary Coulomb fitting basis             ... AVAILABLE
   # of basis functions in Aux-J            ...    386
   # of shells in Aux-J                     ...    164
   Maximum angular momentum in Aux-J        ...      2
Auxiliary J/K fitting basis                 ... NOT available
Auxiliary Correlation fitting basis         ... NOT available
Auxiliary 'external' fitting basis          ... NOT available

Checking pre-screening integrals            ... done (  0.0 sec) Dimension = 141
Check shell pair data                       ... done (  0.0 sec)
Shell pair information
Shell pair cut-off parameter TPreSel        ...   1.0e-11
Total number of shell pairs                 ...     10011
Shell pairs after pre-screening             ...      9194
Total number of primitive shell pairs       ...     28168
Primitive shell pairs kept                  ...     19709
          la=0 lb=0:   3126 shell pairs
          la=1 lb=0:   2814 shell pairs
          la=1 lb=1:    653 shell pairs
          la=2 lb=0:   1100 shell pairs
          la=2 lb=1:    492 shell pairs
          la=2 lb=2:    102 shell pairs
          la=3 lb=0:    539 shell pairs
          la=3 lb=1:    244 shell pairs
          la=3 lb=2:     96 shell pairs
          la=3 lb=3:     28 shell pairs

Calculating one electron integrals          ... done (  0.0 sec)
Calculating RI/J V-Matrix + Cholesky decomp.... done (  0.1 sec)
Calculating Nuclear repulsion               ... done (  0.0 sec) ENN=    334.356653779116 Eh

Diagonalization of the overlap matrix:
Smallest eigenvalue                        ... 1.143e-04
Time for diagonalization                   ...    0.011 sec
Threshold for overlap eigenvalues          ... 1.000e-07
Number of eigenvalues below threshold      ... 0
Time for construction of square roots      ...    0.019 sec
Total time needed                          ...    0.038 sec

-------------------
DFT GRID GENERATION
-------------------

General Integration Accuracy     IntAcc      ... 4.388
Radial Grid Type                 RadialGrid  ... OptM3 with GC (2021)
Angular Grid (max. ang.)         AngularGrid ... 4 (Lebedev-302)
Angular grid pruning method      GridPruning ... 4 (adaptive)
Weight generation scheme         WeightScheme... mBecke (2022)
Basis function cutoff            BFCut       ... 1.0000e-10
Integration weight cutoff        WCut        ... 1.0000e-14
Partially contracted basis set               ... off
Rotationally invariant grid construction     ... off
Angular grids for H and He will be reduced by one unit

Total number of grid points                  ...    92897
Total number of batches                      ...     1463
Average number of points per batch           ...       63
Average number of grid points per atom       ...     4039
Initializing property integral containers    ... done (  0.0 sec)

SHARK setup successfully completed in   1.4 seconds

Maximum memory used throughout the entire STARTUP-calculation: 48.8 MB
-------------------------------------------------------------------------------
                                 ORCA GUESS
                   Start orbitals & Density for SCF / CASSCF
-------------------------------------------------------------------------------

------------
SCF SETTINGS
------------
Hamiltonian:
 Density Functional     Method          .... DFT(GTOs)
  Functional kind                       .... Exchange
  Functional name                       .... Re-regularized SCAN exchange by Furness et al
  Functional family                     .... MGGA
  Functional refs                              
    [ 0] J. W. Furness, A. D. Kaplan, J. Ning, J. P. Perdew, and J. Sun.,  J. Phys. Chem. Lett. 11, 8208-8215 (2020), doi: 10.1021/acs.jpclett.0c02405
    [ 1] J. W. Furness, A. D. Kaplan, J. Ning, J. P. Perdew, and J. Sun.,  J. Phys. Chem. Lett. 11, 9248-9248 (2020), doi: 10.1021/acs.jpclett.0c03077
  Functional external parameters        .... 6
    Parameter  0 _c1        =  6.670000e-01 : c1 parameter        
    Parameter  1 _c2        =  8.000000e-01 : c2 parameter        
    Parameter  2 _d         =  1.240000e+00 : d parameter         
    Parameter  3 _k1        =  6.500000e-02 : k1 parameter        
    Parameter  4 _eta       =  1.000000e-03 : eta parameter       
    Parameter  5 _dp2       =  3.610000e-01 : dp2 parameter       
  Functional kind                       .... Correlation
  Functional name                       .... Re-regularized SCAN correlation by Furness et al
  Functional family                     .... MGGA
  Functional refs                              
    [ 0] J. W. Furness, A. D. Kaplan, J. Ning, J. P. Perdew, and J. Sun.,  J. Phys. Chem. Lett. 11, 8208-8215 (2020), doi: 10.1021/acs.jpclett.0c02405
    [ 1] J. W. Furness, A. D. Kaplan, J. Ning, J. P. Perdew, and J. Sun.,  J. Phys. Chem. Lett. 11, 9248-9248 (2020), doi: 10.1021/acs.jpclett.0c03077
  Functional external parameters        .... 1
    Parameter  0 _eta       =  1.000000e-03 : Regularization parameter
 Gradients option       PostSCFGGA      .... off
 RI-approximation to the Coulomb term is turned on
   Number of AuxJ basis functions       .... 386


General Settings:
 Integral files         IntName         .... vacuum_censo
 Hartree-Fock type      HFTyp           .... RHF
 Total Charge           Charge          ....    0
 Multiplicity           Mult            ....    1
 Number of Electrons    NEL             ....   58
 Basis Dimension        Dim             ....  313
 Nuclear Repulsion      ENuc            ....    334.3566537791 Eh

Convergence Acceleration:
 AO-DIIS                CNVDIIS         .... on
   Start iteration      DIISMaxIt       ....    12
   Startup error        DIISStart       ....  0.200000
   # of expansion vecs  DIISMaxEq       ....     5
   Bias factor          DIISBfac        ....   1.050
   Max. coefficient     DIISMaxC        ....  10.000
 MO-DIIS                CNVKDIIS        .... off
 Trust-Rad. Augm. Hess. CNVTRAH         .... auto
   Auto Start mean grad. ratio tolernc. ....  1.125000
   Auto Start start iteration           ....    50
   Auto Start num. interpolation iter.  ....    10
   Max. Number of Micro iterations      ....    24
   Max. Number of Macro iterations      .... Maxiter - #DIIS iter
   Number of Davidson start vectors     ....     2
   Converg. threshold    (grad. norm)   ....   5.000e-05
   Grad. Scal. Fac. for Micro threshold ....   0.100
   Minimum threshold for Micro iter.    ....   1.000e-02
   NR start threshold (gradient norm)   ....   1.000e-04
   Initial trust radius                 ....   0.400
   Minimum AH scaling param. (alpha)    ....   1.000
   Maximum AH scaling param. (alpha)    .... 1000.000
   Quad. conv. algorithm                .... NR
   White noise on init. David. guess    .... on
   Maximum white noise                  ....   0.010
   Pseudo random numbers                .... off
   Inactive MOs                         .... canonical
   Orbital update algorithm             .... Taylor
   Preconditioner                       .... Diag
   Full preconditioner red. dimension   ....   250
   COSX micro iterations for RIJONX calc.... off
 SOSCF                  CNVSOSCF        .... on
   Start iteration      SOSCFMaxIt      ....   150
   Startup grad/error   SOSCFStart      ....  0.003300
   Hessian update       SOSCFHessUp     .... L-BFGS
 Level Shifting         CNVShift        .... on
   Level shift para.    LevelShift      ....    0.2500
   Turn off err/grad.   ShiftErr        ....    0.0010
 Zerner damping         CNVZerner       .... off
 Static damping         CNVDamp         .... on
   Fraction old density DampFac         ....    0.7000
   Max. Damping (<1)    DampMax         ....    0.9800
   Min. Damping (>=0)   DampMin         ....    0.0000
   Turn off err/grad.   DampErr         ....    0.1000

SCF Procedure:
 Maximum # iterations   MaxIter         ....   125
 SCF integral mode      SCFMode         .... Direct
   Integral package                     .... SHARK and LIBINT hybrid scheme
 Reset frequency        DirectResetFreq ....    20
 Integral Threshold     Thresh          ....  1.000e-10 Eh
 Primitive CutOff       TCut            ....  1.000e-11 Eh

Convergence Tolerance:
 Convergence Check Mode ConvCheckMode   .... Total+1el-Energy
 Convergence forced     ConvForced      .... 0
 Energy Change          TolE            ....  1.000e-06 Eh
 1-El. energy change                    ....  1.000e-03 Eh
 Orbital Gradient       TolG            ....  5.000e-05
 Orbital Rotation angle TolX            ....  5.000e-05
 DIIS Error             TolErr          ....  1.000e-06

------------------------------
INITIAL GUESS: MODEL POTENTIAL
------------------------------
Loading Hartree-Fock densities                     ... done
Calculating cut-offs                               ... done
Initializing the effective Hamiltonian             ... done
Setting up the integral package (SHARK)            ... done
Starting the Coulomb interaction                   ... done (   0.5 sec)
Making the grid                                    ... done (   0.3 sec)
Mapping shells                                     ... done
Starting the XC term evaluation                    ... done (   0.5 sec)
  promolecular density results
     # of electrons  =     57.988857533
     EX              =    -40.520383289
     EC              =     -1.878438028
     EX+EC           =    -42.398821318
Transforming the Hamiltonian                       ... done (   0.0 sec)
Diagonalizing the Hamiltonian                      ... done (   0.0 sec)
Back transforming the eigenvectors                 ... done (   0.0 sec)
Now organizing SCF variables                       ... done
                      ------------------
                      INITIAL GUESS DONE (   1.3 sec)
                      ------------------
             **** ENERGY FILE WAS UPDATED (vacuum_censo.en.tmp) ****
Finished Guess after   1.5 sec
Maximum memory used throughout the entire GUESS-calculation: 30.4 MB

-------------------------------------------------------------------------------------------
                                      ORCA LEAN-SCF
                              memory conserving SCF solver
-------------------------------------------------------------------------------------------

----------------------------------------D-I-I-S--------------------------------------------
Iteration    Energy (Eh)           Delta-E    RMSDP     MaxDP     DIISErr   Damp  Time(sec)
-------------------------------------------------------------------------------------------
               ***  Starting incremental Fock matrix formation  ***
    1    -276.0232714891400860     0.00e+00  1.32e-03  3.45e-02  1.87e-01  0.700   4.5
    2    -276.1650849824341662    -1.42e-01  9.69e-04  2.26e-02  9.53e-02  0.700   4.2
                               ***Turning on AO-DIIS***
    3    -276.2179445169159067    -5.29e-02  4.36e-04  1.48e-02  3.30e-02  0.700   4.0
    4    -276.2480639175686861    -3.01e-02  7.40e-04  3.84e-02  1.38e-02  0.000   3.9
    5    -276.3152868055239537    -6.72e-02  1.90e-04  4.12e-03  9.57e-03  0.000   4.1
                              *** Initializing SOSCF ***
---------------------------------------S-O-S-C-F--------------------------------------
Iteration    Energy (Eh)           Delta-E    RMSDP     MaxDP     MaxGrad    Time(sec)
--------------------------------------------------------------------------------------
    6    -276.3160788904028209    -7.92e-04  8.98e-05  2.25e-03  2.11e-03     3.9
               *** Restarting incremental Fock matrix formation ***
    7    -276.3161403124396998    -6.14e-05  6.37e-05  1.57e-03  2.67e-04     4.7
    8    -276.3161393905062937     9.22e-07  1.45e-05  4.48e-04  3.39e-04     3.5
                 **** Energy Check signals convergence ****

               *****************************************************
               *                     SUCCESS                       *
               *           SCF CONVERGED AFTER   8 CYCLES          *
               *****************************************************

             **** ENERGY FILE WAS UPDATED (vacuum_censo.en.tmp) ****

----------------
TOTAL SCF ENERGY
----------------

Total Energy       :       -276.31613939050629 Eh           -7518.94441 eV

Components:
Nuclear Repulsion  :        334.35665377911647 Eh            9098.30710 eV
Electronic Energy  :       -610.67279316962276 Eh          -16617.25151 eV
One Electron Energy:      -1032.89343035567936 Eh          -28106.45914 eV
Two Electron Energy:        422.22063718605665 Eh           11489.20764 eV

Virial components:
Potential Energy   :       -551.09715891268138 Eh          -14996.11608 eV
Kinetic Energy     :        274.78101952217503 Eh            7477.17167 eV
Virial Ratio       :          2.00558670271695

DFT components:
N(Alpha)           :       28.999857153938 electrons
N(Beta)            :       28.999857153938 electrons
N(Total)           :       57.999714307876 electrons
E(X)               :      -42.093961087589 Eh       
E(C)               :       -1.777190939618 Eh       
E(XC)              :      -43.871152027207 Eh       

---------------
SCF CONVERGENCE
---------------

  Last Energy change         ...   -9.2193e-07  Tolerance :   1.0000e-06
  Last MAX-Density change    ...    4.4776e-04  Tolerance :   1.0000e-05
  Last RMS-Density change    ...    1.4475e-05  Tolerance :   1.0000e-06
  Last DIIS Error            ...    2.1131e-03  Tolerance :   1.0000e-06
  Last Orbital Gradient      ...    3.3884e-04  Tolerance :   5.0000e-05
  Last Orbital Rotation      ...    2.0091e-04  Tolerance :   5.0000e-05


----------------
ORBITAL ENERGIES
----------------

  NO   OCC          E(Eh)            E(eV) 
   0   2.0000     -10.043309      -273.2923 
   1   2.0000     -10.023616      -272.7565 
   2   2.0000     -10.021175      -272.6900 
   3   2.0000     -10.015789      -272.5435 
   4   2.0000     -10.014241      -272.5014 
   5   2.0000     -10.014238      -272.5013 
   6   2.0000     -10.013601      -272.4839 
   7   2.0000      -0.791169       -21.5288 
   8   2.0000      -0.732162       -19.9231 
   9   2.0000      -0.648278       -17.6405 
  10   2.0000      -0.648049       -17.6343 
  11   2.0000      -0.639411       -17.3993 
  12   2.0000      -0.557348       -15.1662 
  13   2.0000      -0.495724       -13.4893 
  14   2.0000      -0.434040       -11.8108 
  15   2.0000      -0.425119       -11.5681 
  16   2.0000      -0.405578       -11.0363 
  17   2.0000      -0.402344       -10.9483 
  18   2.0000      -0.373730       -10.1697 
  19   2.0000      -0.359111        -9.7719 
  20   2.0000      -0.356518        -9.7014 
  21   2.0000      -0.333236        -9.0678 
  22   2.0000      -0.331277        -9.0145 
  23   2.0000      -0.328369        -8.9354 
  24   2.0000      -0.314145        -8.5483 
  25   2.0000      -0.299752        -8.1567 
  26   2.0000      -0.284417        -7.7394 
  27   2.0000      -0.281755        -7.6669 
  28   2.0000      -0.275731        -7.5030 
  29   0.0000       0.033248         0.9047 
  30   0.0000       0.062127         1.6906 
  31   0.0000       0.073940         2.0120 
  32   0.0000       0.078362         2.1323 
  33   0.0000       0.091125         2.4796 
  34   0.0000       0.095767         2.6060 
  35   0.0000       0.101075         2.7504 
  36   0.0000       0.118335         3.2201 
  37   0.0000       0.124478         3.3872 
  38   0.0000       0.124529         3.3886 
  39   0.0000       0.137374         3.7381 
*Only the first 10 virtual orbitals were printed.

                    ********************************
                    * MULLIKEN POPULATION ANALYSIS *
                    ********************************

-----------------------
MULLIKEN ATOMIC CHARGES
-----------------------
   0 C :   -0.321627
   1 C :   -0.160340
   2 C :   -0.209905
   3 C :    0.193288
   4 C :   -0.373539
   5 C :   -0.373537
   6 C :   -0.340639
   7 H :    0.098424
   8 H :    0.098428
   9 H :    0.106669
  10 H :    0.085666
  11 H :    0.085661
  12 H :    0.081903
  13 H :    0.081905
  14 H :    0.104784
  15 H :    0.105150
  16 H :    0.108802
  17 H :    0.108796
  18 H :    0.104783
  19 H :    0.105153
  20 H :    0.103272
  21 H :    0.103628
  22 H :    0.103272
Sum of atomic charges:   -0.0000000

--------------------------------
MULLIKEN REDUCED ORBITAL CHARGES
--------------------------------
  0 C s       :     3.267386  s :     3.267386
      pz      :     1.039629  p :     3.002477
      px      :     0.944508
      py      :     1.018340
      dz2     :     0.002390  d :     0.047922
      dxz     :     0.009952
      dyz     :     0.013296
      dx2y2   :     0.010364
      dxy     :     0.011919
      f0      :     0.000343  f :     0.003843
      f+1     :     0.000021
      f-1     :     0.001174
      f+2     :     0.000087
      f-2     :     0.000369
      f+3     :     0.000998
      f-3     :     0.000852

  1 C s       :     3.212575  s :     3.212575
      pz      :     0.998573  p :     2.851324
      px      :     0.911272
      py      :     0.941479
      dz2     :     0.003724  d :     0.090079
      dxz     :     0.015724
      dyz     :     0.025212
      dx2y2   :     0.027894
      dxy     :     0.017525
      f0      :     0.000673  f :     0.006361
      f+1     :     0.000109
      f-1     :     0.001242
      f+2     :     0.000107
      f-2     :     0.001062
      f+3     :     0.001717
      f-3     :     0.001452

  2 C s       :     3.236736  s :     3.236736
      pz      :     1.020685  p :     2.885518
      px      :     0.918064
      py      :     0.946769
      dz2     :     0.003585  d :     0.081428
      dxz     :     0.014434
      dyz     :     0.025534
      dx2y2   :     0.022144
      dxy     :     0.015731
      f0      :     0.000658  f :     0.006224
      f+1     :     0.000181
      f-1     :     0.001212
      f+2     :     0.000222
      f-2     :     0.000924
      f+3     :     0.001593
      f-3     :     0.001436

  3 C s       :     3.007087  s :     3.007087
      pz      :     0.876855  p :     2.611972
      px      :     0.887935
      py      :     0.847183
      dz2     :     0.035977  d :     0.176006
      dxz     :     0.031157
      dyz     :     0.039107
      dx2y2   :     0.035251
      dxy     :     0.034514
      f0      :     0.002206  f :     0.011646
      f+1     :     0.000962
      f-1     :     0.002006
      f+2     :     0.001094
      f-2     :     0.001889
      f+3     :     0.001755
      f-3     :     0.001735

  4 C s       :     3.298553  s :     3.298553
      pz      :     0.964874  p :     3.024679
      px      :     1.051446
      py      :     1.008359
      dz2     :     0.015171  d :     0.046532
      dxz     :     0.007444
      dyz     :     0.007724
      dx2y2   :     0.006704
      dxy     :     0.009488
      f0      :     0.000578  f :     0.003775
      f+1     :     0.000357
      f-1     :     0.001421
      f+2     :     0.000280
      f-2     :     0.000395
      f+3     :     0.000523
      f-3     :     0.000221

  5 C s       :     3.298556  s :     3.298556
      pz      :     0.964715  p :     3.024674
      px      :     1.051455
      py      :     1.008503
      dz2     :     0.015144  d :     0.046533
      dxz     :     0.007469
      dyz     :     0.007754
      dx2y2   :     0.006700
      dxy     :     0.009465
      f0      :     0.000579  f :     0.003775
      f+1     :     0.000359
      f-1     :     0.001420
      f+2     :     0.000279
      f-2     :     0.000394
      f+3     :     0.000523
      f-3     :     0.000220

  6 C s       :     3.289652  s :     3.289652
      pz      :     1.044334  p :     3.001479
      px      :     0.987955
      py      :     0.969189
      dz2     :     0.003830  d :     0.045695
      dxz     :     0.003208
      dyz     :     0.017612
      dx2y2   :     0.017177
      dxy     :     0.003869
      f0      :     0.000348  f :     0.003813
      f+1     :     0.000003
      f-1     :     0.001208
      f+2     :    -0.000100
      f-2     :     0.000538
      f+3     :     0.000736
      f-3     :     0.001080

  7 H s       :     0.878688  s :     0.878688
      pz      :     0.009725  p :     0.022887
      px      :     0.005380
      py      :     0.007782

  8 H s       :     0.878685  s :     0.878685
      pz      :     0.009723  p :     0.022887
      px      :     0.005380
      py      :     0.007784

  9 H s       :     0.870253  s :     0.870253
      pz      :     0.005274  p :     0.023078
      px      :     0.009682
      py      :     0.008122

 10 H s       :     0.890779  s :     0.890779
      pz      :     0.009850  p :     0.023555
      px      :     0.005373
      py      :     0.008331

 11 H s       :     0.890783  s :     0.890783
      pz      :     0.009856  p :     0.023556
      px      :     0.005374
      py      :     0.008326

 12 H s       :     0.895040  s :     0.895040
      pz      :     0.009592  p :     0.023057
      px      :     0.005265
      py      :     0.008200

 13 H s       :     0.895038  s :     0.895038
      pz      :     0.009582  p :     0.023057
      px      :     0.005265
      py      :     0.008210

 14 H s       :     0.872128  s :     0.872128
      pz      :     0.005311  p :     0.023088
      px      :     0.011753
      py      :     0.006024

 15 H s       :     0.871928  s :     0.871928
      pz      :     0.010616  p :     0.022921
      px      :     0.005457
      py      :     0.006848

 16 H s       :     0.867784  s :     0.867784
      pz      :     0.005265  p :     0.023414
      px      :     0.007702
      py      :     0.010447

 17 H s       :     0.867790  s :     0.867790
      pz      :     0.005265  p :     0.023414
      px      :     0.007700
      py      :     0.010449

 18 H s       :     0.872129  s :     0.872129
      pz      :     0.005312  p :     0.023088
      px      :     0.011754
      py      :     0.006022

 19 H s       :     0.871925  s :     0.871925
      pz      :     0.010608  p :     0.022921
      px      :     0.005458
      py      :     0.006855

 20 H s       :     0.873742  s :     0.873742
      pz      :     0.009772  p :     0.022986
      px      :     0.005290
      py      :     0.007923

 21 H s       :     0.873320  s :     0.873320
      pz      :     0.005260  p :     0.023052
      px      :     0.012102
      py      :     0.005690

 22 H s       :     0.873742  s :     0.873742
      pz      :     0.009765  p :     0.022986
      px      :     0.005290
      py      :     0.007931



                     *******************************
                     * LOEWDIN POPULATION ANALYSIS *
                     *******************************

----------------------
LOEWDIN ATOMIC CHARGES
----------------------
   0 C :   -0.310710
   1 C :   -0.289985
   2 C :   -0.228880
   3 C :   -0.365629
   4 C :   -0.262633
   5 C :   -0.262636
   6 C :   -0.262969
   7 H :    0.116883
   8 H :    0.116882
   9 H :    0.116284
  10 H :    0.131983
  11 H :    0.131986
  12 H :    0.138876
  13 H :    0.138879
  14 H :    0.122249
  15 H :    0.122505
  16 H :    0.119663
  17 H :    0.119661
  18 H :    0.122249
  19 H :    0.122505
  20 H :    0.121229
  21 H :    0.120378
  22 H :    0.121229

-------------------------------
LOEWDIN REDUCED ORBITAL CHARGES
-------------------------------
  0 C s       :     2.840702  s :     2.840702
      pz      :     1.070644  p :     3.178664
      px      :     1.041438
      py      :     1.066581
      dz2     :     0.035122  d :     0.266521
      dxz     :     0.037255
      dyz     :     0.067795
      dx2y2   :     0.050666
      dxy     :     0.075683
      f0      :     0.002193  f :     0.024823
      f+1     :     0.002824
      f-1     :     0.003592
      f+2     :     0.004144
      f-2     :     0.002181
      f+3     :     0.005937
      f-3     :     0.003951

  1 C s       :     2.785715  s :     2.785715
      pz      :     1.023659  p :     3.059319
      px      :     1.010110
      py      :     1.025549
      dz2     :     0.041947  d :     0.405601
      dxz     :     0.056016
      dyz     :     0.111824
      dx2y2   :     0.101083
      dxy     :     0.094730
      f0      :     0.004119  f :     0.039351
      f+1     :     0.003310
      f-1     :     0.004366
      f+2     :     0.004568
      f-2     :     0.005827
      f+3     :     0.010239
      f-3     :     0.006922

  2 C s       :     2.781287  s :     2.781287
      pz      :     1.019574  p :     3.009160
      px      :     0.980646
      py      :     1.008940
      dz2     :     0.044557  d :     0.401111
      dxz     :     0.053756
      dyz     :     0.107980
      dx2y2   :     0.102268
      dxy     :     0.092551
      f0      :     0.003921  f :     0.037322
      f+1     :     0.003361
      f-1     :     0.004375
      f+2     :     0.004882
      f-2     :     0.005301
      f+3     :     0.008709
      f-3     :     0.006773

  3 C s       :     2.704291  s :     2.704291
      pz      :     0.985082  p :     2.940807
      px      :     0.971832
      py      :     0.983892
      dz2     :     0.138958  d :     0.650784
      dxz     :     0.101095
      dyz     :     0.151468
      dx2y2   :     0.117365
      dxy     :     0.141898
      f0      :     0.012867  f :     0.069747
      f+1     :     0.008187
      f-1     :     0.007875
      f+2     :     0.008943
      f-2     :     0.012064
      f+3     :     0.009634
      f-3     :     0.010176

  4 C s       :     2.833039  s :     2.833039
      pz      :     1.029420  p :     3.140152
      px      :     1.061679
      py      :     1.049053
      dz2     :     0.082394  d :     0.265031
      dxz     :     0.028979
      dyz     :     0.059266
      dx2y2   :     0.038687
      dxy     :     0.055705
      f0      :     0.003434  f :     0.024411
      f+1     :     0.004568
      f-1     :     0.004937
      f+2     :     0.003602
      f-2     :     0.003459
      f+3     :     0.002846
      f-3     :     0.001565

  5 C s       :     2.833041  s :     2.833041
      pz      :     1.029357  p :     3.140155
      px      :     1.061687
      py      :     1.049111
      dz2     :     0.082302  d :     0.265029
      dxz     :     0.029082
      dyz     :     0.059370
      dx2y2   :     0.038675
      dxy     :     0.055600
      f0      :     0.003443  f :     0.024411
      f+1     :     0.004576
      f-1     :     0.004932
      f+2     :     0.003599
      f-2     :     0.003458
      f+3     :     0.002845
      f-3     :     0.001559

  6 C s       :     2.835240  s :     2.835240
      pz      :     1.063445  p :     3.136668
      px      :     1.040856
      py      :     1.032367
      dz2     :     0.037082  d :     0.266620
      dxz     :     0.012481
      dyz     :     0.093530
      dx2y2   :     0.080522
      dxy     :     0.043005
      f0      :     0.002194  f :     0.024440
      f+1     :     0.002639
      f-1     :     0.003817
      f+2     :     0.001948
      f-2     :     0.004051
      f+3     :     0.003671
      f-3     :     0.006119

  7 H s       :     0.820617  s :     0.820617
      pz      :     0.027856  p :     0.062499
      px      :     0.013527
      py      :     0.021116

  8 H s       :     0.820619  s :     0.820619
      pz      :     0.027849  p :     0.062499
      px      :     0.013526
      py      :     0.021123

  9 H s       :     0.821021  s :     0.821021
      pz      :     0.014189  p :     0.062695
      px      :     0.024960
      py      :     0.023546

 10 H s       :     0.807348  s :     0.807348
      pz      :     0.026983  p :     0.060669
      px      :     0.013453
      py      :     0.020233

 11 H s       :     0.807344  s :     0.807344
      pz      :     0.026997  p :     0.060670
      px      :     0.013454
      py      :     0.020219

 12 H s       :     0.801269  s :     0.801269
      pz      :     0.026409  p :     0.059856
      px      :     0.013009
      py      :     0.020438

 13 H s       :     0.801266  s :     0.801266
      pz      :     0.026383  p :     0.059855
      px      :     0.013009
      py      :     0.020463

 14 H s       :     0.815133  s :     0.815133
      pz      :     0.013551  p :     0.062618
      px      :     0.033533
      py      :     0.015534

 15 H s       :     0.814991  s :     0.814991
      pz      :     0.028102  p :     0.062504
      px      :     0.014814
      py      :     0.019588

 16 H s       :     0.816978  s :     0.816978
      pz      :     0.013518  p :     0.063359
      px      :     0.021392
      py      :     0.028449

 17 H s       :     0.816979  s :     0.816979
      pz      :     0.013518  p :     0.063359
      px      :     0.021384
      py      :     0.028457

 18 H s       :     0.815133  s :     0.815133
      pz      :     0.013551  p :     0.062618
      px      :     0.033537
      py      :     0.015530

 19 H s       :     0.814991  s :     0.814991
      pz      :     0.028074  p :     0.062504
      px      :     0.014819
      py      :     0.019610

 20 H s       :     0.816160  s :     0.816160
      pz      :     0.028042  p :     0.062611
      px      :     0.014053
      py      :     0.020516

 21 H s       :     0.817032  s :     0.817032
      pz      :     0.014025  p :     0.062590
      px      :     0.033008
      py      :     0.015557

 22 H s       :     0.816160  s :     0.816160
      pz      :     0.028021  p :     0.062611
      px      :     0.014053
      py      :     0.020537



                      *****************************
                      * MAYER POPULATION ANALYSIS *
                      *****************************

  NA   - Mulliken gross atomic population
  ZA   - Total nuclear charge
  QA   - Mulliken gross atomic charge
  VA   - Mayer's total valence
  BVA  - Mayer's bonded valence
  FA   - Mayer's free valence

  ATOM       NA         ZA         QA         VA         BVA        FA
  0 C      6.3216     6.0000    -0.3216     3.9241     3.9241     0.0000
  1 C      6.1603     6.0000    -0.1603     3.9079     3.9079     0.0000
  2 C      6.2099     6.0000    -0.2099     3.8384     3.8384     0.0000
  3 C      5.8067     6.0000     0.1933     3.8072     3.8072    -0.0000
  4 C      6.3735     6.0000    -0.3735     3.8736     3.8736     0.0000
  5 C      6.3735     6.0000    -0.3735     3.8736     3.8736    -0.0000
  6 C      6.3406     6.0000    -0.3406     3.8403     3.8403    -0.0000
  7 H      0.9016     1.0000     0.0984     0.9818     0.9818     0.0000
  8 H      0.9016     1.0000     0.0984     0.9818     0.9818     0.0000
  9 H      0.8933     1.0000     0.1067     0.9787     0.9787     0.0000
 10 H      0.9143     1.0000     0.0857     0.9751     0.9751     0.0000
 11 H      0.9143     1.0000     0.0857     0.9751     0.9751     0.0000
 12 H      0.9181     1.0000     0.0819     0.9880     0.9880     0.0000
 13 H      0.9181     1.0000     0.0819     0.9880     0.9880     0.0000
 14 H      0.8952     1.0000     0.1048     0.9861     0.9861     0.0000
 15 H      0.8948     1.0000     0.1052     0.9843     0.9843     0.0000
 16 H      0.8912     1.0000     0.1088     0.9800     0.9800    -0.0000
 17 H      0.8912     1.0000     0.1088     0.9800     0.9800    -0.0000
 18 H      0.8952     1.0000     0.1048     0.9861     0.9861    -0.0000
 19 H      0.8948     1.0000     0.1052     0.9843     0.9843    -0.0000
 20 H      0.8967     1.0000     0.1033     0.9859     0.9859    -0.0000
 21 H      0.8964     1.0000     0.1036     0.9860     0.9860    -0.0000
 22 H      0.8967     1.0000     0.1033     0.9859     0.9859    -0.0000

  Mayer bond orders larger than 0.100000
B(  0-C ,  1-C ) :   0.9715 B(  0-C ,  7-H ) :   0.9780 B(  0-C ,  8-H ) :   0.9780 
B(  0-C ,  9-H ) :   0.9798 B(  1-C ,  2-C ) :   0.9829 B(  1-C , 10-H ) :   0.9656 
B(  1-C , 11-H ) :   0.9656 B(  2-C ,  3-C ) :   0.9265 B(  2-C , 12-H ) :   0.9665 
B(  2-C , 13-H ) :   0.9665 B(  3-C ,  4-C ) :   0.9490 B(  3-C ,  5-C ) :   0.9490 
B(  3-C ,  6-C ) :   0.9425 B(  4-C , 14-H ) :   0.9736 B(  4-C , 15-H ) :   0.9723 
B(  4-C , 16-H ) :   0.9732 B(  5-C , 17-H ) :   0.9732 B(  5-C , 18-H ) :   0.9736 
B(  5-C , 19-H ) :   0.9723 B(  6-C , 20-H ) :   0.9728 B(  6-C , 21-H ) :   0.9754 
B(  6-C , 22-H ) :   0.9728 

-------
TIMINGS
-------

Total SCF time: 0 days 0 hours 0 min 33 sec 

Total time                  ....      33.224 sec
Sum of individual times     ....      32.769 sec  ( 98.6%)

SCF preparation             ....       0.202 sec  (  0.6%)
Fock matrix formation       ....      31.438 sec  ( 94.6%)
  Startup                   ....       0.061 sec  (  0.2% of F)
  Split-RI-J                ....       4.217 sec  ( 13.4% of F)
  XC integration            ....      26.685 sec  ( 84.9% of F)
    XC Preparation          ....       0.000 sec  (  0.0% of XC)
    Basis function eval.    ....       3.955 sec  ( 14.8% of XC)
    Density eval.           ....       8.176 sec  ( 30.6% of XC)
    XC-Functional eval.     ....       1.986 sec  (  7.4% of XC)
    XC-Potential eval.      ....      11.655 sec  ( 43.7% of XC)
Diagonalization             ....       0.000 sec  (  0.0%)
Density matrix formation    ....       0.204 sec  (  0.6%)
Total Energy calculation    ....       0.236 sec  (  0.7%)
Population analysis         ....       0.037 sec  (  0.1%)
Orbital Transformation      ....       0.084 sec  (  0.3%)
Orbital Orthonormalization  ....       0.000 sec  (  0.0%)
DIIS solution               ....       0.451 sec  (  1.4%)
SOSCF solution              ....       0.117 sec  (  0.4%)
Finished LeanSCF after  33.3 sec

Maximum memory used throughout the entire LEANSCF-calculation: 37.2 MB

------------------------------------------------------------------------------
                         ORCA PROPERTY INTEGRAL CALCULATIONS
------------------------------------------------------------------------------

GBWName                                   ... vacuum_censo.gbw
Number of atoms                           ...     23
Number of basis functions                 ...    313
Max core memory                           ...   1024 MB

Dipole integrals                          ... YES
Quadrupole integrals                      ...  NO
Linear momentum integrals                 ...  NO
Angular momentum integrals                ...  NO
Higher moments length integrals           ...  NO
Higher moments velocity integrals         ...  NO
Kinetic energy integrals                  ...  NO
GIAO right hand sides                     ...  NO
GIAO dipole derivative integrals          ...  NO
SOC integrals                             ...  NO
EPR diamagnetic integrals (GIAO)          ...  NO
EPR gauge integrals                       ...  NO
Field gradient integrals                  ...  NO (   0 nuclei)
Spin-dipole/Fermi contact integrals       ...  NO (   0 nuclei)
Contact density integrals                 ...  NO (   0 nuclei)
Nucleus-orbit integrals                   ...  NO (   0 nuclei)
Geometric perturbations                   ... YES (  23 nuclei)

Choice of electric origin   ... Center of mass
Position of electric origin ... (  0.0006,  0.0010,  0.0000) 
Choice of magnetic origin   ... GIAO
Position of magnetic origin ... (  0.0000,  0.0000,  0.0000) 

Calculating integrals                     ... Electric Dipole (Length)     done (  0.0 sec)
Calculating integrals                     ... Geometrical perturbation right hand sides

-----------------------
GEOMETRIC PERTURBATIONS (23 nuclei)
-----------------------

MaxCore                            ...   1024 MB
Number of batches                  ...      1

BATCH   0: Atoms    0 -   22 ( 69 perturbations)
   => H(core) and overlap derivative integrals     ... done (     0.8 sec)
   => Making and storing internal U-coefficients   ... done (     0.5 sec)
   => RI-J derivative integrals                    ... done (     7.4 sec)
   => RI-J response operators                      ... done (     2.0 sec)
   => XC derivative integrals                      ... done (   488.3 sec)
   => XC response operators                        ... done (   145.1 sec)
   => Completing and storing right hand sides      ... done (     0.3 sec)
   => Total time for right hand sides = 648.3 sec

  geometrical perturbations done (648.3 sec)

Property integrals calculated in 648.3 sec

Maximum memory used throughout the entire PROPINT-calculation: 235.6 MB


-------------------------------------------------------------------------------
                          DFT DISPERSION CORRECTION                            
                                                                               
                                DFTD4 V3.4.0                                   
-------------------------------------------------------------------------------
The R2SCAN3C composite method is recognized
Using three-body term ABC
Active option DFTDOPT                   ...         5   

-------------------------   ----------------
Dispersion correction           -0.006417864
-------------------------   ----------------

------------------   -----------------
gCP correction             0.011030864
------------------   -----------------

-------------------------   --------------------
FINAL SINGLE POINT ENERGY      -276.311526390742
-------------------------   --------------------

------------------------------------------------------------------------------
                            ORCA SCF RESPONSE CALCULATION
------------------------------------------------------------------------------

GBWName                                 ... vacuum_censo.gbw
Number of atoms                         ...     23
Number of basis functions               ...    313
Max core memory                         ...   1024 MB

Electric field perturbation             ...  NO
Quadrupolar field perturbation          ...  NO
Magnetic field perturbation (no GIAO)   ...  NO
Magnetic field perturbation (with GIAO) ...  NO
Linear momentum (velocity) perturbation ...  NO
Spin-orbit coupling perturbation        ...  NO
Choice of electric origin               ... Center of mass
Position of electric origin             ...     0.000586     0.001048     0.000005
Choice of magnetic origin               ... GIAO
Position of magnetic origin             ...     0.000000     0.000000     0.000000
Nuclear geometric perturbations         ... YES (  69 perturbations)
Nucleus-orbit perturbations             ...  NO (   0 perturbations)
Spin-dipole/Fermi contact perturbations ...  NO (   0 perturbations)

Total number of real perturbations      ...     69
Total number of imaginary perturbations ...      0
Total number of triplet perturbations   ...      0
Total number of SOC perturbations       ...      0


                                **********************
                                * REAL PERTURBATIONS *
                                **********************



-------------------
SHARK CP-SCF DRIVER
-------------------

Dimension of the orbital basis          ...    313
Dimension of the CPSCF-problem          ...   8236
Number of operators                     ...      1
Max. number of iterations               ...    128
Convergence Tolerance                   ... 1.0e-03
Number of perturbations                 ...     69
Perturbation type                       ... REAL

----------------------------
POPLE LINEAR EQUATION SOLVER
----------------------------

  ITERATION   0:   ||err||_max =   1.3998e-01 (  42.4 sec   0/ 69 done)
  ITERATION   1:   ||err||_max =   1.7484e-02 (  47.0 sec   0/ 69 done)
  ITERATION   2:   ||err||_max =   4.7903e-03 (  48.5 sec  16/ 69 done)
  ITERATION   3:   ||err||_max =   1.5865e-03 (  38.3 sec  53/ 69 done)
  ITERATION   4:   ||err||_max =   4.2476e-04 (  13.0 sec  69/ 69 done)

CP-SCF equations solved in 191.7 sec
Response densities calculated in   0.2 sec

Maximum memory used throughout the entire SCFRESP-calculation: 148.2 MB

------------------------------------------------------------------------------
                              ORCA PROPERTY CALCULATIONS
------------------------------------------------------------------------------

GBWName                                 ... vacuum_censo.gbw
Number of atoms                         ...     23
Number of basis functions               ...    313
Max core memory                         ...   1024 MB

Electric properties:
Dipole moment                           ... YES
Quadrupole moment                       ...  NO
Static polarizability (Dipole/Dipole)   ...  NO
Static polarizability (Dipole/Quad.)    ...  NO
Static polarizability (Quad./Quad.)     ...  NO
Static polarizability (Velocity)        ...  NO

Atomic electric properties:
Dipole moment                           ...  NO
Quadrupole moment                       ...  NO
Static polarizability                   ...  NO

Choice of electric origin               ... Center of mass
Position of electric origin             ...     0.000586     0.001048     0.000005

General magnetic properties:
Magnetizability                         ...  NO

EPR properties:
g-Tensor (aka g-matrix)                 ...  NO
Zero-Field splitting spin-orbit         ...  NO
Zero-field splitting spin-spin          ...  NO
Hyperfine couplings                     ...  NO (   0 nuclei)
Quadrupole couplings                    ...  NO (   0 nuclei)
Contact density                         ...  NO (   0 nuclei)

NMR properties:
Chemical shifts                         ...  NO (   0 nuclei)
Spin-rotation constants                 ...  NO (   0 nuclei)
Spin-spin couplings                     ...  NO (   0 nuclei,    0 pairs)

Choice of magnetic origin               ... GIAO
Position of magnetic origin             ...     0.000000     0.000000     0.000000

Properties with geometric perturbations:
SCF Hessian                             ... YES
IR spectrum                             ... YES
VCD spectrum                            ...  NO
X-ray spectroscopy properties:
SCF XES/XAS/RIXS spectra                ...  NO


-------------
DIPOLE MOMENT
-------------

Method             : SCF
Type of density    : Electron Density
Multiplicity       :   1
Irrep              :   0
Energy             :  -276.3161393905062937 Eh
Relativity type    : 
Basis              : AO
                                X                 Y                 Z
Electronic contribution:      0.439486051      -0.029161398      -0.000348536
Nuclear contribution   :     -0.448792647       0.056149575       0.000356088
                        -----------------------------------------
Total Dipole Moment    :     -0.009306596       0.026988177       0.000007552
                        -----------------------------------------
Magnitude (a.u.)       :      0.028547758
Magnitude (Debye)      :      0.072562633



--------------------
Rotational spectrum 
--------------------
 
Rotational constants in cm-1:             0.135073             0.046744             0.046140 
Rotational constants in MHz :          4049.389458          1401.337835          1383.229984 

Dipole components along the rotational axes: 
x,y,z [a.u.] :    -0.009294    -0.026993     0.000003 
x,y,z [Debye]:    -0.023623    -0.068610     0.000008 

 

Dipole moment calculation done in   0.0 sec 

-----------
SCF HESSIAN
-----------

Occupied/Occupied contributions to the Hessian:
   => Occupied/Occupied contributions              ... done (  0.0 sec)
Perturbed density contributions to the Hessian:
   => Perturbed density contributions              ... done (  0.1 sec)
Explicit contributions to the Hessian:
   => Nuclear repulsion Hessian                    ... done (  0.0 sec)
   => HCore and overlap Hessian                    ... done ( 30.5 sec)
   => RI-J Hessian                                 ... done ( 15.5 sec)
   => XC-Hessian                                   ... done (140.0 sec)
   => Van der Waals-Hessian                        ... done (  4.4 sec)
   => GCP-Hessian                                  ... done (  0.1 sec)
   => Explicit contributions done
Dipole derivatives                                 ... done (  0.2 sec)
Mass weighting the Hessian           ... done
Calculating normal modes             ... done
Scaling frequencies                  ... done

-----------------------
VIBRATIONAL FREQUENCIES
-----------------------

Scaling factor for frequencies =  1.000000000  (already applied!)

     0:       0.00 cm**-1
     1:       0.00 cm**-1
     2:       0.00 cm**-1
     3:       0.00 cm**-1
     4:       0.00 cm**-1
     5:       0.00 cm**-1
     6:      66.51 cm**-1
     7:     111.26 cm**-1
     8:     190.42 cm**-1
     9:     236.35 cm**-1
    10:     258.44 cm**-1
    11:     281.29 cm**-1
    12:     290.83 cm**-1
    13:     323.13 cm**-1
    14:     342.00 cm**-1
    15:     348.06 cm**-1
    16:     421.95 cm**-1
    17:     431.91 cm**-1
    18:     500.58 cm**-1
    19:     749.48 cm**-1
    20:     749.91 cm**-1
    21:     868.73 cm**-1
    22:     886.93 cm**-1
    23:     931.30 cm**-1
    24:     936.53 cm**-1
    25:     952.85 cm**-1
    26:     955.67 cm**-1
    27:    1012.79 cm**-1
    28:    1029.92 cm**-1
    29:    1050.40 cm**-1
    30:    1109.72 cm**-1
    31:    1117.02 cm**-1
    32:    1225.90 cm**-1
    33:    1235.60 cm**-1
    34:    1267.13 cm**-1
    35:    1295.70 cm**-1
    36:    1317.54 cm**-1
    37:    1345.61 cm**-1
    38:    1379.22 cm**-1
    39:    1386.60 cm**-1
    40:    1387.56 cm**-1
    41:    1402.88 cm**-1
    42:    1420.32 cm**-1
    43:    1465.61 cm**-1
    44:    1472.47 cm**-1
    45:    1479.91 cm**-1
    46:    1480.58 cm**-1
    47:    1486.42 cm**-1
    48:    1494.94 cm**-1
    49:    1500.44 cm**-1
    50:    1503.11 cm**-1
    51:    1503.33 cm**-1
    52:    1514.34 cm**-1
    53:    2973.79 cm**-1
    54:    2995.18 cm**-1
    55:    2997.27 cm**-1
    56:    3002.55 cm**-1
    57:    3003.81 cm**-1
    58:    3009.72 cm**-1
    59:    3013.28 cm**-1
    60:    3049.24 cm**-1
    61:    3071.61 cm**-1
    62:    3072.11 cm**-1
    63:    3075.84 cm**-1
    64:    3078.27 cm**-1
    65:    3079.24 cm**-1
    66:    3083.32 cm**-1
    67:    3083.62 cm**-1
    68:    3085.25 cm**-1


------------
NORMAL MODES
------------

These modes are the Cartesian displacements weighted by the diagonal matrix
M(i,i)=1/sqrt(m[i]) where m[i] is the mass of the displaced atom
Thus, these vectors are normalized but *not* orthogonal

                  0          1          2          3          4          5    
      0       0.000000   0.000000   0.000000   0.000000   0.000000   0.000000
      1       0.000000   0.000000   0.000000   0.000000   0.000000   0.000000
      2       0.000000   0.000000   0.000000   0.000000   0.000000   0.000000
      3       0.000000   0.000000   0.000000   0.000000   0.000000   0.000000
      4       0.000000   0.000000   0.000000   0.000000   0.000000   0.000000
      5       0.000000   0.000000   0.000000   0.000000   0.000000   0.000000
      6       0.000000   0.000000   0.000000   0.000000   0.000000   0.000000
      7       0.000000   0.000000   0.000000   0.000000   0.000000   0.000000
      8       0.000000   0.000000   0.000000   0.000000   0.000000   0.000000
      9       0.000000   0.000000   0.000000   0.000000   0.000000   0.000000
     10       0.000000   0.000000   0.000000   0.000000   0.000000   0.000000
     11       0.000000   0.000000   0.000000   0.000000   0.000000   0.000000
     12       0.000000   0.000000   0.000000   0.000000   0.000000   0.000000
     13       0.000000   0.000000   0.000000   0.000000   0.000000   0.000000
     14       0.000000   0.000000   0.000000   0.000000   0.000000   0.000000
     15       0.000000   0.000000   0.000000   0.000000   0.000000   0.000000
     16       0.000000   0.000000   0.000000   0.000000   0.000000   0.000000
     17       0.000000   0.000000   0.000000   0.000000   0.000000   0.000000
     18       0.000000   0.000000   0.000000   0.000000   0.000000   0.000000
     19       0.000000   0.000000   0.000000   0.000000   0.000000   0.000000
     20       0.000000   0.000000   0.000000   0.000000   0.000000   0.000000
     21       0.000000   0.000000   0.000000   0.000000   0.000000   0.000000
     22       0.000000   0.000000   0.000000   0.000000   0.000000   0.000000
     23       0.000000   0.000000   0.000000   0.000000   0.000000   0.000000
     24       0.000000   0.000000   0.000000   0.000000   0.000000   0.000000
     25       0.000000   0.000000   0.000000   0.000000   0.000000   0.000000
     26       0.000000   0.000000   0.000000   0.000000   0.000000   0.000000
     27       0.000000   0.000000   0.000000   0.000000   0.000000   0.000000
     28       0.000000   0.000000   0.000000   0.000000   0.000000   0.000000
     29       0.000000   0.000000   0.000000   0.000000   0.000000   0.000000
     30       0.000000   0.000000   0.000000   0.000000   0.000000   0.000000
     31       0.000000   0.000000   0.000000   0.000000   0.000000   0.000000
     32       0.000000   0.000000   0.000000   0.000000   0.000000   0.000000
     33       0.000000   0.000000   0.000000   0.000000   0.000000   0.000000
     34       0.000000   0.000000   0.000000   0.000000   0.000000   0.000000
     35       0.000000   0.000000   0.000000   0.000000   0.000000   0.000000
     36       0.000000   0.000000   0.000000   0.000000   0.000000   0.000000
     37       0.000000   0.000000   0.000000   0.000000   0.000000   0.000000
     38       0.000000   0.000000   0.000000   0.000000   0.000000   0.000000
     39       0.000000   0.000000   0.000000   0.000000   0.000000   0.000000
     40       0.000000   0.000000   0.000000   0.000000   0.000000   0.000000
     41       0.000000   0.000000   0.000000   0.000000   0.000000   0.000000
     42       0.000000   0.000000   0.000000   0.000000   0.000000   0.000000
     43       0.000000   0.000000   0.000000   0.000000   0.000000   0.000000
     44       0.000000   0.000000   0.000000   0.000000   0.000000   0.000000
     45       0.000000   0.000000   0.000000   0.000000   0.000000   0.000000
     46       0.000000   0.000000   0.000000   0.000000   0.000000   0.000000
     47       0.000000   0.000000   0.000000   0.000000   0.000000   0.000000
     48       0.000000   0.000000   0.000000   0.000000   0.000000   0.000000
     49       0.000000   0.000000   0.000000   0.000000   0.000000   0.000000
     50       0.000000   0.000000   0.000000   0.000000   0.000000   0.000000
     51       0.000000   0.000000   0.000000   0.000000   0.000000   0.000000
     52       0.000000   0.000000   0.000000   0.000000   0.000000   0.000000
     53       0.000000   0.000000   0.000000   0.000000   0.000000   0.000000
     54       0.000000   0.000000   0.000000   0.000000   0.000000   0.000000
     55       0.000000   0.000000   0.000000   0.000000   0.000000   0.000000
     56       0.000000   0.000000   0.000000   0.000000   0.000000   0.000000
     57       0.000000   0.000000   0.000000   0.000000   0.000000   0.000000
     58       0.000000   0.000000   0.000000   0.000000   0.000000   0.000000
     59       0.000000   0.000000   0.000000   0.000000   0.000000   0.000000
     60       0.000000   0.000000   0.000000   0.000000   0.000000   0.000000
     61       0.000000   0.000000   0.000000   0.000000   0.000000   0.000000
     62       0.000000   0.000000   0.000000   0.000000   0.000000   0.000000
     63       0.000000   0.000000   0.000000   0.000000   0.000000   0.000000
     64       0.000000   0.000000   0.000000   0.000000   0.000000   0.000000
     65       0.000000   0.000000   0.000000   0.000000   0.000000   0.000000
     66       0.000000   0.000000   0.000000   0.000000   0.000000   0.000000
     67       0.000000   0.000000   0.000000   0.000000   0.000000   0.000000
     68       0.000000   0.000000   0.000000   0.000000   0.000000   0.000000
                  6          7          8          9         10         11    
      0      -0.000029  -0.000049  -0.028030  -0.000009  -0.000000   0.054630
      1      -0.000030   0.000136   0.198628   0.000006  -0.000042  -0.017252
      2      -0.100451  -0.171477   0.000104  -0.025674   0.004397  -0.000015
      3      -0.000016   0.000020   0.096208  -0.000005  -0.000041   0.035938
      4      -0.000071  -0.000016  -0.066716   0.000004   0.000034   0.008155
      5       0.194316  -0.000427   0.000021   0.017827  -0.082135  -0.000023
      6      -0.000008  -0.000008   0.021951  -0.000008  -0.000008   0.013935
      7       0.000054  -0.000140  -0.156447  -0.000001   0.000017  -0.001535
      8      -0.007639   0.184422  -0.000114   0.021211   0.022058  -0.000003
      9       0.000008   0.000005  -0.011403  -0.000002  -0.000000  -0.002645
     10       0.000022  -0.000034  -0.057613  -0.000005   0.000013   0.003836
     11      -0.014051   0.045033  -0.000044   0.003606   0.013260   0.000012
     12       0.009240  -0.133002  -0.122525  -0.018447  -0.029251  -0.039955
     13      -0.047646  -0.002666  -0.031071   0.013358   0.007903   0.007330
     14      -0.045361   0.015145  -0.007273   0.010612   0.015573  -0.008212
     15      -0.009157   0.132998  -0.122524   0.018464   0.029351  -0.039891
     16       0.047715   0.002645  -0.031088  -0.013373  -0.007875   0.007325
     17      -0.045303   0.015181   0.007200   0.010602   0.015548   0.008238
     18      -0.000038   0.000038   0.168002   0.000003  -0.000057  -0.013193
     19      -0.000040   0.000051   0.090810   0.000009  -0.000035  -0.002778
     20       0.029796  -0.059805   0.000074  -0.030744   0.005456   0.000004
     21       0.047513   0.126563  -0.171729   0.130438  -0.237528   0.077179
     22       0.287742  -0.012850   0.228196  -0.185619   0.345171  -0.022718
     23      -0.313582  -0.179297  -0.001620   0.089570  -0.210690   0.000688
     24      -0.047595  -0.126785  -0.171326  -0.130432   0.237563   0.077256
     25      -0.287729   0.013149   0.227496   0.185589  -0.345191  -0.022841
     26      -0.313673  -0.179275   0.001411   0.089648  -0.210836  -0.000801
     27      -0.000021   0.000012   0.133471  -0.000034   0.000001   0.029143
     28      -0.000069   0.000235   0.379535   0.000046  -0.000164  -0.045981
     29       0.094100  -0.299512   0.000601  -0.300568   0.509760   0.000068
     30       0.060929   0.114027   0.185722   0.015202  -0.017922   0.041713
     31       0.254014  -0.043086  -0.072911  -0.003837  -0.082211   0.005959
     32       0.387553  -0.021272   0.004887   0.017377  -0.143697  -0.001659
     33      -0.060965  -0.113904   0.185764  -0.015204   0.017777   0.041734
     34      -0.254297   0.043057  -0.073100   0.003844   0.082327   0.005993
     35       0.387389  -0.021202  -0.004740   0.017385  -0.143635   0.001584
     36      -0.043159  -0.011067   0.023761  -0.010288   0.021156   0.009239
     37       0.116059  -0.148600  -0.147983   0.006765  -0.078234   0.000651
     38      -0.088183   0.295369  -0.005817   0.017887   0.077166  -0.000885
     39       0.043136   0.011019   0.023779   0.010255  -0.021143   0.009210
     40      -0.115838   0.148178  -0.148072  -0.006763   0.078180   0.000673
     41      -0.088325   0.295570   0.005541   0.017880   0.077259   0.000895
     42      -0.000566  -0.104625  -0.144857  -0.082700  -0.056383   0.043325
     43      -0.012528  -0.121536   0.036314   0.244565   0.101784  -0.300982
     44      -0.026494  -0.167532  -0.053564   0.145982   0.046798  -0.247552
     45       0.059231  -0.361991  -0.124676   0.234833   0.050093  -0.433682
     46      -0.098300   0.040546  -0.044854  -0.066009  -0.018995   0.131122
     47      -0.025113   0.041923   0.001581   0.000140   0.013302   0.007291
     48      -0.020243  -0.029641  -0.175132  -0.214171  -0.109357   0.223048
     49      -0.068720   0.068581  -0.069018  -0.122866  -0.047725   0.189575
     50      -0.109253   0.143579   0.017308  -0.105742  -0.011397   0.200587
     51       0.020416   0.029530  -0.174818   0.214235   0.109385   0.223434
[...]
     44      -0.001184  -0.003262   0.002329
     45      -0.045126  -0.025764   0.051288
     46      -0.088882  -0.049746   0.106624
     47      -0.147371  -0.082198   0.175183
     48       0.259675   0.172128  -0.297994
     49      -0.374124  -0.250302   0.430728
     50       0.000892   0.002263  -0.004529
     51      -0.257482   0.174576  -0.298264
     52       0.371240  -0.254037   0.431464
     53       0.001184  -0.002490   0.004902
     54      -0.167090   0.150146  -0.197154
     55      -0.058627   0.051643  -0.070112
     56      -0.001316   0.003424  -0.002534
     57       0.044885  -0.026235   0.051445
     58       0.088321  -0.050611   0.106826
     59      -0.146051   0.083408  -0.175045
     60      -0.002505   0.003782  -0.001518
     61      -0.011089   0.019366  -0.006527
     62      -0.014010   0.030626  -0.011842
     63       0.000489   0.076652  -0.034389
     64       0.000154   0.024136  -0.009634
     65       0.001654  -0.000000  -0.000001
     66       0.002553   0.003742  -0.001496
     67       0.011351   0.019239  -0.006457
     68      -0.014387  -0.030399   0.011724


-----------
IR SPECTRUM
-----------

 Mode   freq       eps      Int      T**2         TX        TY        TZ
       cm**-1   L/(mol*cm) km/mol    a.u.
----------------------------------------------------------------------------
  6:     66.51   0.000006    0.03  0.000027  (-0.000000  0.000002  0.005226)
  7:    111.26   0.000001    0.00  0.000002  (-0.000000  0.000000 -0.001438)
  8:    190.42   0.000008    0.04  0.000013  ( 0.002585  0.002599  0.000002)
  9:    236.35   0.000001    0.00  0.000001  (-0.000001  0.000001  0.000835)
 10:    258.44   0.000001    0.00  0.000001  (-0.000003 -0.000001 -0.000834)
 11:    281.29   0.000012    0.06  0.000014  ( 0.003315  0.001696  0.000002)
 12:    290.83   0.000000    0.00  0.000000  (-0.000000  0.000002  0.000571)
 13:    323.13   0.000000    0.00  0.000000  ( 0.000249  0.000148  0.000000)
 14:    342.00   0.000001    0.00  0.000001  (-0.000002 -0.000003  0.000726)
 15:    348.06   0.000011    0.06  0.000010  (-0.002972 -0.000962 -0.000000)
 16:    421.95   0.000018    0.09  0.000014  (-0.000003 -0.000006  0.003691)
 17:    431.91   0.000054    0.28  0.000039  (-0.005049 -0.003721 -0.000006)
 18:    500.58   0.000008    0.04  0.000005  (-0.002186 -0.000111 -0.000000)
 19:    749.48   0.000044    0.22  0.000018  (-0.003815  0.001807 -0.000585)
 20:    749.91   0.000522    2.64  0.000217  ( 0.000151 -0.000067 -0.014739)
 21:    868.73   0.000012    0.06  0.000004  (-0.000001 -0.000002 -0.002103)
 22:    886.93   0.000076    0.38  0.000027  ( 0.001460 -0.004944 -0.000003)
 23:    931.30   0.000381    1.93  0.000128  (-0.009562  0.006024  0.000003)
 24:    936.53   0.000036    0.18  0.000012  (-0.000002 -0.000002  0.003446)
 25:    952.85   0.000002    0.01  0.000001  (-0.000031  0.000007 -0.000898)
 26:    955.67   0.000432    2.18  0.000141  ( 0.011679 -0.002176 -0.000001)
 27:   1012.79   0.000006    0.03  0.000002  (-0.000000  0.000000  0.001332)
 28:   1029.92   0.000044    0.22  0.000013  (-0.003611  0.000652 -0.000000)
 29:   1050.40   0.000029    0.15  0.000009  ( 0.000185  0.002933  0.000003)
 30:   1109.72   0.000000    0.00  0.000000  ( 0.000002 -0.000002 -0.000047)
 31:   1117.02   0.000118    0.60  0.000033  (-0.005718 -0.000562 -0.000002)
 32:   1225.90   0.001085    5.48  0.000276  (-0.012941  0.010426 -0.000002)
 33:   1235.60   0.000280    1.41  0.000071  (-0.000011 -0.000001  0.008405)
 34:   1267.13   0.001372    6.94  0.000338  (-0.016694 -0.007700 -0.000008)
 35:   1295.70   0.000268    1.35  0.000065  ( 0.000002  0.000004 -0.008034)
 36:   1317.54   0.000058    0.29  0.000014  (-0.002753  0.002484 -0.000002)
 37:   1345.61   0.000100    0.51  0.000023  (-0.000002  0.000007 -0.004821)
 38:   1379.22   0.000664    3.36  0.000150  (-0.007989  0.009300  0.000013)
 39:   1386.60   0.002266   11.45  0.000510  (-0.000001  0.000014  0.022585)
 40:   1387.56   0.001269    6.41  0.000285  ( 0.000045  0.016894 -0.000029)
 41:   1402.88   0.000358    1.81  0.000080  (-0.001715 -0.008759 -0.000001)
 42:   1420.32   0.001066    5.39  0.000234  ( 0.014119  0.005903  0.000004)
 43:   1465.61   0.000039    0.20  0.000008  (-0.002862 -0.000200 -0.000002)
 44:   1472.47   0.000001    0.00  0.000000  ( 0.000001 -0.000000  0.000437)
 45:   1479.91   0.000066    0.33  0.000014  ( 0.000004 -0.000003 -0.003733)
 46:   1480.58   0.000049    0.25  0.000010  ( 0.000934 -0.003077  0.000006)
 47:   1486.42   0.000126    0.64  0.000027  (-0.005082 -0.000824 -0.000004)
 48:   1494.94   0.002425   12.25  0.000506  ( 0.000002 -0.000006  0.022498)
 49:   1500.44   0.000049    0.25  0.000010  (-0.002391 -0.002105  0.000003)
 50:   1503.11   0.002477   12.52  0.000514  ( 0.011441 -0.019581 -0.000064)
 51:   1503.33   0.000497    2.51  0.000103  ( 0.000065 -0.000118  0.010153)
 52:   1514.34   0.003688   18.64  0.000760  (-0.021318 -0.017479 -0.000013)
 53:   2973.79   0.005370   27.14  0.000564  (-0.006729 -0.022765 -0.000014)
 54:   2995.18   0.006788   34.31  0.000707  ( 0.013165 -0.023108 -0.000020)
 55:   2997.27   0.008855   44.75  0.000922  (-0.000001 -0.000025  0.030364)
 56:   3002.55   0.007793   39.38  0.000810  (-0.027792 -0.006126  0.000000)
 57:   3003.81   0.000466    2.36  0.000048  ( 0.000977 -0.006891 -0.000003)
 58:   3009.72   0.009188   46.43  0.000953  (-0.013274 -0.027865 -0.000027)
 59:   3013.28   0.002372   11.98  0.000246  ( 0.000021  0.000058 -0.015672)
 60:   3049.24   0.002741   13.85  0.000281  (-0.000002 -0.000004  0.016749)
 61:   3071.61   0.000529    2.68  0.000054  ( 0.000031  0.000026 -0.007334)
 62:   3072.11   0.000974    4.92  0.000099  (-0.009096 -0.004022 -0.000037)
 63:   3075.84   0.002538   12.83  0.000257  (-0.000045 -0.000044  0.016046)
 64:   3078.27   0.017175   86.79  0.001741  (-0.033729 -0.024566  0.000038)
 65:   3079.24   0.018140   91.67  0.001838  (-0.000052 -0.000035 -0.042876)
 66:   3083.32   0.003239   16.37  0.000328  (-0.000038 -0.000028 -0.018106)
 67:   3083.62   0.001058    5.35  0.000107  (-0.002818 -0.009955  0.000088)
 68:   3085.25   0.020503  103.61  0.002074  ( 0.030209 -0.034077 -0.000018)

* The epsilon (eps) is given for a Dirac delta lineshape.
** The dipole moment derivative (T) already includes vibrational overlap.

The first frequency considered to be a vibration is 6
The total number of vibrations considered is 63


--------------------------
THERMOCHEMISTRY AT 298.15K
--------------------------

Temperature         ...   298.15 K
Pressure            ...     1.00 atm
Total Mass          ...   100.20 AMU
Quasi RRHO          ...     True
Cut-Off Frequency   ...     1.00 cm^-1

Throughout the following assumptions are being made:
  (1) The electronic state is orbitally nondegenerate
  (2) There are no thermally accessible electronically excited states
  (3) Hindered rotations indicated by low frequency modes are not
      treated as such but are treated as vibrations and this may
      cause some error
  (4) All equations used are the standard statistical mechanics
      equations for an ideal gas
  (5) All vibrations are strictly harmonic

freq.      66.51  E(vib)   ...       0.50 
freq.     111.26  E(vib)   ...       0.45 
freq.     190.42  E(vib)   ...       0.36 
freq.     236.35  E(vib)   ...       0.32 
freq.     258.44  E(vib)   ...       0.30 
freq.     281.29  E(vib)   ...       0.28 
freq.     290.83  E(vib)   ...       0.27 
freq.     323.13  E(vib)   ...       0.25 
freq.     342.00  E(vib)   ...       0.23 
freq.     348.06  E(vib)   ...       0.23 
freq.     421.95  E(vib)   ...       0.18 
freq.     431.91  E(vib)   ...       0.18 
freq.     500.58  E(vib)   ...       0.14 
freq.     749.48  E(vib)   ...       0.06 
freq.     749.91  E(vib)   ...       0.06 
freq.     868.73  E(vib)   ...       0.04 
freq.     886.93  E(vib)   ...       0.04 
freq.     931.30  E(vib)   ...       0.03 
freq.     936.53  E(vib)   ...       0.03 
freq.     952.85  E(vib)   ...       0.03 
freq.     955.67  E(vib)   ...       0.03 
freq.    1012.79  E(vib)   ...       0.02 
freq.    1029.92  E(vib)   ...       0.02 
freq.    1050.40  E(vib)   ...       0.02 
freq.    1109.72  E(vib)   ...       0.02 
freq.    1117.02  E(vib)   ...       0.01 
freq.    1225.90  E(vib)   ...       0.01 
freq.    1235.60  E(vib)   ...       0.01 
freq.    1267.13  E(vib)   ...       0.01 
freq.    1295.70  E(vib)   ...       0.01 
freq.    1317.54  E(vib)   ...       0.01 
freq.    1345.61  E(vib)   ...       0.01 
freq.    1379.22  E(vib)   ...       0.01 
freq.    1386.60  E(vib)   ...       0.00 
freq.    1387.56  E(vib)   ...       0.00 
freq.    1402.88  E(vib)   ...       0.00 
freq.    1420.32  E(vib)   ...       0.00 
freq.    1465.61  E(vib)   ...       0.00 
freq.    1472.47  E(vib)   ...       0.00 
freq.    1479.91  E(vib)   ...       0.00 
freq.    1480.58  E(vib)   ...       0.00 
freq.    1486.42  E(vib)   ...       0.00 
freq.    1494.94  E(vib)   ...       0.00 
freq.    1500.44  E(vib)   ...       0.00 
freq.    1503.11  E(vib)   ...       0.00 
freq.    1503.33  E(vib)   ...       0.00 
freq.    1514.34  E(vib)   ...       0.00 
freq.    2973.79  E(vib)   ...       0.00 
freq.    2995.18  E(vib)   ...       0.00 
freq.    2997.27  E(vib)   ...       0.00 
freq.    3002.55  E(vib)   ...       0.00 
freq.    3003.81  E(vib)   ...       0.00 
freq.    3009.72  E(vib)   ...       0.00 
freq.    3013.28  E(vib)   ...       0.00 
freq.    3049.24  E(vib)   ...       0.00 
freq.    3071.61  E(vib)   ...       0.00 
freq.    3072.11  E(vib)   ...       0.00 
freq.    3075.84  E(vib)   ...       0.00 
freq.    3078.27  E(vib)   ...       0.00 
freq.    3079.24  E(vib)   ...       0.00 
freq.    3083.32  E(vib)   ...       0.00 
freq.    3083.62  E(vib)   ...       0.00 
freq.    3085.25  E(vib)   ...       0.00 

------------
INNER ENERGY
------------

The inner energy is: U= E(el) + E(ZPE) + E(vib) + E(rot) + E(trans)
    E(el)   - is the total energy from the electronic structure calculation
              = E(kin-el) + E(nuc-el) + E(el-el) + E(nuc-nuc)
    E(ZPE)  - the the zero temperature vibrational energy from the frequency calculation
    E(vib)  - the the finite temperature correction to E(ZPE) due to population
              of excited vibrational states
    E(rot)  - is the rotational thermal energy
    E(trans)- is the translational thermal energy

Summary of contributions to the inner energy U:
Electronic energy                ...   -276.31152639 Eh
Zero point energy                ...      0.21504379 Eh     134.94 kcal/mol
Thermal vibrational correction   ...      0.00666136 Eh       4.18 kcal/mol
Thermal rotational correction    ...      0.00141627 Eh       0.89 kcal/mol
Thermal translational correction ...      0.00141627 Eh       0.89 kcal/mol
-----------------------------------------------------------------------
Total thermal energy                   -276.08698870 Eh


Summary of corrections to the electronic energy:
(perhaps to be used in another calculation)
Total thermal correction                  0.00949390 Eh       5.96 kcal/mol
Non-thermal (ZPE) correction              0.21504379 Eh     134.94 kcal/mol
-----------------------------------------------------------------------
Total correction                          0.22453769 Eh     140.90 kcal/mol


--------
ENTHALPY
--------

The enthalpy is H = U + kB*T
                kB is Boltzmann's constant
Total thermal energy              ...   -276.08698870 Eh 
Thermal Enthalpy correction       ...      0.00094421 Eh       0.59 kcal/mol
-----------------------------------------------------------------------
Total Enthalpy                    ...   -276.08604449 Eh


Note: Only C1 symmetry has been detected, increase convergence thresholds 
      if your molecule has a higher symmetry. Symmetry factor of 1.0 is   
      used for the rotational entropy correction. 
 

Note: Rotational entropy computed according to Herzberg 
Infrared and Raman Spectra, Chapter V,1, Van Nostrand Reinhold, 1945 
Point Group:  C1, Symmetry Number:   1  
Rotational constants in cm-1:     0.135073     0.046744     0.046140 

Vibrational entropy computed according to the QRRHO of S. Grimme
Chem.Eur.J. 2012 18 9955 using a reference frequency of 100.0 cm-1


-------
ENTROPY
-------

The entropy contributions are T*S = T*(S(el)+S(vib)+S(rot)+S(trans))
     S(el)   - electronic entropy
     S(vib)  - vibrational entropy
     S(rot)  - rotational entropy
     S(trans)- translational entropy
The entropies will be listed as multiplied by the temperature to get
units of energy

Electronic entropy                ...      0.00000000 Eh      0.00 kcal/mol
Vibrational entropy               ...      0.01108684 Eh      6.96 kcal/mol
Rotational entropy                ...      0.01335415 Eh      8.38 kcal/mol
Translational entropy             ...      0.01887414 Eh     11.84 kcal/mol
-----------------------------------------------------------------------
Final entropy term                ...      0.04331513 Eh     27.18 kcal/mol

In case the symmetry of your molecule has not been determined correctly
or in case you have a reason to use a different symmetry number we print 
out the resulting rotational entropy values for sn=1,12:

 non-linear molecules -----------------------------------
|  sn= 1 | S(rot)=       0.01335415 Eh      8.38 kcal/mol|
|  sn= 2 | S(rot)=       0.01269969 Eh      7.97 kcal/mol|
|  sn= 3 | S(rot)=       0.01231686 Eh      7.73 kcal/mol|
|  sn= 4 | S(rot)=       0.01204523 Eh      7.56 kcal/mol|
|  sn= 5 | S(rot)=       0.01183455 Eh      7.43 kcal/mol|
|  sn= 6 | S(rot)=       0.01166240 Eh      7.32 kcal/mol|
|  sn= 7 | S(rot)=       0.01151686 Eh      7.23 kcal/mol|
|  sn= 8 | S(rot)=       0.01139078 Eh      7.15 kcal/mol|
|  sn= 9 | S(rot)=       0.01127957 Eh      7.08 kcal/mol|
|  sn=10 | S(rot)=       0.01118009 Eh      7.02 kcal/mol|
|  sn=11 | S(rot)=       0.01109010 Eh      6.96 kcal/mol|
|  sn=12 | S(rot)=       0.01100795 Eh      6.91 kcal/mol|
 linear molecules ---------------------------------------
|  Dinfh | S(rot)=       0.00823019 Eh      5.16 kcal/mol|
|  Cinfv | S(rot)=       0.00888464 Eh      5.58 kcal/mol|
 --------------------------------------------------------


-------------------
GIBBS FREE ENERGY
-------------------

The Gibbs free energy is G = H - T*S

Total enthalpy                    ...   -276.08604449 Eh 
Total entropy correction          ...     -0.04331513 Eh    -27.18 kcal/mol
-----------------------------------------------------------------------
Final Gibbs free energy         ...   -276.12935961 Eh

For completeness - the Gibbs free energy minus the electronic energy
G-E(el)                           ...      0.18216678 Eh    114.31 kcal/mol


Maximum memory used throughout the entire PROP-calculation: 67.3 MB

--------------------------------
SUGGESTED CITATIONS FOR THIS RUN
--------------------------------

Below you find a list of papers that are relevant to this ORCA run
We neither can nor want to force you to cite these papers, but we appreciate if you do
You receive ORCA, which is the product of decades of hard work by many enthusiastic individuals, for free
The only thing we kindly ask in return is that you cite our papers,
We deeply appreciate it, if you show your appreciation for ORCA by not just citing the generic ORCA reference.

Please note that relegating all ORCA citations to the supporting information does *not* help us.
SI sections are not indexed - citations you put there will not count into any citation statistics
But we need these citations in order to attract the funding resources that allow us to do what we are doing

Therefore, if you are a happy ORCA user, please consider citing a few of the papers listed below in the main body of your paper

In addition to the list printed below, the program has created the file vacuum_censo.bibtex that contains the list in bibtex format
You can import this file easily into all common literature databanks and citation aid programs


List of essential papers. We consider these as the minimum necessary citations

  1. Neese,F.
     Software update: the ORCA program system, version 5.0
     WIRES Comput. Molec. Sci., 2022 12(1)e1606
     doi.org/10.1002/wcms.1606
  2. Grimme,S.; Hansen,A.; Ehlert,S.; Mewes,J.
     r2SCAN-3c: A 'Swiss army knife' composite electronic-structure method
     J. Chem. Phys., 2021 154 064103
     doi.org/10.1063/5.0040021

List of papers to cite with high priority. The work reported in these papers was absolutely
necessary for this run to complete.
Our perspective: the developers of density functionals and basis sets usually get cited in chemistry papers
Good! But without the algorithms to do something with them, the functionals or basis sets would not do anything.
Hence, in our opinion, the algorithm design and method developments papers are equally worthy of getting cited

  1. Neese,F.
     An improvement of the resolution of the identity approximation for the formation of the Coulomb matrix
     J. Comp. Chem., 2003 24(14)1740-1747
     doi.org/10.1002/jcc.10318
  2. Bykov,D.; Petrenko,T.; Izsak,R.; Kossmann,S.; Becker,U.; Valeev,E.; Neese,F.
     Efficient implementation of the analytic second derivatives of Hartree-Fock and hybrid DFT energies: a detailed analysis of different approximations
     Molec. Phys., 2015 113 1961-1977
     doi.org/10.1080/00268976.2015.1025114
  3. Neese,F.
     The SHARK Integral Generation and Digestion System
     J. Comp. Chem., 2022  1-16
     doi.org/10.1002/jcc.26942
  4. Lehtola,S.; Steigemann,C.; Oliveira,M.; Marques,M.
     Recent developments in Libxc - A comprehensive library of functionals for density functional theory
     Software X, 2018 7 
     doi.org/10.1016/j.softx.2017.11.002
  5. Caldeweyher,E.; Bannwarth,C.; Grimme,S.
     Extension of the D3 dispersion coefficient model
     J. Chem. Phys., 2017 147 034112-XXXX
     doi.org/10.1063/1.4993215
  6. Caldeweyher,E.; Ehlert,S.; Hansen,A.; Neugebauer,H.; Spicher,S.; Bannwarth,C.; Grimme,S.
     A generally applicable atomic-charge dependent London dispersion correction
     J. Chem. Phys., 2019 150 154122-XXXX
     doi.org/10.1063/1.5090222
  7. Caldeweyher,E.; Mewes,J.; Ehlert,S.; Grimme,S.
     Extension and evaluation of the D4 London-dispersion model for periodic systems
     Phys. Chem. Chem. Phys., 2020 22(16)8499-8512
     doi.org/10.1039/D0CP00502A

List of suggested additional citations. These are papers that are important in the 'surrounding' of 
of this run, or papers that preceded the highly important papers. If you like your results we are grateful for a citation.

  1. Neese,F.
     The ORCA program system
     WIRES Comput. Molec. Sci., 2012 2(1)73-78
     doi.org/10.1002/wcms.81
  2. Neese,F.
     Software update: the ORCA program system, version 4.0
     WIRES Comput. Molec. Sci., 2018 8(1)1-6
     doi.org/10.1002/wcms.1327
  3. Neese,F.; Wennmohs,F.; Becker,U.; Riplinger,C.
     The ORCA quantum chemistry program package
     J. Chem. Phys., 2020 152 Art. No. L224108
     doi.org/10.1063/5.0004608

List of optional additional citations

  1. Neese,F.
     Approximate second-order SCF convergence for spin unrestricted wavefunctions
     Chem. Phys. Lett., 2000 325(1-3)93-98
     doi.org/10.1016/s0009-2614(00)00662-x

Timings for individual modules:

Sum of individual times          ...     1068.985 sec (=  17.816 min)
Startup calculation              ...        1.443 sec (=   0.024 min)   0.1 %
SCF iterations                   ...       34.860 sec (=   0.581 min)   3.3 %
Property integrals               ...      648.426 sec (=  10.807 min)  60.7 %
SCF Response                     ...      193.217 sec (=   3.220 min)  18.1 %
Property calculations            ...      191.039 sec (=   3.184 min)  17.9 %
                             ****ORCA TERMINATED NORMALLY****
TOTAL RUN TIME: 0 days 0 hours 17 minutes 49 seconds 704 msec
