
                                 *****************
                                 * O   R   C   A *
                                 *****************

                                            #,                                       
                                            ###                                      
                                            ####                                     
                                            #####                                    
                                            ######                                   
                                           ########,                                 
                                     ,,################,,,,,                         
                               ,,#################################,,                 
                          ,,##########################################,,             
                       ,#########################################, ''#####,          
                    ,#############################################,,   '####,        
                  ,##################################################,,,,####,       
                ,###########''''           ''''###############################       
              ,#####''   ,,,,##########,,,,          '''####'''          '####       
            ,##' ,,,,###########################,,,                        '##       
           ' ,,###''''                  '''############,,,                           
         ,,##''                                '''############,,,,        ,,,,,,###''
      ,#''                                            '''#######################'''  
     '                                                          ''''####''''         
             ,#######,   #######,   ,#######,      ##                                
            ,#'     '#,  ##    ##  ,#'     '#,    #''#        ,####,   ,####,        
            ##       ##  ##   ,#'  ##            #'  '#       #'       #'  '#        
            ##       ##  #######   ##           ,######,      #####,   #    #        
            '#,     ,#'  ##    ##  '#,     ,#' ,#      #,     #,   #   #,  ,#        
             '#######'   ##     ##  '#######'  #'      '#     '####' # '####'        



                #########################################################
                #                        -***-                          #
                #          Department of theory and spectroscopy        #
                #                                                       #
                #                      Frank Neese                      #
                #                                                       #
                #     Directorship, Architecture, Infrastructure        #
                #                    SHARK, DRIVERS                     #
                #        Core code/Algorithms in most modules           #
                #                                                       #
                #        Max Planck Institute fuer Kohlenforschung      #
                #                Kaiser Wilhelm Platz 1                 #
                #                 D-45470 Muelheim/Ruhr                 #
                #                      Germany                          #
                #                                                       #
                #                  All rights reserved                  #
                #                        -***-                          #
                #########################################################


                         Program Version 6.0.1  -  RELEASE   -


 With contributions from (in alphabetic order):
[Max-Planck-Institut fuer Kohlenforschung]                               
  Daniel Aravena         : Magnetic Suceptibility                        
  Michael Atanasov       : Ab Initio Ligand Field Theory (pilot matlab implementation)
  Alexander A. Auer      : GIAO ZORA, VPT2 properties, NMR spectrum      
  Ute Becker             : All parallelization in ORCA, NUMFREQ, NUMCALC 
  Giovanni Bistoni       : ED, misc. LED, open-shell LED, HFLD           
  Martin Brehm           : Molecular dynamics                            
  Dmytro Bykov           : pre 5.0 version of the SCF Hessian            
  Marcos Casanova-Páez   : Triplet and SCS-CIS(D). UHF-(DLPNO)-IP/EA/STEOM-CCSD. UHF-CVS-IP/STEOM-CCSD   
  Vijay G. Chilkuri      : MRCI spin determinant printing, contributions to CSF-ICE 
  Pauline Colinet        : FMM embedding                                 
  Dipayan Datta          : RHF DLPNO-CCSD density                        
  Achintya Kumar Dutta   : EOM-CC, STEOM-CC                              
  Nicolas Foglia         : Exact transition moments, OPA infrastructure, MCD improvements    
  Dmitry Ganyushin       : Spin-Orbit,Spin-Spin,Magnetic field MRCI      
  Miquel Garcia-Rates    : C-PCM and meta-GGA Hessian, CCSD/C-PCM, Gaussian charge scheme 
  Tiago L. C. Gouveia    : GS-ROHF, GS-ROCIS                             
  Yang Guo               : DLPNO-NEVPT2, F12-NEVPT2, CIM, IAO-localization        
  Andreas Hansen         : Spin unrestricted coupled pair/coupled cluster methods 
  Ingolf Harden          : AUTO-CI MPn and infrastructure                
  Benjamin Helmich-Paris : MC-RPA, TRAH-(SCF,CASSCF), AVAS, COSX integrals, SCF dyn. polar. 
  Lee Huntington         : MR-EOM, pCC                                   
  Robert Izsak           : Overlap fitted RIJCOSX, COSX-SCS-MP3, EOM     
  Riya Kayal             : Wick's Theorem for AUTO-CI, AUTO-CI UHF-CCSDT 
  Emily Kempfer          : AUTO-CI, RHF CISDT and CCSDT                  
  Christian Kollmar      : KDIIS, OOCD, Brueckner-CCSD(T), CCSD density, CASPT2, CASPT2-K, improved NEVPT2 
  Axel Koslowski         : Symmetry handling                             
  Simone Kossmann        : meta-GGA functionals, TD-DFT gradient, OOMP2, (MP2 Hessian; deprecated post 5.0) 
  Lucas Lang             : DCDCAS                                        
  Marvin Lechner         : AUTO-CI (C++ implementation), FIC-MRCC        
  Spencer Leger          : CASSCF response                               
  Dagmar Lenk            : GEPOL surface, SMD, ORCA-2-JSON               
  Dimitrios Liakos       : Extrapolation schemes; Compound Job, initial MDCI parallelization 
  Dimitrios Manganas     : Further ROCIS development; embedding schemes. LFT, Crystal Embedding 
  Dimitrios Pantazis     : SARC Basis sets                               
  Anastasios Papadopoulos: AUTO-CI, single reference methods and gradients 
  Taras Petrenko         : pre 6.0 DFT Hessian and TD-DFT gradient, (ASA, deprecated), ECA, 1-Electron XAS/XES, NRVS 
  Peter Pinski           : DLPNO-MP2, DLPNO-MP2 Gradient                 
  Christoph Reimann      : Effective Core Potentials                     
  Marius Retegan         : Local ZFS, SOC                                
  Christoph Riplinger    : Optimizer, TS searches, QM/MM, DLPNO-CCSD(T), (RO)-DLPNO pert. Triples 
  Michael Roemelt        : Original ROCIS implementation                 
  Masaaki Saitow         : Open-shell DLPNO-CCSD energy and density      
  Barbara Sandhoefer     : DKH picture change effects                    
  Kantharuban Sivalingam : CASSCF convergence/infrastructure, NEVPT2 and variants, FIC-MRCI 
  Bernardo de Souza      : ESD, SOC TD-DFT                               
  Georgi L. Stoychev     : AutoAux, RI-MP2 NMR, DLPNO-MP2 response, X2C  
  Van Anh Tran           : RI-MP2 g-tensors                              
  Willem Van den Heuvel  : Paramagnetic NMR                              
  Zikuan Wang            : NOTCH, Electric field optimization            
  Frank Wennmohs         : Technical directorship and infrastructure     
  Hang Xu                : AUTO-CI-Response properties                   
                                                                         
[FACCTs GmbH]                                                            
  Markus Bursch, Miquel Garcia-Rates, Christoph Riplinger, Bernardo de Souza, Georgi L. Stoychev 
                                                                 
  APM, Basis sets (HGBS, AHGBS, def-TZVP (Ac-Lr), def2-XVPD (La-Lu)), CI-OPT, improved COSX, DLPNO-Multilevel,           
  DOCKER, DRACO, updates on ESD, GOAT, IRC, LR-CPCM, MBIS, meta-GGA TD-DFT gradient, ML-optimized integration grids, 
  MM, NACMEs, nearIR, NEB, NEB-TS, NL-DFT gradient (VV10), 2- and 3-layer-ONIOM, interface openCOSMO-RS, QMMM,   
  Crystal-QMMM, SF, symmetry and pop. for TD-DFT, r2SCAN hybrids, SOLVATOR                                   
                                                                         
[Other institutions]                                                     
  V. Asgeirsson          : NEB                                           
  Christoph Bannwarth    : sTDA-DFT, sTD-DFT, PBEh-3c, B97-3c, D3        
  Sebastian Ehlert       : rSCAN, r2SCAN, r2SCAN-3c, D4, dhf basis sets  
  Marvin Friede          : D4 for Fr, Ra, Ac-Lr                          
  Lars Goerigk           : TD-DFT with DH, B97 family of functionals     
  Stefan Grimme          : VdW corrections, initial TS optimization, DFT functionals, gCP, sTDA/sTD-DF 
  Waldemar Hujo          : DFT-NL                                        
  H. Jonsson             : NEB                                           
  Holger Kruse           : gCP                                           
  Marcel Mueller         : wB97X-3c, vDZP basis set                      
  Hagen Neugebauer       : wr2SCAN                                       
  Tobias Risthaus        : range-separated hybrid DFT                    
  Lukas Wittmann         : regularized MP2, r2SCAN double-hybrids, wr2SCAN        
                                                                         
We gratefully acknowledge several colleagues who have allowed us to      
interface, adapt or use parts of their codes:                            
  Ed Valeev, F. Pavosevic, A. Kumar             : LibInt (2-el integral package), F12 methods 
  Garnet Chan, S. Sharma, J. Yang, R. Olivares  : DMRG                   
  Ulf Ekstrom                                   : XCFun DFT Library      
  Mihaly Kallay                                 : mrcc  (arbitrary order and MRCC methods)
  Frank Weinhold                                : gennbo (NPA and NBO analysis)           
  Simon Mueller                                 : openCOSMO-RS                            
  Christopher J. Cramer and Donald G. Truhlar   : smd solvation model                     
  S Lehtola, MJT Oliveira, MAL Marques          : LibXC Library                           
  Liviu Ungur et al                             : ANISO software                          


 Your calculation uses the libint2 library for the computation of 2-el integrals
 For citations please refer to: http://libint.valeyev.net

 Your ORCA version has been built with support for libXC version: 6.2.2
 For citations please refer to: https://libxc.gitlab.io

 This ORCA versions uses:
   CBLAS   interface :  Fast vector & matrix operations
   LAPACKE interface :  Fast linear algebra routines
   SCALAPACK package :  Parallel linear algebra routines
   Shared memory     :  Shared parallel matrices
   BLAS/LAPACK       :  OpenBLAS 0.3.27  USE64BITINT DYNAMIC_ARCH NO_AFFINITY Zen SINGLE_THREADED
        Core in use  :  Zen
   Copyright (c) 2011-2014, The OpenBLAS Project


Your calculation utilizes the geometrical counterpoise correction gCP
Please cite in your paper:
H.Kruse, S. Grimme J.Chem.Phys., 136, (2012), 154101 
   

Your calculation utilizes the atom-pairwise dispersion correction
based on EEQ partial charges (D4)


================================================================================

----- Orbital basis set information -----
Your calculation utilizes the basis: def2-mTZVPP
   Stefan Grimme, Andreas Hansen, Sebastian Ehlert, and Jan-Michael Mewes 
   J. Chem. Phys. 154, 064103 (2021). DOI: 10.1063/5.0040021

----- AuxJ basis set information -----
Your calculation utilizes the auxiliary basis: def2/J
   F. Weigend, Phys. Chem. Chem. Phys. 8, 1057 (2006).

================================================================================
                                        WARNINGS
                       Please study these warnings very carefully!
================================================================================



WARNING: SCAN, rSCAN, or r2SCAN functional requested.
  ===> : libXC variant has now been activated.



================================================================================
                                       INPUT FILE
================================================================================
NAME = sp.inp
|  1> ! r2scan-3c def2/J RI DEFGRID2 scfconv6 printgap
|  2> %output
|  3>     printlevel normal
|  4> end
|  5> * xyz 0 1
|  6> C -2.3653728818 0.1123584797 0.1438568072
|  7> C -0.9220339048 0.4188271455 -0.237792567
|  8> C 0.0025334346 -0.717383117 0.0828452677
|  9> C 1.3222082435 -0.6179499664 0.1368544991
| 10> C 2.0793381643 0.649924861 -0.1108256337
| 11> H -3.0121509862 0.953495762 -0.096393813
| 12> H -2.4419058212 -0.0854006051 1.211000619
| 13> H -2.7261331291 -0.7617564966 -0.3942627286
| 14> H -0.8682705759 0.632257908 -1.3111352599
| 15> H -0.5880757854 1.3199355915 0.2835392185
| 16> H -0.4713565368 -1.6714824909 0.268638721
| 17> H 1.9133838312 -1.4906958369 0.3769518676
| 18> H 1.7732378731 1.1034155584 -1.0528842297
| 19> H 3.1492330088 0.4644207373 -0.144618948
| 20> H 1.8816620194 1.3736584827 0.6811460965
| 21> *
| 22> 
| 23>                          ****END OF INPUT****
================================================================================

                       ****************************
                       * Single Point Calculation *
                       ****************************

---------------------------------
CARTESIAN COORDINATES (ANGSTROEM)
---------------------------------
  C     -2.365373    0.112358    0.143857
  C     -0.922034    0.418827   -0.237793
  C      0.002533   -0.717383    0.082845
  C      1.322208   -0.617950    0.136854
  C      2.079338    0.649925   -0.110826
  H     -3.012151    0.953496   -0.096394
  H     -2.441906   -0.085401    1.211001
  H     -2.726133   -0.761756   -0.394263
  H     -0.868271    0.632258   -1.311135
  H     -0.588076    1.319936    0.283539
  H     -0.471357   -1.671482    0.268639
  H      1.913384   -1.490696    0.376952
  H      1.773238    1.103416   -1.052884
  H      3.149233    0.464421   -0.144619
  H      1.881662    1.373658    0.681146

----------------------------
CARTESIAN COORDINATES (A.U.)
----------------------------
  NO LB      ZA    FRAG     MASS         X           Y           Z
   0 C     6.0000    0    12.011   -4.469907    0.212327    0.271850
   1 C     6.0000    0    12.011   -1.742392    0.791469   -0.449363
   2 C     6.0000    0    12.011    0.004787   -1.355658    0.156555
   3 C     6.0000    0    12.011    2.498611   -1.167756    0.258618
   4 C     6.0000    0    12.011    3.929380    1.228180   -0.209430
   5 H     1.0000    0     1.008   -5.692140    1.801846   -0.182158
   6 H     1.0000    0     1.008   -4.614533   -0.161384    2.288460
   7 H     1.0000    0     1.008   -5.151645   -1.439511   -0.745049
   8 H     1.0000    0     1.008   -1.640794    1.194794   -2.477687
   9 H     1.0000    0     1.008   -1.111302    2.494317    0.535811
  10 H     1.0000    0     1.008   -0.890735   -3.158644    0.507654
  11 H     1.0000    0     1.008    3.615771   -2.817007    0.712336
  12 H     1.0000    0     1.008    3.350934    2.085153   -1.989663
  13 H     1.0000    0     1.008    5.951188    0.877628   -0.273290
  14 H     1.0000    0     1.008    3.555826    2.595838    1.287180

--------------------------------
INTERNAL COORDINATES (ANGSTROEM)
--------------------------------
 C      0   0   0     0.000000000000     0.00000000     0.00000000
 C      1   0   0     1.524075683971     0.00000000     0.00000000
 C      2   1   0     1.499535643703   112.20976113     0.00000000
 C      3   2   1     1.324517100592   124.48232186   195.76305174
 C      4   3   2     1.497363597497   124.09828647     0.23778750
 H      1   2   3     1.087912774313   110.62478284   179.81134770
 H      1   2   3     1.088008208378   110.41254002    59.84141173
 H      1   2   3     1.088024624093   110.59188526   299.86002652
 H      2   1   3     1.095676832975   109.32635798   121.14938498
 H      2   1   3     1.093302925789   109.60931841   238.08352301
 H      3   2   1     1.081386391425   115.78923898    16.34599704
 H      4   3   2     1.081120102638   119.55588422   179.95368096
 H      5   4   3     1.089415255630   110.69755363   308.48878236
 H      5   4   3     1.086383333032   111.00989588   187.65371764
 H      5   4   3     1.090910369773   110.48956690    67.45794356

---------------------------
INTERNAL COORDINATES (A.U.)
---------------------------
 C      0   0   0     0.000000000000     0.00000000     0.00000000
 C      1   0   0     2.880085650074     0.00000000     0.00000000
 C      2   1   0     2.833711694653   112.20976113     0.00000000
 C      3   2   1     2.502974579814   124.48232186   195.76305174
 C      4   3   2     2.829607122172   124.09828647     0.23778750
 H      1   2   3     2.055857201045   110.62478284   179.81134770
 H      1   2   3     2.056037545292   110.41254002    59.84141173
 H      1   2   3     2.056068566499   110.59188526   299.86002652
 H      2   1   3     2.070529145604   109.32635798   121.14938498
 H      2   1   3     2.066043111156   109.60931841   238.08352301
 H      3   2   1     2.043524124742   115.78923898    16.34599704
 H      4   3   2     2.043020911863   119.55588422   179.95368096
 H      5   4   3     2.058696479256   110.69755363   308.48878236
 H      5   4   3     2.052966975886   111.00989588   187.65371764
 H      5   4   3     2.061521835525   110.48956690    67.45794356

---------------------
BASIS SET INFORMATION
---------------------
There are 2 groups of distinct atoms

 Group   1 Type C   : 11s6p1d contracted to 5s3p1d pattern {62111/411/1}
 Group   2 Type H   : 4s1p contracted to 2s1p pattern {31/1}

Atom   0C    basis set group =>   1
Atom   1C    basis set group =>   1
Atom   2C    basis set group =>   1
Atom   3C    basis set group =>   1
Atom   4C    basis set group =>   1
Atom   5H    basis set group =>   2
Atom   6H    basis set group =>   2
Atom   7H    basis set group =>   2
Atom   8H    basis set group =>   2
Atom   9H    basis set group =>   2
Atom  10H    basis set group =>   2
Atom  11H    basis set group =>   2
Atom  12H    basis set group =>   2
Atom  13H    basis set group =>   2
Atom  14H    basis set group =>   2
---------------------------------
AUXILIARY/J BASIS SET INFORMATION
---------------------------------
There are 2 groups of distinct atoms

 Group   1 Type C   : 12s5p4d2f1g contracted to 6s4p3d1f1g pattern {711111/2111/211/2/1}
 Group   2 Type H   : 5s2p1d contracted to 3s1p1d pattern {311/2/1}

Atom   0C    basis set group =>   1
Atom   1C    basis set group =>   1
Atom   2C    basis set group =>   1
Atom   3C    basis set group =>   1
Atom   4C    basis set group =>   1
Atom   5H    basis set group =>   2
Atom   6H    basis set group =>   2
Atom   7H    basis set group =>   2
Atom   8H    basis set group =>   2
Atom   9H    basis set group =>   2
Atom  10H    basis set group =>   2
Atom  11H    basis set group =>   2
Atom  12H    basis set group =>   2
Atom  13H    basis set group =>   2
Atom  14H    basis set group =>   2

Checking for AutoStart:
The File: sp.gbw exists
Trying to determine its content:
     ... Fine, the file contains calculation information
     ... Fine, the calculation information was read
     ... Fine, the file contains a basis set
     ... Fine, the basis set was read
     ... Fine, the file contains a geometry
     ... Fine, the geometry was read
     ... Fine, the file contains a set of orbitals
     ... Fine, the orbitals can be read
     => possible old guess file was deleted
     => GBW file was renamed to GES file
     => GES file is set as startup file
     => Guess is set to MORead
     ... now leaving AutoStart

------------------------------------------------------------------------------
                             ORCA STARTUP CALCULATIONS
                           -- RI-GTO INTEGRALS CHOSEN --
------------------------------------------------------------------------------
------------------------------------------------------------------------------
                   ___                                                        
                  /   \      - P O W E R E D   B Y -                         
                 /     \                                                     
                 |  |  |   _    _      __       _____    __    __             
                 |  |  |  | |  | |    /  \     |  _  \  |  |  /  |          
                  \  \/   | |  | |   /    \    | | | |  |  | /  /          
                 / \  \   | |__| |  /  /\  \   | |_| |  |  |/  /          
                |  |  |   |  __  | /  /__\  \  |    /   |      \           
                |  |  |   | |  | | |   __   |  |    \   |  |\   \          
                \     /   | |  | | |  |  |  |  | |\  \  |  | \   \       
                 \___/    |_|  |_| |__|  |__|  |_| \__\ |__|  \__/        
                                                                              
                      - O R C A' S   B I G   F R I E N D -                    
                                      &                                       
                       - I N T E G R A L  F E E D E R -                       
                                                                              
 v1 FN, 2020, v2 2021, v3 2022-2024                                           
------------------------------------------------------------------------------


----------------------
SHARK INTEGRAL PACKAGE
----------------------

Number of atoms                             ...     15
Number of basis functions                   ...    145
Number of shells                            ...     75
Maximum angular momentum                    ...      2
Integral batch strategy                     ... SHARK/LIBINT Hybrid
RI-J (if used) integral strategy            ... SPLIT-RIJ (Revised 2003 algorithm where possible)
Printlevel                                  ...      1
Contraction scheme used                     ... SEGMENTED contraction
Prescreening option                         ... SCHWARTZ
   Thresh                                   ... 1.000e-10
   Tcut                                     ... 1.000e-11
   Tpresel                                  ... 1.000e-11 
Coulomb Range Separation                    ... NOT USED
Exchange Range Separation                   ... NOT USED
Multipole approximations                    ... NOT USED
Finite Nucleus Model                        ... NOT USED
CABS basis                                  ... NOT available
Auxiliary Coulomb fitting basis             ... AVAILABLE
   # of basis functions in Aux-J            ...    355
   # of shells in Aux-J                     ...    125
   Maximum angular momentum in Aux-J        ...      4
Auxiliary J/K fitting basis                 ... NOT available
Auxiliary Correlation fitting basis         ... NOT available
Auxiliary 'external' fitting basis          ... NOT available

Checking pre-screening integrals            ... done (  0.0 sec) Dimension = 75
Check shell pair data                       ... done (  0.0 sec)
Shell pair information
Shell pair cut-off parameter TPreSel        ...   1.0e-11
Total number of shell pairs                 ...      2850
Shell pairs after pre-screening             ...      2655
Total number of primitive shell pairs       ...     10010
Primitive shell pairs kept                  ...      7060
          la=0 lb=0:    962 shell pairs
          la=1 lb=0:   1046 shell pairs
          la=1 lb=1:    302 shell pairs
          la=2 lb=0:    213 shell pairs
          la=2 lb=1:    117 shell pairs
          la=2 lb=2:     15 shell pairs

Calculating one electron integrals          ... done (  0.0 sec)
Calculating RI/J V-Matrix + Cholesky decomp.... done (  0.0 sec)
Calculating Nuclear repulsion               ... done (  0.0 sec) ENN=    172.279131714712 Eh

Diagonalization of the overlap matrix:
Smallest eigenvalue                        ... 1.601e-04
Time for diagonalization                   ...    0.002 sec
Threshold for overlap eigenvalues          ... 1.000e-07
Number of eigenvalues below threshold      ... 0
Time for construction of square roots      ...    0.004 sec
Total time needed                          ...    0.008 sec

-------------------
DFT GRID GENERATION
-------------------

General Integration Accuracy     IntAcc      ... 4.388
Radial Grid Type                 RadialGrid  ... OptM3 with GC (2021)
Angular Grid (max. ang.)         AngularGrid ... 4 (Lebedev-302)
Angular grid pruning method      GridPruning ... 4 (adaptive)
Weight generation scheme         WeightScheme... mBecke (2022)
Basis function cutoff            BFCut       ... 1.0000e-10
Integration weight cutoff        WCut        ... 1.0000e-14
Partially contracted basis set               ... off
Rotationally invariant grid construction     ... off
Angular grids for H and He will be reduced by one unit

Total number of grid points                  ...    62378
Total number of batches                      ...      981
Average number of points per batch           ...       63
Average number of grid points per atom       ...     4159
Initializing property integral containers    ... done (  0.0 sec)

SHARK setup successfully completed in   0.5 seconds

Maximum memory used throughout the entire STARTUP-calculation: 26.1 MB
-------------------------------------------------------------------------------
                                 ORCA GUESS
                   Start orbitals & Density for SCF / CASSCF
-------------------------------------------------------------------------------

------------
SCF SETTINGS
------------
Hamiltonian:
 Density Functional     Method          .... DFT(GTOs)
  Functional kind                       .... Exchange
  Functional name                       .... Re-regularized SCAN exchange by Furness et al
  Functional family                     .... MGGA
  Functional refs                              
    [ 0] J. W. Furness, A. D. Kaplan, J. Ning, J. P. Perdew, and J. Sun.,  J. Phys. Chem. Lett. 11, 8208-8215 (2020), doi: 10.1021/acs.jpclett.0c02405
    [ 1] J. W. Furness, A. D. Kaplan, J. Ning, J. P. Perdew, and J. Sun.,  J. Phys. Chem. Lett. 11, 9248-9248 (2020), doi: 10.1021/acs.jpclett.0c03077
  Functional external parameters        .... 6
    Parameter  0 _c1        =  6.670000e-01 : c1 parameter        
    Parameter  1 _c2        =  8.000000e-01 : c2 parameter        
    Parameter  2 _d         =  1.240000e+00 : d parameter         
    Parameter  3 _k1        =  6.500000e-02 : k1 parameter        
    Parameter  4 _eta       =  1.000000e-03 : eta parameter       
    Parameter  5 _dp2       =  3.610000e-01 : dp2 parameter       
  Functional kind                       .... Correlation
  Functional name                       .... Re-regularized SCAN correlation by Furness et al
  Functional family                     .... MGGA
  Functional refs                              
    [ 0] J. W. Furness, A. D. Kaplan, J. Ning, J. P. Perdew, and J. Sun.,  J. Phys. Chem. Lett. 11, 8208-8215 (2020), doi: 10.1021/acs.jpclett.0c02405
    [ 1] J. W. Furness, A. D. Kaplan, J. Ning, J. P. Perdew, and J. Sun.,  J. Phys. Chem. Lett. 11, 9248-9248 (2020), doi: 10.1021/acs.jpclett.0c03077
  Functional external parameters        .... 1
    Parameter  0 _eta       =  1.000000e-03 : Regularization parameter
 Gradients option       PostSCFGGA      .... off
 RI-approximation to the Coulomb term is turned on
   Number of AuxJ basis functions       .... 355


General Settings:
 Integral files         IntName         .... sp
 Hartree-Fock type      HFTyp           .... RHF
 Total Charge           Charge          ....    0
 Multiplicity           Mult            ....    1
 Number of Electrons    NEL             ....   40
 Basis Dimension        Dim             ....  145
 Nuclear Repulsion      ENuc            ....    172.2791317147 Eh

Convergence Acceleration:
 AO-DIIS                CNVDIIS         .... on
   Start iteration      DIISMaxIt       ....    12
   Startup error        DIISStart       ....  0.200000
   # of expansion vecs  DIISMaxEq       ....     5
   Bias factor          DIISBfac        ....   1.050
   Max. coefficient     DIISMaxC        ....  10.000
 MO-DIIS                CNVKDIIS        .... off
 Trust-Rad. Augm. Hess. CNVTRAH         .... auto
   Auto Start mean grad. ratio tolernc. ....  1.125000
   Auto Start start iteration           ....     1
   Auto Start num. interpolation iter.  ....    10
   Max. Number of Micro iterations      ....    24
   Max. Number of Macro iterations      .... Maxiter - #DIIS iter
   Number of Davidson start vectors     ....     2
   Converg. threshold    (grad. norm)   ....   3.330e-04
   Grad. Scal. Fac. for Micro threshold ....   0.100
   Minimum threshold for Micro iter.    ....   1.000e-02
   NR start threshold (gradient norm)   ....   1.000e-04
   Initial trust radius                 ....   0.400
   Minimum AH scaling param. (alpha)    ....   1.000
   Maximum AH scaling param. (alpha)    .... 1000.000
   Quad. conv. algorithm                .... NR
   White noise on init. David. guess    .... on
   Maximum white noise                  ....   0.010
   Pseudo random numbers                .... off
   Inactive MOs                         .... canonical
   Orbital update algorithm             .... Taylor
   Preconditioner                       .... Diag
   Full preconditioner red. dimension   ....   250
   COSX micro iterations for RIJONX calc.... off
 SOSCF                  CNVSOSCF        .... on
   Start iteration      SOSCFMaxIt      ....   150
   Startup grad/error   SOSCFStart      ....  0.003300
   Hessian update       SOSCFHessUp     .... L-BFGS
 Level Shifting         CNVShift        .... on
   Level shift para.    LevelShift      ....    0.2500
   Turn off err/grad.   ShiftErr        ....    0.0010
 Zerner damping         CNVZerner       .... off
 Static damping         CNVDamp         .... on
   Fraction old density DampFac         ....    0.7000
   Max. Damping (<1)    DampMax         ....    0.9800
   Min. Damping (>=0)   DampMin         ....    0.0000
   Turn off err/grad.   DampErr         ....    0.1000

SCF Procedure:
 Maximum # iterations   MaxIter         ....   125
 SCF integral mode      SCFMode         .... Direct
   Integral package                     .... SHARK and LIBINT hybrid scheme
 Reset frequency        DirectResetFreq ....    20
 Integral Threshold     Thresh          ....  1.000e-10 Eh
 Primitive CutOff       TCut            ....  1.000e-11 Eh

Convergence Tolerance:
 Convergence Check Mode ConvCheckMode   .... Total+1el-Energy
 Convergence forced     ConvForced      .... 0
 Energy Change          TolE            ....  1.000e-06 Eh
 1-El. energy change                    ....  1.000e-03 Eh
 Orbital Gradient       TolG            ....  3.330e-04
 Orbital Rotation angle TolX            ....  3.330e-04
 DIIS Error             TolErr          ....  1.000e-06

---------------------
INITIAL GUESS: MOREAD
---------------------
Guess MOs are being read from file: sp.ges
Input Geometry matches current geometry (good)
Atom 0: N(Shells)= 9 and 6 - projection required
Input basis set needs projection
NBasis(read)= 90
NBasis(calc)= 145
Basis set overlap was calculated
Using GuessMode=FMatrix for the initial guess
C*T matrix was formed
Effective Fockian was calculated
Effective Fockian was diagonalized
Initial density was built
                      ------------------
                      INITIAL GUESS DONE (   0.0 sec)
                      ------------------
             **** ENERGY FILE WAS UPDATED (sp.en.tmp) ****
Finished Guess after   0.1 sec
Maximum memory used throughout the entire GUESS-calculation: 10.4 MB

-------------------------------------------------------------------------------------------
                                      ORCA LEAN-SCF
                              memory conserving SCF solver
-------------------------------------------------------------------------------------------

----------------------------------------D-I-I-S--------------------------------------------
Iteration    Energy (Eh)           Delta-E    RMSDP     MaxDP     DIISErr   Damp  Time(sec)
-------------------------------------------------------------------------------------------
               ***  Starting incremental Fock matrix formation  ***
    1    -196.3607764182913229     0.00e+00  4.12e-03  1.03e-01  2.80e-01  0.700   0.9
    2    -196.3905844415158413    -2.98e-02  3.34e-03  7.09e-02  1.97e-01  0.700   0.8
                               ***Turning on AO-DIIS***
    3    -196.4117069124443447    -2.11e-02  2.48e-03  5.21e-02  1.38e-01  0.700   0.8
    4    -196.4265469066426704    -1.48e-02  1.78e-03  3.70e-02  9.65e-02  0.700   0.8
    5    -196.4369610784106044    -1.04e-02  4.22e-03  8.67e-02  6.75e-02  0.000   0.8
                              *** Initializing SOSCF ***
---------------------------------------S-O-S-C-F--------------------------------------
Iteration    Energy (Eh)           Delta-E    RMSDP     MaxDP     MaxGrad    Time(sec)
--------------------------------------------------------------------------------------
    6    -196.4613551550363013    -2.44e-02  5.95e-05  1.21e-03  2.35e-04     0.8
               *** Restarting incremental Fock matrix formation ***
    7    -196.4613557662704579    -6.11e-07  2.25e-05  3.83e-04  5.99e-05     0.9
                  *** Gradient check signals convergence ***

               *****************************************************
               *                     SUCCESS                       *
               *           SCF CONVERGED AFTER   7 CYCLES          *
               *****************************************************

             **** ENERGY FILE WAS UPDATED (sp.en.tmp) ****

----------------
TOTAL SCF ENERGY
----------------

Total Energy       :       -196.46135576627046 Eh           -5345.98528 eV

Components:
Nuclear Repulsion  :        172.27913171471221 Eh            4687.95350 eV
Electronic Energy  :       -368.74048748098267 Eh          -10033.93878 eV
One Electron Energy:       -603.75230803658280 Eh          -16428.93553 eV
Two Electron Energy:        235.01182055560014 Eh            6394.99675 eV

Virial components:
Potential Energy   :       -392.03888864147461 Eh          -10667.92051 eV
Kinetic Energy     :        195.57753287520418 Eh            5321.93523 eV
Virial Ratio       :          2.00451904100677

DFT components:
N(Alpha)           :       19.999976649245 electrons
N(Beta)            :       19.999976649245 electrons
N(Total)           :       39.999953298489 electrons
E(X)               :      -29.563661786922 Eh       
E(C)               :       -1.224715125734 Eh       
E(XC)              :      -30.788376912656 Eh       

---------------
SCF CONVERGENCE
---------------

  Last Energy change         ...    6.1123e-07  Tolerance :   1.0000e-06
  Last MAX-Density change    ...    3.8265e-04  Tolerance :   1.0000e-05
  Last RMS-Density change    ...    2.2473e-05  Tolerance :   1.0000e-06
  Last DIIS Error            ...    2.3479e-04  Tolerance :   1.0000e-06
  Last Orbital Gradient      ...    5.9944e-05  Tolerance :   3.3300e-04
  Last Orbital Rotation      ...    1.3657e-04  Tolerance :   3.3300e-04


----------------
ORBITAL ENERGIES
----------------

  NO   OCC          E(Eh)            E(eV) 
   0   2.0000     -10.028356      -272.8854 
   1   2.0000     -10.021743      -272.7055 
   2   2.0000     -10.021567      -272.7007 
   3   2.0000     -10.018586      -272.6196 
   4   2.0000     -10.017888      -272.6006 
   5   2.0000      -0.772991       -21.0341 
   6   2.0000      -0.718106       -19.5407 
   7   2.0000      -0.645914       -17.5762 
   8   2.0000      -0.581589       -15.8258 
   9   2.0000      -0.495731       -13.4895 
  10   2.0000      -0.439170       -11.9504 
  11   2.0000      -0.415997       -11.3199 
  12   2.0000      -0.397501       -10.8166 
  13   2.0000      -0.379142       -10.3170 
  14   2.0000      -0.348798        -9.4913 
  15   2.0000      -0.338699        -9.2165 
  16   2.0000      -0.323030        -8.7901 
  17   2.0000      -0.315391        -8.5822 
  18   2.0000      -0.291467        -7.9312 
  19   2.0000      -0.216534        -5.8922 
  20   0.0000      -0.006135        -0.1669 
  21   0.0000       0.095173         2.5898 
  22   0.0000       0.110999         3.0204 
  23   0.0000       0.129695         3.5292 
  24   0.0000       0.143223         3.8973 
  25   0.0000       0.152249         4.1429 
  26   0.0000       0.155468         4.2305 
  27   0.0000       0.163148         4.4395 
  28   0.0000       0.176421         4.8007 
  29   0.0000       0.188480         5.1288 
  30   0.0000       0.200098         5.4449 
*Only the first 10 virtual orbitals were printed.

                    ********************************
                    * MULLIKEN POPULATION ANALYSIS *
                    ********************************

-----------------------
MULLIKEN ATOMIC CHARGES
-----------------------
   0 C :   -0.481878
   1 C :   -0.229947
   2 C :   -0.169163
   3 C :   -0.139019
   4 C :   -0.485113
   5 H :    0.144382
   6 H :    0.151231
   7 H :    0.142155
   8 H :    0.156081
   9 H :    0.143069
  10 H :    0.150679
  11 H :    0.152797
  12 H :    0.154325
  13 H :    0.146172
  14 H :    0.164228
Sum of atomic charges:   -0.0000000

--------------------------------
MULLIKEN REDUCED ORBITAL CHARGES
--------------------------------
  0 C s       :     3.332258  s :     3.332258
      pz      :     1.077368  p :     3.122539
      px      :     0.959247
      py      :     1.085924
      dz2     :     0.007164  d :     0.027081
      dxz     :     0.003909
      dyz     :     0.003388
      dx2y2   :     0.005117
      dxy     :     0.007502

  1 C s       :     3.200656  s :     3.200656
      pz      :     1.072010  p :     2.991682
      px      :     0.926206
      py      :     0.993466
      dz2     :     0.008555  d :     0.037608
      dxz     :     0.005466
      dyz     :     0.005453
      dx2y2   :     0.008282
      dxy     :     0.009852

  2 C s       :     3.201420  s :     3.201420
      pz      :     0.997135  p :     2.930988
      px      :     0.951274
      py      :     0.982580
      dz2     :     0.003294  d :     0.036754
      dxz     :     0.007212
      dyz     :     0.002237
      dx2y2   :     0.010695
      dxy     :     0.013316

  3 C s       :     3.173140  s :     3.173140
      pz      :     1.006712  p :     2.928916
      px      :     0.976191
      py      :     0.946013
      dz2     :     0.002911  d :     0.036963
      dxz     :     0.006756
      dyz     :     0.003113
      dx2y2   :     0.010372
      dxy     :     0.013812

  4 C s       :     3.319477  s :     3.319477
      pz      :     1.081183  p :     3.138290
      px      :     1.077566
      py      :     0.979541
      dz2     :     0.004885  d :     0.027346
      dxz     :     0.002013
      dyz     :     0.007997
      dx2y2   :     0.007234
      dxy     :     0.005217

  5 H s       :     0.837364  s :     0.837364
      pz      :     0.004044  p :     0.018254
      px      :     0.006298
      py      :     0.007912

  6 H s       :     0.830575  s :     0.830575
      pz      :     0.010649  p :     0.018194
      px      :     0.003586
      py      :     0.003959

  7 H s       :     0.839606  s :     0.839606
      pz      :     0.005405  p :     0.018239
      px      :     0.004444
      py      :     0.008390

  8 H s       :     0.825941  s :     0.825941
      pz      :     0.010584  p :     0.017978
      px      :     0.003516
      py      :     0.003879

  9 H s       :     0.838864  s :     0.838864
      pz      :     0.005220  p :     0.018067
      px      :     0.004159
      py      :     0.008687

 10 H s       :     0.829690  s :     0.829690
      pz      :     0.004692  p :     0.019631
      px      :     0.004767
      py      :     0.010171

 11 H s       :     0.827658  s :     0.827658
      pz      :     0.004829  p :     0.019545
      px      :     0.005643
      py      :     0.009073

 12 H s       :     0.827304  s :     0.827304
      pz      :     0.009183  p :     0.018370
      px      :     0.004194
      py      :     0.004993

 13 H s       :     0.835533  s :     0.835533
      pz      :     0.003765  p :     0.018295
      px      :     0.010880
      py      :     0.003649

 14 H s       :     0.817387  s :     0.817387
      pz      :     0.007508  p :     0.018385
      px      :     0.003927
      py      :     0.006950


------------------------
MULLIKEN OVERLAP CHARGES
------------------------
B(  0-C ,  1-C ) :   0.4803 B(  0-C ,  2-C ) :  -0.1123 B(  0-C ,  5-H ) :   0.8164 
B(  0-C ,  6-H ) :   0.8735 B(  0-C ,  7-H ) :   0.8220 B(  0-C ,  9-H ) :  -0.0817 
B(  1-C ,  2-C ) :   0.4955 B(  1-C ,  3-C ) :  -0.1397 B(  1-C ,  5-H ) :  -0.0875 
B(  1-C ,  6-H ) :  -0.1052 B(  1-C ,  7-H ) :  -0.0663 B(  1-C ,  8-H ) :   0.8547 
B(  1-C ,  9-H ) :   0.8853 B(  1-C , 10-H ) :  -0.0908 B(  2-C ,  3-C ) :   1.2093 
B(  2-C ,  4-C ) :  -0.1636 B(  2-C ,  8-H ) :  -0.0963 B(  2-C ,  9-H ) :  -0.1152 
B(  2-C , 10-H ) :   0.8228 B(  2-C , 11-H ) :  -0.0562 B(  3-C ,  4-C ) :   0.4827 
B(  3-C , 11-H ) :   0.8185 B(  3-C , 12-H ) :  -0.1151 B(  3-C , 13-H ) :  -0.0679 
B(  3-C , 14-H ) :  -0.0986 B(  4-C , 11-H ) :  -0.0622 B(  4-C , 12-H ) :   0.8527 
B(  4-C , 13-H ) :   0.8032 B(  4-C , 14-H ) :   0.8671 B(  6-H ,  7-H ) :  -0.0506 
B(  8-H ,  9-H ) :  -0.0531 B( 12-H , 14-H ) :  -0.0528 


                     *******************************
                     * LOEWDIN POPULATION ANALYSIS *
                     *******************************

----------------------
LOEWDIN ATOMIC CHARGES
----------------------
   0 C :   -0.421653
   1 C :   -0.309294
   2 C :   -0.212666
   3 C :   -0.214280
   4 C :   -0.419422
   5 H :    0.150186
   6 H :    0.152388
   7 H :    0.150853
   8 H :    0.162250
   9 H :    0.159355
  10 H :    0.164135
  11 H :    0.160326
  12 H :    0.160467
  13 H :    0.155192
  14 H :    0.162164

-------------------------------
LOEWDIN REDUCED ORBITAL CHARGES
-------------------------------
  0 C s       :     2.973832  s :     2.973832
      pz      :     1.153059  p :     3.384550
      px      :     1.076758
      py      :     1.154733
      dz2     :     0.017602  d :     0.063270
      dxz     :     0.008026
      dyz     :     0.008565
      dx2y2   :     0.011839
      dxy     :     0.017238

  1 C s       :     2.928284  s :     2.928284
      pz      :     1.133949  p :     3.300223
      px      :     1.056308
      py      :     1.109966
      dz2     :     0.020017  d :     0.080787
      dxz     :     0.010021
      dyz     :     0.012324
      dx2y2   :     0.017913
      dxy     :     0.020513

  2 C s       :     2.929518  s :     2.929518
      pz      :     1.000962  p :     3.203081
      px      :     1.118407
      py      :     1.083713
      dz2     :     0.005816  d :     0.080067
      dxz     :     0.013116
      dyz     :     0.003969
      dx2y2   :     0.025714
      dxy     :     0.031451

  3 C s       :     2.929987  s :     2.929987
      pz      :     0.999578  p :     3.204204
      px      :     1.124404
      py      :     1.080222
      dz2     :     0.005074  d :     0.080089
      dxz     :     0.012359
      dyz     :     0.005447
      dx2y2   :     0.024628
      dxy     :     0.032582

  4 C s       :     2.962453  s :     2.962453
      pz      :     1.151503  p :     3.393466
      px      :     1.134825
      py      :     1.107139
      dz2     :     0.012004  d :     0.063502
      dxz     :     0.004041
      dyz     :     0.019202
      dx2y2   :     0.016872
      dxy     :     0.011384

  5 H s       :     0.806541  s :     0.806541
      pz      :     0.009017  p :     0.043274
      px      :     0.014847
      py      :     0.019409

  6 H s       :     0.804270  s :     0.804270
      pz      :     0.026677  p :     0.043342
      px      :     0.007933
      py      :     0.008732

  7 H s       :     0.805837  s :     0.805837
      pz      :     0.012723  p :     0.043311
      px      :     0.010055
      py      :     0.020533

  8 H s       :     0.794503  s :     0.794503
      pz      :     0.026235  p :     0.043247
      px      :     0.008101
      py      :     0.008912

  9 H s       :     0.797494  s :     0.797494
      pz      :     0.012501  p :     0.043151
      px      :     0.009707
      py      :     0.020942

 10 H s       :     0.790541  s :     0.790541
      pz      :     0.010464  p :     0.045324
      px      :     0.010518
      py      :     0.024343

 11 H s       :     0.794413  s :     0.794413
      pz      :     0.010804  p :     0.045261
      px      :     0.012824
      py      :     0.021633

 12 H s       :     0.795973  s :     0.795973
      pz      :     0.022688  p :     0.043560
      px      :     0.009488
      py      :     0.011384

 13 H s       :     0.801625  s :     0.801625
      pz      :     0.008128  p :     0.043182
      px      :     0.026683
      py      :     0.008372

 14 H s       :     0.794220  s :     0.794220
      pz      :     0.018357  p :     0.043616
      px      :     0.008684
      py      :     0.016575


---------------------------------
LOEWDIN BOND ORDERS (THRESH 0.050000)
---------------------------------
B(  0-C ,  1-C ) :   1.1423 B(  0-C ,  2-C ) :   0.0786 B(  0-C ,  5-H ) :   0.9312 
B(  0-C ,  6-H ) :   0.9299 B(  0-C ,  7-H ) :   0.9290 B(  1-C ,  2-C ) :   1.1055 
B(  1-C ,  3-C ) :   0.0922 B(  1-C ,  8-H ) :   0.8819 B(  1-C ,  9-H ) :   0.8848 
B(  2-C ,  3-C ) :   2.0064 B(  2-C ,  4-C ) :   0.0921 B(  2-C , 10-H ) :   0.8717 
B(  2-C , 11-H ) :   0.0677 B(  3-C ,  4-C ) :   1.1460 B(  3-C , 10-H ) :   0.0653 
B(  3-C , 11-H ) :   0.8802 B(  4-C , 12-H ) :   0.9171 B(  4-C , 13-H ) :   0.9295 
B(  4-C , 14-H ) :   0.9153 

------------------------------------------
LOEWDIN REDUCED ORBITAL POPULATIONS PER MO
-------------------------------------------
THRESHOLD FOR PRINTING IS 0.1%%
                      0         1         2         3         4         5   
                 -10.02836 -10.02174 -10.02157 -10.01859 -10.01789  -0.77299
                   2.00000   2.00000   2.00000   2.00000   2.00000   2.00000
                  --------  --------  --------  --------  --------  --------
 0 C  s               0.0       0.0       0.0       0.0      99.7       6.8
 0 C  px              0.1       0.0       0.0       0.0       0.0       2.0
 1 C  s              99.7       0.0       0.0       0.0       0.0      17.5
 1 C  pz              0.0       0.0       0.0       0.0       0.0       0.2
 1 C  px              0.0       0.0       0.0       0.0       0.1       0.3
 1 C  py              0.0       0.0       0.0       0.0       0.0       1.3
 2 C  s               0.0       1.0       0.7      98.0       0.0      22.3
 2 C  px              0.0       0.1       0.1       0.0       0.0       0.4
 2 C  py              0.1       0.0       0.0       0.0       0.0       1.5
 2 C  dz2             0.0       0.0       0.0       0.0       0.0       0.2
 3 C  s               0.0      58.9      39.0       1.7       0.0      18.0
 3 C  px              0.0       0.0       0.0       0.2       0.0       2.0
 3 C  py              0.0       0.0       0.0       0.0       0.0       0.5
 3 C  dz2             0.0       0.0       0.0       0.0       0.0       0.1
 4 C  s               0.0      39.8      60.0       0.0       0.0       7.8
 4 C  px              0.0       0.0       0.0       0.0       0.0       1.0
 4 C  py              0.0       0.0       0.0       0.0       0.0       1.2
 5 H  s               0.0       0.0       0.0       0.0       0.0       0.9
 6 H  s               0.0       0.0       0.0       0.0       0.0       0.9
 7 H  s               0.0       0.0       0.0       0.0       0.0       0.9
 8 H  s               0.0       0.0       0.0       0.0       0.0       2.2
 8 H  pz              0.0       0.0       0.0       0.0       0.0       0.2
 9 H  s               0.0       0.0       0.0       0.0       0.0       2.3
 9 H  py              0.0       0.0       0.0       0.0       0.0       0.1
10 H  s               0.0       0.0       0.0       0.0       0.0       2.7
10 H  py              0.0       0.0       0.0       0.0       0.0       0.2
11 H  s               0.0       0.0       0.0       0.0       0.0       2.1
12 H  s               0.0       0.0       0.0       0.0       0.0       1.1
13 H  s               0.0       0.0       0.0       0.0       0.0       1.0
14 H  s               0.0       0.0       0.0       0.0       0.0       1.0

                      6         7         8         9        10        11   
                  -0.71811  -0.64591  -0.58159  -0.49573  -0.43917  -0.41600
                   2.00000   2.00000   2.00000   2.00000   2.00000   2.00000
                  --------  --------  --------  --------  --------  --------
 0 C  s              17.6      10.3      12.7       0.1       0.4       0.0
 0 C  pz              0.1       0.0       0.5       0.5       2.2      19.1
 0 C  px              1.0       0.5       6.2       0.2       4.2       3.8
 0 C  py              0.1       0.0       0.5       3.7       0.8       1.4
 1 C  s              12.6       0.0      12.1       2.5       0.8       0.1
 1 C  pz              0.1       0.0       0.8       1.1       2.0      29.3
 1 C  px              4.0       5.5       4.9       0.3       3.3       0.1
 1 C  py              0.0       1.1       1.3      12.3       1.9       1.6
 1 C  dxy             0.0       0.1       0.0       0.1       0.0       0.0
 2 C  s               0.2      13.6       0.2       7.8       0.2       0.0
 2 C  pz              0.1       0.0       0.7       0.1       0.0       5.3
 2 C  px              9.1       0.5       6.0       8.5       8.5       1.2
 2 C  py              0.7       0.5       5.4       3.9       8.8       0.0
 2 C  dx2y2           0.1       0.0       0.2       0.1       0.0       0.0
 3 C  s              11.9       1.0       6.5       7.7       0.3       0.0
 3 C  pz              0.0       0.1       0.2       0.1       0.5       2.4
 3 C  px              1.0      11.1       0.2       5.1      14.7       1.2
 3 C  py              1.0       5.1       3.5       0.9      10.3       0.3
 3 C  dx2y2           0.0       0.3       0.0       0.0       0.0       0.0
 4 C  s              15.0      20.3       1.9       2.3       0.1       0.0
 4 C  pz              0.0       0.0       0.1       0.3       0.1       3.3
 4 C  px              0.2       0.6       0.1       1.2      12.4       1.0
 4 C  py              0.7       0.7       2.2       8.1       2.6       0.0
 5 H  s               2.9       2.8       4.8       0.2       1.5       0.7
 5 H  px              0.1       0.1       0.1       0.0       0.0       0.0
 5 H  py              0.1       0.1       0.3       0.0       0.0       0.1
 6 H  s               2.9       2.4       4.9       0.4       1.4       4.8
 6 H  pz              0.2       0.2       0.4       0.0       0.0       0.1
 7 H  s               2.9       2.4       5.0       0.6       0.0       5.5
 7 H  pz              0.1       0.0       0.1       0.0       0.0       0.0
 7 H  py              0.2       0.1       0.2       0.0       0.0       0.2
 8 H  s               2.1       0.0       4.9       3.0       1.2       8.1
 8 H  pz              0.2       0.0       0.4       0.2       0.0       0.2
 9 H  s               1.9       0.0       5.0       3.8       0.7       5.8
 9 H  pz              0.0       0.0       0.1       0.1       0.0       0.0
 9 H  py              0.1       0.0       0.3       0.1       0.0       0.2
10 H  s               0.0       3.1       0.4       9.9       4.5       0.2
10 H  py              0.0       0.2       0.0       0.5       0.1       0.0
11 H  s               1.9       0.2       3.3       6.9       8.6       0.7
11 H  px              0.0       0.0       0.1       0.1       0.0       0.0
11 H  py              0.1       0.0       0.1       0.3       0.3       0.0
12 H  s               2.4       4.9       1.1       2.3       0.8       1.5
12 H  pz              0.2       0.3       0.1       0.1       0.1       0.0
13 H  s               2.6       5.6       0.6       1.3       5.1       0.4
13 H  px              0.2       0.4       0.0       0.1       0.2       0.0
14 H  s               2.5       5.0       1.0       2.2       0.5       0.5
14 H  pz              0.1       0.2       0.0       0.1       0.0       0.0
14 H  py              0.1       0.2       0.0       0.0       0.0       0.0

                     12        13        14        15        16        17   
                  -0.39750  -0.37914  -0.34880  -0.33870  -0.32303  -0.31539
                   2.00000   2.00000   2.00000   2.00000   2.00000   2.00000
                  --------  --------  --------  --------  --------  --------
 0 C  s               0.0       0.0       0.1       0.1       0.3       0.5
 0 C  pz              0.9       4.6       0.0       4.0      19.7       5.2
 0 C  px              1.0       0.1      10.5       2.0       4.8      16.6
 0 C  py             18.0       0.5       4.5      20.7       1.7       1.5
 0 C  dz2             0.0       0.0       0.0       0.2       0.3       0.1
 0 C  dxz             0.0       0.0       0.0       0.0       0.0       0.2
 0 C  dyz             0.1       0.0       0.0       0.0       0.1       0.1
 0 C  dx2y2           0.0       0.0       0.0       0.1       0.0       0.2
 0 C  dxy             0.0       0.0       0.2       0.2       0.2       0.0
 1 C  s               0.1       0.0       0.0       0.1       0.2       0.2
 1 C  pz              0.6       0.7       0.2       1.3      12.6       3.6
 1 C  px              1.2       0.1       7.1       6.5       4.2      12.9
 1 C  py             12.9       0.1       0.2       2.7       0.1       4.5
 1 C  dz2             0.0       0.0       0.0       0.1       0.3       0.0
 1 C  dxz             0.0       0.0       0.0       0.0       0.1       0.2
 1 C  dx2y2           0.0       0.0       0.0       0.1       0.1       0.4
 1 C  dxy             0.0       0.0       0.3       0.1       0.1       0.0
 2 C  s               0.3       0.0       1.6       0.2       0.2       0.2
 2 C  pz              0.7       0.8       0.5       0.1       2.7       1.1
 2 C  px              3.2       0.0       0.0       4.0       4.3       7.6
 2 C  py             11.2       0.0       3.4       0.8       1.7       0.5
 2 C  dx2y2           0.0       0.0       0.0       0.0       0.2       0.6
 2 C  dxy             0.0       0.0       0.0       0.2       0.0       0.0
 3 C  s               0.6       0.0       0.3       0.1       0.1       0.3
 3 C  pz              0.3       7.6       0.1       0.4       0.2       0.2
 3 C  px              5.0       0.1       0.6       2.0       4.9       7.0
 3 C  py              7.6       0.7       1.9       9.8       0.1       0.0
 3 C  dyz             0.0       0.1       0.0       0.0       0.0       0.0
 3 C  dx2y2           0.0       0.0       0.3       0.1       0.2       0.1
 3 C  dxy             0.0       0.0       0.0       0.2       0.0       0.0
 4 C  s               0.2       0.0       0.0       0.4       0.0       0.0
 4 C  pz              0.3      46.3       1.9       0.0       1.5       0.6
 4 C  px              2.0       0.6      22.3       7.3       4.9       3.0
 4 C  py             11.8       2.6       8.2       6.5       0.0       0.4
 4 C  dz2             0.1       0.0       0.3       0.0       0.0       0.0
 4 C  dxz             0.0       0.1       0.0       0.0       0.0       0.0
 4 C  dyz             0.0       0.3       0.0       0.0       0.0       0.0
 4 C  dx2y2           0.0       0.0       0.3       0.1       0.2       0.1
 4 C  dxy             0.1       0.0       0.0       0.1       0.0       0.0
 5 H  s               6.7       0.0       6.6       6.3       0.9       2.0
 5 H  pz              0.0       0.0       0.0       0.0       0.2       0.0
 5 H  px              0.1       0.0       0.0       0.2       0.0       0.1
 5 H  py              0.0       0.0       0.1       0.0       0.0       0.1
 6 H  s               1.1       1.7       0.0       4.8      10.7       3.1
 6 H  px              0.0       0.0       0.1       0.0       0.0       0.1
 7 H  s               2.7       1.3       0.3       5.6       4.9       7.1
 7 H  pz              0.1       0.0       0.0       0.2       0.0       0.0
 7 H  px              0.1       0.0       0.1       0.0       0.1       0.1
 8 H  s               0.7       0.2       0.0       2.1       7.9       1.5
 8 H  px              0.0       0.0       0.1       0.1       0.1       0.1
 9 H  s               2.0       0.1       0.0       2.0       1.3       9.8
10 H  s               3.0       0.0       0.3       2.3       2.2       3.9
10 H  px              0.2       0.0       0.0       0.0       0.0       0.0
11 H  s               0.0       0.0       2.4       1.9       0.7       1.3
12 H  s               1.4      11.6       7.7       0.0       0.0       0.6
12 H  pz              0.0       0.0       0.2       0.0       0.0       0.0
12 H  py              0.0       0.3       0.0       0.1       0.0       0.0
13 H  s               0.6       0.8      14.6       2.6       3.1       1.3
13 H  pz              0.0       0.3       0.0       0.0       0.0       0.0
13 H  px              0.0       0.0       0.2       0.0       0.0       0.0
13 H  py              0.1       0.0       0.0       0.1       0.0       0.0
14 H  s               1.8      17.4       1.8       0.4       1.2       0.2
14 H  pz              0.1       0.0       0.1       0.0       0.0       0.0
14 H  px              0.0       0.0       0.1       0.1       0.0       0.1
14 H  py              0.0       0.4       0.0       0.0       0.0       0.0

                     18        19        20        21        22        23   
                  -0.29147  -0.21653  -0.00613   0.09517   0.11100   0.12969
                   2.00000   2.00000   0.00000   0.00000   0.00000   0.00000
                  --------  --------  --------  --------  --------  --------
 0 C  s               0.1       0.1       0.2       4.0      23.7      10.7
 0 C  pz              0.6       0.1       0.2       0.3       0.1       0.1
 0 C  px              0.7       0.2       0.1       5.4       4.8       2.8
 0 C  py              4.3       0.0       0.1       0.1       1.2       2.5
 0 C  dxz             0.0       0.0       0.0       0.2       0.0       0.0
 0 C  dx2y2           0.0       0.0       0.0       0.4       0.0       0.1
 0 C  dxy             0.3       0.0       0.0       0.3       0.0       0.0
 1 C  s               0.4       0.0       0.0      15.9       3.2       0.2
 1 C  pz              1.4       2.8       0.2       0.6       0.5       0.0
 1 C  px              2.1       0.0       0.1       1.1      10.3       1.7
 1 C  py             15.2       0.2       0.0       3.3       1.2       1.5
 1 C  dz2             0.1       0.3       0.5       0.0       0.3       0.0
 1 C  dxz             0.0       0.1       0.2       0.0       0.2       0.0
 1 C  dyz             0.0       0.3       0.8       0.0       0.1       0.0
 1 C  dx2y2           0.0       0.0       0.0       0.0       1.4       0.2
 1 C  dxy             0.3       0.0       0.0       0.0       0.1       0.1
 2 C  s               0.2       0.0       0.0       6.6       0.9       2.6
 2 C  pz              0.8      36.9      37.4       0.1       0.3       0.9
 2 C  px              2.3       0.1       0.1       1.2       2.1       3.2
 2 C  py             14.1       1.9       2.0       1.4       0.8      11.5
 2 C  dz2             0.0       0.0       0.0       0.1       0.2       0.2
 2 C  dxz             0.1       0.5       1.0       0.1       0.0       0.0
 2 C  dyz             0.0       0.0       0.0       0.0       0.3       0.1
 2 C  dx2y2           0.0       0.0       0.0       0.0       0.9       0.1
 2 C  dxy             1.0       0.0       0.1       0.7       0.2       0.3
 3 C  s               0.1       0.0       0.0       6.6       4.3       0.7
 3 C  pz              0.7      37.0      37.6       0.1       0.2       0.2
 3 C  px              0.9       0.1       0.1       1.9       2.9       1.1
 3 C  py             10.3       2.1       2.1       1.3       3.5       4.1
 3 C  dz2             0.0       0.0       0.0       0.1       0.3       0.3
 3 C  dxz             0.1       0.4       1.1       0.0       0.0       0.1
 3 C  dyz             0.0       0.0       0.0       0.0       0.1       0.1
 3 C  dx2y2           0.0       0.0       0.0       0.0       0.1       0.4
 3 C  dxy             1.1       0.0       0.0       0.8       0.3       0.7
 4 C  s               0.4       0.0       0.0      18.9       1.2      10.2
 4 C  pz              0.5       2.6       0.2       0.0       0.3       0.1
 4 C  px              0.0       0.0       0.0       0.3       2.0       1.3
 4 C  py             10.2       0.1       0.0       0.7       0.7       5.1
 4 C  dz2             0.1       0.0       0.1       0.0       0.1       0.4
 4 C  dyz             0.0       0.5       1.4       0.0       0.0       0.0
 4 C  dx2y2           0.0       0.0       0.1       0.2       0.6       0.5
 4 C  dxy             0.1       0.0       0.0       0.0       0.2       0.0
 5 H  s               4.1       0.0       0.1       1.5       1.4       1.3
 5 H  pz              0.0       0.0       0.0       0.1       0.0       0.1
 5 H  px              0.0       0.0       0.0       0.0       0.6       0.0
 5 H  py              0.0       0.0       0.0       0.6       0.9       0.6
 6 H  s               0.9       0.2       0.1       0.7       1.8       1.5
 6 H  pz              0.0       0.0       0.0       0.3       1.4       0.8
 6 H  px              0.0       0.0       0.0       0.4       0.0       0.1
 7 H  s               1.0       0.2       0.1       0.7       2.5       2.5
 7 H  pz              0.0       0.0       0.0       0.2       0.5       0.4
 7 H  px              0.0       0.0       0.0       0.2       0.2       0.0
 7 H  py              0.0       0.0       0.0       0.2       0.9       1.0
 8 H  s               1.8       3.9       3.0       1.9       1.0       0.2
 8 H  pz              0.0       0.0       0.1       1.2       0.5       0.1
 8 H  px              0.0       0.0       0.0       0.0       0.5       0.0
 8 H  py              0.1       0.0       0.1       0.1       0.0       0.0
 9 H  s               2.8       2.3       1.6       1.9       2.1       1.0
 9 H  pz              0.1       0.0       0.0       0.3       0.7       0.1
 9 H  px              0.1       0.0       0.0       0.2       0.3       0.1
 9 H  py              0.0       0.0       0.1       1.0       0.5       0.2
10 H  s               7.0       0.0       0.0       0.9       3.8       5.2
10 H  pz              0.0       0.4       1.1       0.0       0.1       0.1
10 H  px              0.1       0.0       0.0       0.5       0.0       0.6
10 H  py              0.0       0.0       0.1       0.2       0.8       1.8
11 H  s               9.7       0.0       0.0       1.1       3.5       5.1
11 H  pz              0.0       0.4       1.2       0.0       0.0       0.1
11 H  px              0.0       0.0       0.0       0.5       0.4       0.1
11 H  py              0.0       0.0       0.1       0.2       1.1       1.1
12 H  s               1.8       2.5       2.4       2.4       0.2       2.3
12 H  pz              0.0       0.0       0.1       0.8       0.0       1.6
12 H  px              0.0       0.0       0.0       0.4       0.4       0.0
12 H  py              0.1       0.0       0.1       0.2       0.0       0.1
13 H  s               0.5       0.0       0.1       3.3       3.2       0.9
13 H  px              0.0       0.0       0.0       1.5       0.6       0.0
13 H  py              0.1       0.0       0.0       0.2       0.2       0.1
14 H  s               1.1       3.2       3.4       1.9       0.1       4.6
14 H  pz              0.1       0.0       0.0       0.6       0.0       1.4
14 H  px              0.0       0.0       0.0       0.2       0.1       0.0
14 H  py              0.0       0.0       0.1       0.4       0.0       0.6

                     24        25        26        27        28        29   
                   0.14322   0.15225   0.15547   0.16315   0.17642   0.18848
                   0.00000   0.00000   0.00000   0.00000   0.00000   0.00000
                  --------  --------  --------  --------  --------  --------
 0 C  s               0.1       2.4       0.7       0.6       0.4       0.3
 0 C  pz              0.6       5.6       2.2       1.0       3.0      13.4
 0 C  px              0.5      14.8       5.1       2.4      16.3       3.5
 0 C  py              5.2       1.1       4.2       0.8       8.6       1.4
 0 C  dz2             0.2       0.0       0.3       0.1       2.1       0.1
 0 C  dxz             0.0       0.9       0.1       0.0       0.1       0.0
 0 C  dyz             0.1       0.1       0.3       0.1       0.2       0.3
 0 C  dx2y2           0.1       0.6       0.2       0.0       0.6       0.4
 0 C  dxy             0.0       0.3       0.7       0.4       1.3       0.0
 1 C  s               1.9       6.4       2.6       0.1       3.1       1.1
 1 C  pz              1.2       9.4       7.6       6.4       1.0       1.9
 1 C  px              0.5       3.5       0.2       2.7       3.4       0.6
 1 C  py              4.4       0.7      11.8      14.3       6.8       3.7
 1 C  dz2             0.4       0.3       1.1       0.1       0.0       0.9
 1 C  dxz             0.0       0.3       0.2       0.0       0.2       0.0
 1 C  dyz             0.3       0.2       0.1       0.7       0.0       0.1
 1 C  dx2y2           0.0       0.1       0.2       0.2       0.1       0.1
 1 C  dxy             0.1       0.1       0.1       0.9       1.5       0.2
 2 C  s               0.8       0.2       2.4      13.8       3.4       1.4
 2 C  pz              0.1       1.7       2.5       0.9       0.2       4.5
 2 C  px              1.7       0.8       1.7       2.2       1.1       0.2
 2 C  py              2.6       0.4       1.1       7.3       2.2       0.5
 2 C  dz2             0.3       0.0       0.0       0.0       0.6       0.2
 2 C  dxz             0.1       0.1       0.0       0.1       0.0       0.1
 2 C  dyz             0.1       0.0       0.1       0.1       0.1       0.0
 2 C  dx2y2           0.0       0.0       0.2       0.1       0.2       0.0
 2 C  dxy             0.5       0.1       0.1       0.1       0.6       0.0
 3 C  s              12.7       0.9       3.9       1.5       0.0       1.9
 3 C  pz              0.6       1.4       0.5       0.2       0.2       0.6
 3 C  px              2.0       2.9       0.1       8.8       1.3       0.5
 3 C  py              5.0       1.8       0.0       1.3       1.5       2.3
 3 C  dz2             0.2       0.0       0.2       0.6       0.0       0.1
 3 C  dxz             0.1       0.0       0.0       0.1       0.0       0.1
 3 C  dyz             0.1       0.0       0.1       0.0       0.0       0.1
 3 C  dx2y2           0.1       0.0       0.0       0.1       0.2       0.7
 3 C  dxy             0.4       0.1       0.1       0.0       0.4       0.2
 4 C  s               2.5       6.5       3.1       0.2       0.3       0.0
 4 C  pz              1.5       3.2       2.0       2.8       1.2       2.1
 4 C  px              7.2       7.7       5.2       2.9       2.8       7.8
 4 C  py             22.7       0.2       3.3       3.1       1.7       9.6
 4 C  dz2             0.3       0.0       1.0       0.0       0.0       2.0
 4 C  dxz             0.0       0.1       0.1       0.2       0.0       0.4
 4 C  dyz             0.3       0.2       0.0       0.3       0.0       0.0
 4 C  dx2y2           0.5       0.0       0.1       0.1       0.2       0.5
 4 C  dxy             1.3       0.0       0.0       0.1       0.2       0.3
 5 H  s               0.9       0.8       0.7       0.7      12.8       0.7
 5 H  pz              0.0       0.0       0.2       0.0       0.0       0.2
 5 H  px              0.0       0.1       0.0       0.0       2.9       0.2
 5 H  py              0.1       0.1       0.1       0.2       1.1       0.1
 6 H  s               0.6       1.9       1.3       0.1       4.3       2.4
 6 H  pz              0.1       0.9       0.1       0.1       0.8       1.1
 6 H  px              0.0       0.7       0.0       0.1       0.0       0.0
 6 H  py              0.1       0.1       0.3       0.1       0.4       0.5
 7 H  s               0.0       0.6       3.7       0.1       2.8       0.3
 7 H  pz              0.2       0.0       0.2       0.1       1.2       0.1
 7 H  px              0.0       0.3       0.7       0.3       0.1       0.2
 7 H  py              0.2       0.0       0.6       0.1       0.0       0.0
 8 H  s               1.4       5.3       3.5       0.2       0.0       3.0
 8 H  pz              0.5       2.8       0.4       0.1       0.0       1.1
 8 H  px              0.0       0.5       0.1       0.1       0.2       0.0
 8 H  py              0.4       0.3       0.0       0.9       0.0       0.2
 9 H  s               2.8       0.8       6.2       2.2       0.2       2.0
 9 H  pz              1.1       0.0       0.0       0.5       0.1       0.6
 9 H  px              0.1       0.0       0.7       0.6       0.2       0.1
 9 H  py              0.1       0.0       3.1       0.0       0.0       0.0
10 H  s               3.8       0.2       0.1       2.2       0.8       0.2
10 H  px              0.9       0.0       0.0       0.1       0.0       0.1
10 H  py              0.1       0.0       0.3       2.2       0.3       0.0
11 H  s               0.9       0.8       1.2       2.8       0.7       1.4
11 H  px              0.0       0.3       0.0       0.8       0.7       0.0
11 H  py              1.2       0.2       0.0       0.3       0.0       0.1
12 H  s               0.5       0.6       5.6       1.5       1.2       8.1
12 H  pz              0.1       0.0       1.7       0.0       0.3       1.5
12 H  px              0.1       0.1       0.0       0.3       0.4       0.0
12 H  py              0.9       0.0       0.0       0.2       0.0       0.0
13 H  s               0.5       1.6       1.8       0.5       0.7       7.6
13 H  pz              0.0       0.2       0.1       0.3       0.0       0.3
13 H  px              0.1       1.1       0.0       0.2       0.0       2.2
13 H  py              0.9       0.1       0.0       0.1       0.1       0.2
14 H  s               0.9       3.1       0.4       3.1       0.0       0.5
14 H  pz              0.1       0.4       0.5       0.4       0.1       0.7
14 H  px              0.5       0.2       0.3       0.0       0.1       0.2
14 H  py              0.2       0.7       0.1       0.5       0.1       0.1

                     30        31        32        33        34        35   
                   0.20010   0.20901   0.21143   0.21690   0.22233   0.23203
                   0.00000   0.00000   0.00000   0.00000   0.00000   0.00000
                  --------  --------  --------  --------  --------  --------
 0 C  s               0.8       1.7       0.2       0.4       0.1       1.0
 0 C  pz             11.6       2.1      37.0       3.2       1.2       9.1
 0 C  px              3.1       5.7       0.1       1.4       0.3       5.3
 0 C  py              1.4      11.0       6.2      24.1       1.4      13.7
 0 C  dz2             2.1       0.0       0.3       0.0       0.1       1.0
 0 C  dxz             0.0       0.2       0.1       0.0       0.0       0.1
 0 C  dyz             0.5       0.2       2.1       0.0       0.3       0.4
 0 C  dx2y2           0.7       0.4       0.1       0.1       0.0       0.2
 0 C  dxy             0.0       0.4       0.7       0.1       0.1       0.1
 1 C  s               0.9       0.9       0.7       0.2       0.4       1.7
 1 C  pz              3.1       1.6       1.9       0.1       0.5       1.2
 1 C  px              2.4       4.0       2.5       0.8       0.3       5.7
 1 C  py              1.4       4.3       2.3       0.1       1.2       1.0
 1 C  dz2             0.0       0.1       0.0       0.0       0.2       0.3
 1 C  dxz             0.2       0.1       0.1       0.1       0.0       0.1
 1 C  dx2y2           0.4       0.0       0.0       0.2       0.0       0.4
 1 C  dxy             0.2       0.5       0.1       0.0       0.0       0.0
 2 C  s               0.0       3.7       0.2       2.9       0.3       5.6
 2 C  pz              0.6       0.3       1.1       0.3       1.1       0.3
 2 C  px              1.4       0.1       0.1       2.1       0.4       1.2
 2 C  py              0.7       5.8       0.0       2.1       0.2       1.0
 2 C  dz2             0.0       0.1       0.0       0.2       0.1       0.2
 2 C  dxz             0.1       0.0       0.0       0.0       0.2       0.1
 2 C  dyz             0.0       0.2       0.1       0.0       0.0       0.4
 2 C  dx2y2           0.1       0.0       0.0       0.0       0.1       0.7
 2 C  dxy             0.2       0.1       0.0       0.0       0.0       0.1
 3 C  s               2.7       1.2       0.5       7.8       0.2       1.2
 3 C  pz              0.6       0.3       0.5       0.3      14.3       0.4
 3 C  px              0.8       0.9       0.1       1.1       0.0       0.5
 3 C  py              0.5       6.6       0.2      15.7       0.4       2.5
 3 C  dz2             0.3       0.0       0.1       0.2       0.1       0.5
 3 C  dxz             0.1       0.0       0.0       0.0       0.1       0.1
 3 C  dx2y2           0.0       0.3       0.0       0.1       0.0       0.1
 3 C  dxy             0.1       0.0       0.0       0.0       0.0       0.3
 4 C  s               0.1       0.5       0.2       1.1       0.1       1.1
 4 C  pz              5.5       2.4       6.7       2.6      50.3       6.7
 4 C  px              0.8      18.7       1.6       5.6       0.5       0.7
 4 C  py              5.0       4.1       1.5       3.3       9.5       7.7
 4 C  dz2             0.1       0.0       0.1       0.0       0.0       0.1
 4 C  dxz             0.3       0.2       0.0       0.0       0.8       0.0
 4 C  dyz             0.9       0.0       0.1       0.3       0.4       0.1
 4 C  dx2y2           0.1       0.5       0.1       0.2       0.0       0.3
 4 C  dxy             0.0       0.0       0.0       1.3       0.1       0.0
 5 H  s               2.6       3.1       4.7       0.6       0.4       1.2
 5 H  pz              0.8       0.0       2.3       0.0       0.1       0.1
 5 H  px              0.0       0.2       0.7       0.3       0.0       0.0
 5 H  py              1.1       1.0       0.1       0.1       0.0       0.5
 6 H  s              16.6       0.2       3.8       0.1       1.2       2.9
 6 H  pz              3.1       0.3       0.0       0.0       0.3       0.3
 6 H  px              0.1       0.3       0.1       0.0       0.0       0.1
 6 H  py              0.2       0.1       1.3       0.0       0.3       0.6
 7 H  s               5.0       1.0      10.7       4.7       1.3       4.6
 7 H  pz              0.3       0.1       0.1       0.5       0.0       1.5
 7 H  px              0.0       0.4       0.2       0.3       0.2       0.0
 7 H  py              1.8       0.0       0.7       1.7       0.1       0.1
 8 H  s               1.7       0.4       0.0       0.1       1.1       3.3
 8 H  pz              0.3       0.1       0.0       0.0       0.1       1.2
 8 H  px              0.0       0.3       0.3       0.0       0.0       0.0
 8 H  py              0.0       0.1       0.1       0.0       0.0       0.0
 9 H  s               0.1       0.8       1.6       0.3       0.8       0.7
 9 H  pz              0.0       0.0       0.1       0.0       0.0       0.4
 9 H  px              0.4       0.0       0.0       0.4       0.0       0.0
 9 H  py              0.2       0.3       0.4       0.0       0.1       0.1
10 H  s               0.1       0.2       0.0       0.5       0.2       0.5
10 H  pz              0.0       0.0       0.1       0.0       0.0       0.0
10 H  px              0.5       0.0       0.1       0.1       0.1       0.6
10 H  py              0.0       0.1       0.0       0.0       0.1       0.1
11 H  s               0.1       0.7       0.1       0.9       0.3       0.2
11 H  px              0.0       0.2       0.0       0.0       0.0       0.0
11 H  py              0.1       0.2       0.0       0.6       0.1       0.2
12 H  s               4.0       0.8       0.8       0.1       2.6       1.0
12 H  pz              0.3       0.0       0.1       0.0       0.1       0.6
12 H  px              0.8       0.2       0.4       0.3       0.0       0.0
12 H  py              1.0       0.1       0.3       0.2       0.1       0.0
13 H  s               1.5       4.5       0.6       3.2       0.7       1.5
13 H  pz              0.7       0.2       0.1       0.0       0.9       0.1
13 H  px              0.1       2.6       0.0       0.3       0.3       0.7
13 H  py              0.0       0.0       0.0       0.8       0.1       0.1
14 H  s               5.3       1.4       1.7       3.5       2.4       2.7
14 H  pz              0.4       0.0       0.4       0.7       0.4       0.3
14 H  px              0.0       0.0       0.0       0.9       0.2       0.0
14 H  py              0.3       0.6       0.1       0.4       0.1       0.3

                     36        37        38        39        40        41   
                   0.25665   0.26981   0.27108   0.28725   0.29081   0.31213
                   0.00000   0.00000   0.00000   0.00000   0.00000   0.00000
                  --------  --------  --------  --------  --------  --------
 0 C  s               0.1       0.5       0.3       0.3       1.0       0.7
 0 C  pz              0.3       7.1       4.3       7.1       0.3       1.3
 0 C  px              0.8       1.9       0.9       2.8      12.4       2.1
 0 C  py              1.0       1.4       5.3       2.0       7.0       1.5
 0 C  dz2             0.0       0.1       0.2       0.0       0.1       0.1
 0 C  dxz             0.0       0.2       0.4       0.0       0.0       0.7
 0 C  dyz             0.0       0.0       0.0       0.0       0.0       0.3
 0 C  dx2y2           0.0       0.0       0.1       0.5       0.0       0.0
 0 C  dxy             0.5       0.0       0.0       0.1       0.3       0.0
 1 C  s               0.9       0.3       0.3       0.3       0.2       0.1
 1 C  pz              1.5       7.6       9.1      12.7       2.1      33.1
 1 C  px              0.6       0.4       1.9       1.6       3.7       0.1
 1 C  py             19.2       0.6       0.3       3.4       4.1       5.6
 1 C  dz2             0.2       0.3       0.2       0.1       0.4       1.8
 1 C  dxz             0.0       0.3       0.4       0.1       0.3       0.0
 1 C  dyz             0.4       0.2       0.1       0.0       0.6       0.6
 1 C  dx2y2           0.0       0.5       0.0       0.0       1.1       0.0
 1 C  dxy             0.7       0.0       0.0       0.1       0.0       0.3
 2 C  s               0.3       0.8       4.9       1.2       3.3       0.2
[...]
14 H  py              1.1       0.7       0.8       5.3       4.6       0.6

                    138       139       140       141       142       143   
                   3.62956   3.76937  21.62864  21.89805  21.92860  21.98217
                   0.00000   0.00000   0.00000   0.00000   0.00000   0.00000
                  --------  --------  --------  --------  --------  --------
 0 C  s               0.0       0.0       0.9      77.8       4.2      15.6
 0 C  pz              2.5       0.0       0.0       0.0       0.0       0.0
 0 C  px              0.2       0.1       0.0       0.0       0.0       0.0
 0 C  py              0.6       0.0       0.0       0.0       0.0       0.0
 0 C  dz2             3.9       0.0       0.0       0.0       0.0       0.0
 0 C  dxz             0.5       0.2       0.0       0.0       0.0       0.0
 0 C  dyz             4.1       0.0       0.0       0.0       0.0       0.0
 0 C  dx2y2           1.2       0.1       0.0       0.0       0.0       0.0
 0 C  dxy             0.4       0.3       0.0       0.0       0.0       0.0
 1 C  s               0.0       0.1       3.8       4.6      25.8      65.2
 1 C  pz              6.3       0.0       0.0       0.0       0.0       0.0
 1 C  px              0.4       0.3       0.0       0.0       0.0       0.0
 1 C  py              1.5       0.7       0.0       0.0       0.0       0.0
 1 C  dz2             7.8       0.0       0.0       0.0       0.0       0.0
 1 C  dxz             0.8       0.0       0.0       0.0       0.0       0.0
 1 C  dyz             7.7       0.6       0.0       0.0       0.0       0.0
 1 C  dx2y2           2.7       0.9       0.0       0.0       0.0       0.0
 1 C  dxy             1.2       1.5       0.0       0.0       0.0       0.0
 2 C  s               0.0       0.1      46.4       0.1       2.7       0.1
 2 C  pz              0.1       0.1       0.0       0.0       0.0       0.0
 2 C  px              0.1       0.7       0.0       0.0       0.0       0.0
 2 C  py              0.0       2.8       0.0       0.0       0.0       0.0
 2 C  dz2             0.1       0.3       0.0       0.0       0.0       0.0
 2 C  dxz             0.2       0.7       0.0       0.0       0.0       0.0
 2 C  dyz             0.1       0.2       0.0       0.0       0.0       0.0
 2 C  dx2y2           0.1       4.1       0.0       0.0       0.0       0.0
 2 C  dxy             0.0      13.0       0.0       0.0       0.0       0.0
 3 C  s               0.0       0.2      44.7       1.3       5.9       0.1
 3 C  pz              0.0       0.2       0.0       0.0       0.0       0.0
 3 C  px              0.1       1.2       0.0       0.0       0.0       0.0
 3 C  py              0.0       2.7       0.0       0.0       0.0       0.0
 3 C  dz2             0.0       0.2       0.0       0.0       0.0       0.0
 3 C  dxz             0.1       0.8       0.0       0.0       0.0       0.0
 3 C  dyz             0.0       0.5       0.0       0.0       0.0       0.0
 3 C  dx2y2           0.1       1.0       0.0       0.0       0.0       0.0
 3 C  dxy             0.1      16.6       0.0       0.0       0.0       0.0
 4 C  s               0.0       0.1       3.9      15.8      61.1      18.9
 4 C  pz              0.5       0.1       0.0       0.0       0.0       0.0
 4 C  px              0.0       1.7       0.0       0.0       0.0       0.0
 4 C  dz2             0.0       0.3       0.0       0.0       0.0       0.0
 4 C  dxz             0.2       0.0       0.0       0.0       0.0       0.0
 4 C  dyz             0.8       0.0       0.0       0.0       0.0       0.0
 4 C  dx2y2           0.1       6.1       0.0       0.0       0.0       0.0
 4 C  dxy             0.0       0.6       0.0       0.0       0.0       0.0
 5 H  py              0.0       0.1       0.0       0.0       0.0       0.0
 6 H  s               2.2       0.0       0.0       0.0       0.0       0.0
 6 H  pz              5.1       0.0       0.0       0.0       0.0       0.0
 6 H  px              0.2       0.0       0.0       0.0       0.0       0.0
 6 H  py              0.2       0.0       0.0       0.0       0.0       0.0
 7 H  s               2.5       0.0       0.0       0.0       0.0       0.0
 7 H  pz              1.3       0.0       0.0       0.0       0.0       0.0
 7 H  px              1.3       0.0       0.0       0.0       0.0       0.0
 7 H  py              4.0       0.0       0.0       0.0       0.0       0.0
 8 H  s               4.7       0.0       0.0       0.0       0.0       0.0
 8 H  pz             10.5       0.0       0.0       0.0       0.0       0.0
 8 H  px              0.2       0.0       0.0       0.0       0.0       0.0
 8 H  py              1.0       0.0       0.0       0.0       0.0       0.0
 9 H  s               5.7       0.2       0.0       0.0       0.0       0.0
 9 H  pz              2.4       0.0       0.0       0.0       0.0       0.0
 9 H  px              1.6       0.0       0.0       0.0       0.0       0.0
 9 H  py              9.9       0.5       0.0       0.0       0.0       0.0
10 H  s               0.0       4.9       0.0       0.0       0.0       0.0
10 H  pz              0.0       0.4       0.0       0.0       0.0       0.0
10 H  px              0.0       1.4       0.0       0.0       0.0       0.0
10 H  py              0.0       9.4       0.0       0.0       0.0       0.0
11 H  s               0.0       5.4       0.0       0.0       0.0       0.0
11 H  pz              0.0       0.7       0.0       0.0       0.0       0.0
11 H  px              0.0       2.7       0.0       0.0       0.0       0.0
11 H  py              0.1       8.6       0.0       0.0       0.0       0.0
12 H  s               0.3       0.0       0.0       0.0       0.0       0.0
12 H  pz              0.6       0.1       0.0       0.0       0.0       0.0
12 H  py              0.2       0.1       0.0       0.0       0.0       0.0
13 H  s               0.0       1.8       0.0       0.0       0.0       0.0
13 H  px              0.0       3.0       0.0       0.0       0.0       0.0
13 H  py              0.0       0.7       0.0       0.0       0.0       0.0
14 H  s               0.3       0.2       0.0       0.0       0.0       0.0
14 H  pz              0.4       0.2       0.0       0.0       0.0       0.0
14 H  py              0.4       0.0       0.0       0.0       0.0       0.0

                    144   
                  22.26906
                   0.00000
                  --------
 0 C  s               1.1
 1 C  s               0.4
 2 C  s              50.3
 3 C  s              47.7


                      *****************************
                      * MAYER POPULATION ANALYSIS *
                      *****************************

  NA   - Mulliken gross atomic population
  ZA   - Total nuclear charge
  QA   - Mulliken gross atomic charge
  VA   - Mayer's total valence
  BVA  - Mayer's bonded valence
  FA   - Mayer's free valence

  ATOM       NA         ZA         QA         VA         BVA        FA
  0 C      6.4819     6.0000    -0.4819     3.8216     3.8216    -0.0000
  1 C      6.2299     6.0000    -0.2299     3.6601     3.6601    -0.0000
  2 C      6.1692     6.0000    -0.1692     3.7691     3.7691    -0.0000
  3 C      6.1390     6.0000    -0.1390     3.7288     3.7288    -0.0000
  4 C      6.4851     6.0000    -0.4851     3.8102     3.8102     0.0000
  5 H      0.8556     1.0000     0.1444     0.9631     0.9631    -0.0000
  6 H      0.8488     1.0000     0.1512     0.9624     0.9624     0.0000
  7 H      0.8578     1.0000     0.1422     0.9628     0.9628    -0.0000
  8 H      0.8439     1.0000     0.1561     0.9566     0.9566     0.0000
  9 H      0.8569     1.0000     0.1431     0.9625     0.9625    -0.0000
 10 H      0.8493     1.0000     0.1507     0.9676     0.9676    -0.0000
 11 H      0.8472     1.0000     0.1528     0.9668     0.9668    -0.0000
 12 H      0.8457     1.0000     0.1543     0.9610     0.9610    -0.0000
 13 H      0.8538     1.0000     0.1462     0.9648     0.9648    -0.0000
 14 H      0.8358     1.0000     0.1642     0.9586     0.9586     0.0000

  Mayer bond orders larger than 0.100000
B(  0-C ,  1-C ) :   0.8949 B(  0-C ,  5-H ) :   0.9754 B(  0-C ,  6-H ) :   0.9883 
B(  0-C ,  7-H ) :   0.9748 B(  1-C ,  2-C ) :   0.9207 B(  1-C ,  8-H ) :   0.9633 
B(  1-C ,  9-H ) :   0.9775 B(  2-C ,  3-C ) :   1.9428 B(  2-C , 10-H ) :   0.9521 
B(  3-C ,  4-C ) :   0.8978 B(  3-C , 11-H ) :   0.9519 B(  4-C , 12-H ) :   0.9773 
B(  4-C , 13-H ) :   0.9736 B(  4-C , 14-H ) :   0.9762 

-------
TIMINGS
-------

Total SCF time: 0 days 0 hours 0 min 6 sec 

Total time                  ....       6.162 sec
Sum of individual times     ....       6.126 sec  ( 99.4%)

SCF preparation             ....       0.111 sec  (  1.8%)
Fock matrix formation       ....       5.537 sec  ( 89.9%)
  Startup                   ....       0.010 sec  (  0.2% of F)
  Split-RI-J                ....       0.868 sec  ( 15.7% of F)
  XC integration            ....       4.555 sec  ( 82.3% of F)
    Basis function eval.    ....       0.891 sec  ( 19.6% of XC)
    Density eval.           ....       1.329 sec  ( 29.2% of XC)
    XC-Functional eval.     ....       0.727 sec  ( 16.0% of XC)
    XC-Potential eval.      ....       1.390 sec  ( 30.5% of XC)
Diagonalization             ....       0.000 sec  (  0.0%)
Density matrix formation    ....       0.035 sec  (  0.6%)
Total Energy calculation    ....       0.001 sec  (  0.0%)
Population analysis         ....       0.335 sec  (  5.4%)
Orbital Transformation      ....       0.018 sec  (  0.3%)
Orbital Orthonormalization  ....       0.000 sec  (  0.0%)
DIIS solution               ....       0.074 sec  (  1.2%)
  MO trafo                  ....       0.000 sec  (  0.0 % of DIIS)
  Orb grad                  ....       0.000 sec  (  0.0 % of DIIS)
  Energy W gradient         ....       0.000 sec  (  0.0 % of DIIS)
  DIIS error                ....       0.003 sec  (  3.6 % of DIIS)
  DIIS work                 ....       0.062 sec  ( 83.6 % of DIIS)
  Form Q                    ....       0.000 sec  (  0.0 % of DIIS)
  Form QpQm                 ....       0.000 sec  (  0.0 % of DIIS)
  Exp/Cayley                ....       0.000 sec  (  0.0 % of DIIS)
  Orb update                ....       0.000 sec  (  0.0 % of DIIS)
  Wake-sleep                ....       0.001 sec  (  1.3 % of DIIS)
SOSCF solution              ....       0.015 sec  (  0.2%)
  MO trafo                  ....       0.012 sec  ( 79.0 % of SOSCF)
  Orb grad                  ....       0.000 sec  (  0.5 % of SOSCF)
  Rot update                ....       0.000 sec  (  0.1 % of SOSCF)
  Step                      ....       0.003 sec  ( 20.2 % of SOSCF)
Finished LeanSCF after   7.4 sec

Maximum memory used throughout the entire LEANSCF-calculation: 15.6 MB


-------------------------------------------------------------------------------
                          DFT DISPERSION CORRECTION                            
                                                                               
                                DFTD4 V3.4.0                                   
-------------------------------------------------------------------------------
The R2SCAN3C composite method is recognized
Using three-body term ABC
Active option DFTDOPT                   ...         5   

-------------------------   ----------------
Dispersion correction           -0.003242809
-------------------------   ----------------

------------------   -----------------
gCP correction             0.006112912
------------------   -----------------

-------------------------   --------------------
FINAL SINGLE POINT ENERGY      -196.458485662762
-------------------------   --------------------


------------------------------------------------------------------------------
                              ORCA PROPERTY CALCULATIONS
------------------------------------------------------------------------------

GBWName                                 ... sp.gbw
Number of atoms                         ...     15
Number of basis functions               ...    145
Max core memory                         ...   1024 MB

Electric properties:
Dipole moment                           ... YES
Quadrupole moment                       ...  NO
Static polarizability (Dipole/Dipole)   ...  NO
Static polarizability (Dipole/Quad.)    ...  NO
Static polarizability (Quad./Quad.)     ...  NO
Static polarizability (Velocity)        ...  NO

Atomic electric properties:
Dipole moment                           ...  NO
Quadrupole moment                       ...  NO
Static polarizability                   ...  NO

Choice of electric origin               ... Center of mass
Position of electric origin             ...    -0.000004     0.000005    -0.000000

General magnetic properties:
Magnetizability                         ...  NO

EPR properties:
g-Tensor (aka g-matrix)                 ...  NO
Zero-Field splitting spin-orbit         ...  NO
Zero-field splitting spin-spin          ...  NO
Hyperfine couplings                     ...  NO (   0 nuclei)
Quadrupole couplings                    ...  NO (   0 nuclei)
Contact density                         ...  NO (   0 nuclei)

NMR properties:
Chemical shifts                         ...  NO (   0 nuclei)
Spin-rotation constants                 ...  NO (   0 nuclei)
Spin-spin couplings                     ...  NO (   0 nuclei,    0 pairs)

Choice of magnetic origin               ... GIAO
Position of magnetic origin             ...     0.000000     0.000000     0.000000

Properties with geometric perturbations:
SCF Hessian                             ...  NO
IR spectrum                             ...  NO
VCD spectrum                            ...  NO
X-ray spectroscopy properties:
SCF XES/XAS/RIXS spectra                ...  NO


-------------
DIPOLE MOMENT
-------------

Method             : SCF
Type of density    : Electron Density
Multiplicity       :   1
Irrep              :   0
Energy             :  -196.4613557662704579 Eh
Relativity type    : 
Basis              : AO
                                X                 Y                 Z
Electronic contribution:      1.300697296      -1.574312911       0.126117772
Nuclear contribution   :     -1.304399470       1.724201639      -0.167010336
                        -----------------------------------------
Total Dipole Moment    :     -0.003702174       0.149888728      -0.040892564
                        -----------------------------------------
Magnitude (a.u.)       :      0.155410870
Magnitude (Debye)      :      0.395023039



--------------------
Rotational spectrum 
--------------------
 
Rotational constants in cm-1:             0.458352             0.084164             0.074562 
Rotational constants in MHz :         13741.036523          2523.171079          2235.317223 

Dipole components along the rotational axes: 
x,y,z [a.u.] :    -0.002384     0.155141    -0.008838 
x,y,z [Debye]:    -0.006059     0.394337    -0.022464 

 

Dipole moment calculation done in   0.2 sec 

Maximum memory used throughout the entire PROP-calculation: 8.6 MB

--------------------------------
SUGGESTED CITATIONS FOR THIS RUN
--------------------------------

Below you find a list of papers that are relevant to this ORCA run
We neither can nor want to force you to cite these papers, but we appreciate if you do
You receive ORCA, which is the product of decades of hard work by many enthusiastic individuals, for free
The only thing we kindly ask in return is that you cite our papers,
We deeply appreciate it, if you show your appreciation for ORCA by not just citing the generic ORCA reference.

Please note that relegating all ORCA citations to the supporting information does *not* help us.
SI sections are not indexed - citations you put there will not count into any citation statistics
But we need these citations in order to attract the funding resources that allow us to do what we are doing

Therefore, if you are a happy ORCA user, please consider citing a few of the papers listed below in the main body of your paper

In addition to the list printed below, the program has created the file sp.bibtex that contains the list in bibtex format
You can import this file easily into all common literature databanks and citation aid programs


List of essential papers. We consider these as the minimum necessary citations

  1. Neese,F.
     Software update: the ORCA program system, version 5.0
     WIRES Comput. Molec. Sci., 2022 12(1)e1606
     doi.org/10.1002/wcms.1606
  2. Grimme,S.; Hansen,A.; Ehlert,S.; Mewes,J.
     r2SCAN-3c: A 'Swiss army knife' composite electronic-structure method
     J. Chem. Phys., 2021 154 064103
     doi.org/10.1063/5.0040021

List of papers to cite with high priority. The work reported in these papers was absolutely
necessary for this run to complete.
Our perspective: the developers of density functionals and basis sets usually get cited in chemistry papers
Good! But without the algorithms to do something with them, the functionals or basis sets would not do anything.
Hence, in our opinion, the algorithm design and method developments papers are equally worthy of getting cited

  1. Neese,F.
     An improvement of the resolution of the identity approximation for the formation of the Coulomb matrix
     J. Comp. Chem., 2003 24(14)1740-1747
     doi.org/10.1002/jcc.10318
  2. Neese,F.
     The SHARK Integral Generation and Digestion System
     J. Comp. Chem., 2022  1-16
     doi.org/10.1002/jcc.26942
  3. Lehtola,S.; Steigemann,C.; Oliveira,M.; Marques,M.
     Recent developments in Libxc - A comprehensive library of functionals for density functional theory
     Software X, 2018 7 
     doi.org/10.1016/j.softx.2017.11.002
  4. Caldeweyher,E.; Bannwarth,C.; Grimme,S.
     Extension of the D3 dispersion coefficient model
     J. Chem. Phys., 2017 147 034112
     doi.org/10.1063/1.4993215
  5. Caldeweyher,E.; Ehlert,S.; Hansen,A.; Neugebauer,H.; Spicher,S.; Bannwarth,C.; Grimme,S.
     A generally applicable atomic-charge dependent London dispersion correction
     J. Chem. Phys., 2019 150 154122
     doi.org/10.1063/1.5090222
  6. Caldeweyher,E.; Mewes,J.; Ehlert,S.; Grimme,S.
     Extension and evaluation of the D4 London-dispersion model for periodic systems
     Phys. Chem. Chem. Phys., 2020 22(16)8499-8512
     doi.org/10.1039/D0CP00502A
  7. Wittmann,L.; Gordiy,I.; Friede,M.; Helmich-Paris,B.; Grimme,S.; Hansen,A.; Bursch,M.
     Extension of the D3 and D4 London Dispersion Corrections to the full Actinides Series
     Phys. Chem. Chem. Phys., 2024 26(32)21379-21394
     doi.org/https://doi.org/10.1039/D4CP01514B 

List of suggested additional citations. These are papers that are important in the 'surrounding' of 
of this run, or papers that preceded the highly important papers. If you like your results we are grateful for a citation.

  1. Neese,F.
     The ORCA program system
     WIRES Comput. Molec. Sci., 2012 2(1)73-78
     doi.org/10.1002/wcms.81
  2. Neese,F.
     Software update: the ORCA program system, version 4.0
     WIRES Comput. Molec. Sci., 2018 8(1)1-6
     doi.org/10.1002/wcms.1327
  3. Neese,F.; Wennmohs,F.; Becker,U.; Riplinger,C.
     The ORCA quantum chemistry program package
     J. Chem. Phys., 2020 152 Art. No. L224108
     doi.org/10.1063/5.0004608

List of optional additional citations

  1. Neese,F.
     Approximate second-order SCF convergence for spin unrestricted wavefunctions
     Chem. Phys. Lett., 2000 325(1-3)93-98
     doi.org/10.1016/s0009-2614(00)00662-x

Timings for individual modules:

Sum of individual times          ...        8.356 sec (=   0.139 min)
Startup calculation              ...        0.603 sec (=   0.010 min)   7.2 %
SCF iterations                   ...        7.519 sec (=   0.125 min)  90.0 %
Property calculations            ...        0.234 sec (=   0.004 min)   2.8 %
                             ****ORCA TERMINATED NORMALLY****
TOTAL RUN TIME: 0 days 0 hours 0 minutes 9 seconds 704 msec
